Control file title. For DL_FIELD 4.10
49898
    1MOL     C1    1   7.894   6.503   7.219  0.2311  0.2772  0.5365
    1MOL     F2    2   7.931   6.399   7.305 -0.5724 -0.1384 -0.2086
    1MOL     F3    3   7.968   6.488   7.105  0.3215  0.1943  0.1897
    1MOL     C4    4   7.927   6.637   7.287  0.5554 -1.0435  0.1617
    1MOL     H5    5   8.035   6.643   7.302  0.5424  0.4365 -0.2586
    1MOL     H6    6   7.885   6.624   7.387  0.8312  1.8029  0.7049
    1MOL     H7    7   7.789   6.495   7.190  0.6040 -0.1456 -0.7440
    1MOL     C8    8   7.874   6.766   7.228 -0.4385  0.2069 -0.2889
    1MOL     F9    9   7.949   6.803   7.127 -0.0013 -0.0425 -0.7990
    1MOL    F10   10   7.754   6.735   7.176 -0.1193 -0.0012 -0.3349
    1MOL    C11   11   7.855   6.880   7.324  1.0108 -0.6010 -0.7504
    1MOL    H12   12   7.767   6.858   7.386  1.3427  1.5707  0.5727
    1MOL    H13   13   7.815   6.962   7.265  1.2114 -0.0101 -0.0792
    1MOL    C14   14   7.972   6.914   7.421 -0.0015 -0.2876  0.6477
    1MOL    F15   15   8.003   6.815   7.501  0.1651 -0.1956 -0.0772
    1MOL    F16   16   8.085   6.936   7.349 -0.0526 -0.4456 -0.1814
    1MOL    C17   17   7.952   7.050   7.492  0.2484  0.0578 -0.5218
    1MOL    H18   18   7.861   7.042   7.551 -0.1696 -1.7281 -1.3682
    1MOL    H19   19   7.929   7.127   7.419  1.7946 -1.1637 -2.3632
    1MOL    C20   20   8.070   7.101   7.587 -0.8961 -0.2451  0.2123
    1MOL    F21   21   8.087   7.011   7.677 -0.0674  0.2479 -0.1841
    1MOL    F22   22   8.185   7.119   7.520 -0.2516 -0.5766  0.2040
    1MOL    C23   23   8.028   7.240   7.649 -0.1202 -1.0474  0.5946
    1MOL    H24   24   7.920   7.233   7.666 -0.1026 -2.0643  0.3250
    1MOL    H25   25   8.044   7.318   7.575 -0.6497 -0.4722  1.0782
    1MOL    C26   26   8.094   7.286   7.787 -0.5660  0.2335  0.1619
    1MOL    F27   27   8.042   7.409   7.819  0.0854  0.1517  0.3548
    1MOL    F28   28   8.059   7.214   7.893 -0.0541  0.0104 -0.4420
    1MOL    C29   29   8.246   7.285   7.782 -0.0114  0.4157  0.6306
    1MOL    H30   30   8.271   7.181   7.761 -0.3056  0.1214  1.6932
    1MOL    H31   31   8.280   7.302   7.884 -0.1315 -3.7612  1.4715
    1MOL    C32   32   8.308   7.391   7.686 -0.3866 -0.3112 -0.6834
    1MOL    F33   33   8.291   7.352   7.566 -0.0299  0.1876 -0.2207
    1MOL    F34   34   8.243   7.508   7.689 -0.1664  0.4102  0.3834
    1MOL    C35   35   0.110   7.407   7.708 -0.8782  0.5497  0.1755
    1MOL    H36   36   0.121   7.433   7.813  1.1505 -0.5914  0.2617
    1MOL    H37   37   0.150   7.496   7.659 -0.2325 -0.8871 -1.9726
    1MOL    C38   38   0.197   7.284   7.673 -0.1151 -0.6402  0.0397
    1MOL    F39   39   0.170   7.171   7.740  0.0898 -0.6713 -0.2493
    1MOL    F40   40   0.184   7.255   7.540  0.2167 -0.1840  0.1904
    1MOL    C41   41   0.354   7.295   7.691  0.1671  0.1359 -0.2264
    1MOL    H42   42   0.383   7.391   7.648 -0.9606  1.7811  2.5302
    1MOL    H43   43   0.400   7.217   7.630 -1.6962 -0.6805 -0.6268
    1MOL    C44   44   0.406   7.274   7.841  0.5688  0.5539 -0.1406
    1MOL    F45   45   0.312   7.324   7.923  0.7309  0.3947  0.0301
    1MOL    F46   46   0.412   7.141   7.856 -0.1874 -0.4881 -0.0922
    1MOL    C47   47   0.543   7.351   7.851  0.1117 -0.0183  0.7256
    1MOL    H48   48   0.511   7.455   7.840 -0.4967 -0.1149  1.5509
    1MOL    H49   49   0.613   7.321   7.773  1.6956 -0.1263  2.1465
    1MOL    C50   50   0.624   7.333   7.984 -0.7335  0.0081 -0.3264
    1MOL    F51   51   0.654   7.200   7.997  0.0807  0.1097 -0.7360
    1MOL    F52   52   0.738   7.403   7.977 -0.4443 -0.2635 -0.2929
    1MOL    C53   53   0.546   7.372   8.110  0.7204 -0.6375  1.0113
    1MOL    H54   54   0.486   7.285   8.136 -1.3296  0.6038  0.5431
    1MOL    H55   55   0.479   7.454   8.087  3.9818  1.5348 -1.1733
    1MOL    C56   56   0.640   7.414   8.228 -0.4242  0.3717  0.0976
    1MOL    F57   57   0.711   7.522   8.192 -0.1552 -0.6369 -0.2630
    1MOL    F58   58   0.562   7.456   8.326  0.1476 -0.4574  0.1134
    1MOL    C59   59   0.740   7.307   8.273  0.4712 -0.3368  0.6143
    1MOL    H60   60   0.820   7.363   8.322  0.5263 -0.9165  1.1911
    1MOL    H61   61   0.794   7.269   8.186 -0.9394 -1.1097  0.0563
    1MOL    C62   62   0.688   7.187   0.007 -0.7417  0.0918 -0.2272
    1MOL    F63   63   0.626   7.227   0.117  0.4227  0.3749  0.0755
    1MOL    F64   64   0.593   7.127   8.282  0.0046 -0.4701  0.2413
    1MOL    C65   65   0.806   7.097   0.054 -0.2715  0.6258 -0.5172
    1MOL    H66   66   0.767   7.029   0.129  2.5287 -0.9274 -0.3929
    1MOL    H67   67   0.882   7.165   0.092 -0.2705 -0.9250  2.4340
    1MOL    C68   68   0.884   7.010   8.299  0.4466 -0.4307 -0.1398
    1MOL    F69   69   0.919   7.086   8.196 -1.2384 -0.2891  0.2317
    1MOL    F70   70   1.000   6.969   0.001 -0.3805  0.0073  0.2216
    1MOL    C71   71   0.798   6.885   8.251 -0.2136 -0.1009  0.4304
    1MOL    H72   72   0.713   6.927   8.198  0.0713 -0.1385 -0.0583
    1MOL    H73   73   0.764   6.830   8.339 -3.0589 -0.1079 -0.6143
    1MOL    C74   74   0.878   6.784   8.171  0.1300  0.5752  0.2811
    1MOL    F75   75   0.987   6.745   8.244  0.5936 -0.1585  1.1805
    1MOL    F76   76   0.807   6.671   8.161  0.0728  0.3877  0.3014
    1MOL    C77   77   0.908   6.832   8.026  0.0036 -0.0819  0.2016
    1MOL    H78   78   0.973   6.919   8.039  0.1941 -0.2714  0.5404
    1MOL    H79   79   0.820   6.875   7.978 -0.0089 -0.9315 -0.5378
    1MOL    C80   80   0.971   6.726   7.926 -0.5049 -0.1163 -0.3032
    1MOL    F81   81   1.069   6.663   7.995 -0.9189  0.3232  0.0981
    1MOL    F82   82   0.871   6.645   7.903 -0.2335  0.5608  0.0534
    1MOL    C83   83   1.028   6.784   7.792 -0.1799  0.3078 -0.0151
    1MOL    H84   84   1.057   6.698   7.731  1.4455 -0.1624  1.3607
    1MOL    H85   85   1.110   6.854   7.809  0.6942 -0.5520 -0.6489
    1MOL    C86   86   0.923   6.867   7.716 -0.1650  0.1055 -0.4317
    1MOL    F87   87   0.800   6.819   7.719  0.0813 -0.1500  0.6959
    1MOL    F88   88   0.925   6.989   7.760  0.0608  0.3901  0.4838
    1MOL    C89   89   0.949   6.878   7.560 -0.3323 -0.1539  0.4575
    1MOL    H90   90   0.863   6.917   7.505  0.8463  2.2262  0.2362
    1MOL    H91   91   0.946   6.776   7.523 -0.6436  0.1241 -0.2964
    1MOL    C92   92   1.087   6.944   7.525  0.2368  0.0346  0.5775
    1MOL    F93   93   1.094   7.064   7.581 -0.2923 -0.4855  0.0324
    1MOL    F94   94   1.179   6.862   7.573 -0.2281  0.2079  0.4068
    1MOL    C95   95   1.103   6.963   7.380 -0.1475  0.4911 -0.6069
    1MOL    H96   96   1.207   6.990   7.359  0.5933  0.0157  2.3185
    1MOL    H97   97   1.038   7.048   7.362 -0.6965  0.1824 -0.0803
    1MOL    C98   98   1.068   6.844   7.290  0.1586  0.1387  0.3134
    1MOL    F99   99   1.128   6.737   7.338 -0.2364  0.1590  0.0928
    1MOL   F100  100   0.933   6.839   7.289 -0.2493 -0.4645  0.2290
    1MOL   C101  101   1.113   6.873   7.142  0.6543 -1.0821  0.1733
    1MOL   H102  102   1.219   6.899   7.142 -0.1636  2.6729 -0.8204
    1MOL   H103  103   1.062   6.966   7.116  2.8454  0.4824  1.3184
    1MOL   C104  104   1.076   6.769   7.038  0.2096  0.1917  0.4486
    1MOL   F105  105   1.102   6.812   6.909  0.2169 -0.1929  0.0062
    1MOL   F106  106   1.163   6.668   7.063  0.0637  0.2722  0.0664
    1MOL   C107  107   0.927   6.720   7.045 -0.2699  0.5262  0.0311
    1MOL   H108  108   0.857   6.802   7.055  0.9342  1.5094  0.5306
    1MOL   H109  109   0.914   6.655   7.132 -0.3374  2.5636  1.5723
    1MOL   C110  110   0.880   6.650   6.924  0.5347 -0.4522  0.5304
    1MOL   F111  111   0.879   6.740   6.830 -0.0692  0.2032 -0.6506
    1MOL   F112  112   0.960   6.541   6.891  0.1423 -0.1719  0.4028
    1MOL   C113  113   0.739   6.578   6.929 -0.9856 -0.1125  0.3332
    1MOL   H114  114   0.749   6.505   7.008  1.7101  2.2644  2.2646
    1MOL   H115  115   0.722   6.518   6.839 -0.8677  2.7537 -1.6807
    1MOL   C116  116   0.609   6.657   6.946 -0.1011 -0.2546 -0.6229
    1MOL   F117  117   0.613   6.739   7.049  0.3697  0.0138  0.3812
    1MOL   F118  118   0.601   6.735   6.842 -0.0436  0.1454  0.1282
    1MOL   C119  119   0.489   6.567   6.958  0.4728 -0.0478 -0.3233
    1MOL   H120  120   0.397   6.625   6.958  0.1599 -0.5238  1.7195
    1MOL   H121  121   0.502   6.500   7.042  1.9925  0.9199  0.2366
    1MOL   H122  122   0.491   6.507   6.867 -1.6772 -2.6121  1.2710
    2MOL     C1  123   0.839   0.523   7.300 -0.3211 -0.4498 -0.1561
    2MOL     F2  124   0.760   0.611   7.357  0.4056  0.1951  0.2410
    2MOL     F3  125   0.844   0.416   7.376 -0.1730 -0.1243 -0.2194
    2MOL     C4  126   0.975   0.590   7.286  0.6052  0.4167  0.6011
    2MOL     H5  127   1.000   0.601   7.392  0.1625 -0.9497  0.8558
    2MOL     H6  128   0.955   0.683   7.232  0.5316  0.3530  0.5195
    2MOL     H7  129   0.790   0.491   7.208 -0.0882 -2.0691  0.2765
    2MOL     C8  130   1.080   0.508   7.212  0.6030  0.0085  0.0604
    2MOL     F9  131   1.098   0.407   7.281  0.5247  0.2069 -0.1108
    2MOL    F10  132   1.025   0.460   7.097  0.3461 -0.2222 -0.3849
    2MOL    C11  133   1.217   0.591   7.182  0.6670 -0.2527  0.4838
    2MOL    H12  134   1.252   0.618   7.282  1.7091  1.6254 -0.3672
    2MOL    H13  135   1.196   0.684   7.128  3.3027  0.0507 -0.1052
    2MOL    C14  136   1.332   0.522   7.118 -0.2591  0.3905  0.3507
    2MOL    F15  137   1.438   0.598   7.145  0.2738  0.3828  0.0356
    2MOL    F16  138   1.351   0.400   7.182  0.2733  0.3707  0.0478
    2MOL    C17  139   1.314   0.508   6.968  0.2896  0.9527 -0.3485
    2MOL    H18  140   1.298   0.602   6.914 -2.3345  1.3756  1.0690
    2MOL    H19  141   1.230   0.446   6.937 -0.2638 -1.1334  4.9569
    2MOL    C20  142   1.446   0.459   6.887 -0.0359 -0.1061  0.4037
    2MOL    F21  143   1.420   0.455   6.753 -0.1681  0.3464 -0.4685
    2MOL    F22  144   1.538   0.555   6.909 -0.4263  0.7874 -0.7059
    2MOL    C23  145   1.492   0.317   6.929  0.4618 -0.4317  0.2121
    2MOL    H24  146   1.418   0.246   6.893 -0.4546  1.0758 -0.8985
    2MOL    H25  147   1.495   0.304   7.037  0.3472  0.0435  0.2754
    2MOL    C26  148   1.632   0.271   6.880  0.5238  0.0768 -0.0032
    2MOL    F27  149   1.648   0.151   6.925  0.1683 -0.0123 -0.2125
    2MOL    F28  150   1.623   0.266   6.750 -0.9609 -0.0923 -0.0019
    2MOL    C29  151   1.751   0.364   6.901 -0.5967  0.6555 -0.1483
    2MOL    H30  152   1.760   0.395   7.005 -0.6800 -0.3170  0.1558
    2MOL    H31  153   1.744   0.456   6.844 -0.3377  2.0176  1.9928
    2MOL    C32  154   1.888   0.308   6.857 -0.5360 -0.0202  0.1856
    2MOL    F33  155   1.911   0.196   6.933 -0.3664  0.0744 -0.4117
    2MOL    F34  156   1.879   0.275   6.733 -0.1688 -0.5273  0.1261
    2MOL    C35  157   2.010   0.399   6.870 -0.5765 -0.9824 -0.3260
    2MOL    H36  158   2.090   0.330   6.843 -0.8765 -0.8731 -1.5284
    2MOL    H37  159   2.027   0.433   6.973 -0.5151 -1.6250 -0.1210
    2MOL    C38  160   2.027   0.534   6.791  0.2904  0.3646  0.1988
    2MOL    F39  161   1.947   0.531   6.685 -0.4596 -0.1699 -0.2585
    2MOL    F40  162   1.969   0.635   6.859 -0.1613  0.3328 -0.9419
    2MOL    C41  163   2.167   0.597   6.765  0.1984 -0.1938  0.2579
    2MOL    H42  164   2.145   0.683   6.702  0.4802 -0.5505 -0.3338
    2MOL    H43  165   2.211   0.525   6.697 -0.4522  0.0449 -0.4189
    2MOL    C44  166   2.265   0.629   6.885  0.2910 -0.4202  0.1385
    2MOL    F45  167   2.210   0.725   6.958 -0.5057  0.5833  0.1401
    2MOL    F46  168   2.282   0.521   6.967 -0.1450  0.0143 -0.1230
    2MOL    C47  169   2.406   0.653   6.829  0.0825  0.3246 -0.1857
    2MOL    H48  170   2.427   0.581   6.751 -0.2746  1.0261 -0.9438
    2MOL    H49  171   2.476   0.631   6.910 -0.2503 -1.1529 -0.2925
    2MOL    C50  172   2.436   0.792   6.763  0.5871  0.1397  0.4209
    2MOL    F51  173   2.563   0.779   6.718  0.5926 -1.1801  0.3586
    2MOL    F52  174   2.364   0.818   6.652  0.2824 -0.8031 -0.1040
    2MOL    C53  175   2.421   0.898   6.877  0.8409  0.2278  0.1602
    2MOL    H54  176   2.451   0.850   6.969  0.5755 -0.3689 -0.0605
    2MOL    H55  177   2.322   0.944   6.883  1.6566  2.0550  0.1560
    2MOL    C56  178   2.510   1.016   6.865 -1.0091 -0.2407  0.2886
    2MOL    F57  179   2.491   1.095   6.972  0.3267  0.3246  0.2807
    2MOL    F58  180   2.637   0.979   6.866 -0.4915 -0.0426 -0.0382
    2MOL    C59  181   2.486   1.097   6.729 -0.6250 -0.6177  0.3101
    2MOL    H60  182   2.381   1.126   6.732 -0.4351  0.2111 -0.9161
    2MOL    H61  183   2.508   1.031   6.646 -1.1079  0.5925 -0.8054
    2MOL    C62  184   2.557   1.225   6.699 -1.0032  0.1730 -0.3560
    2MOL    F63  185   2.682   1.179   6.687  0.3380 -0.2518  0.2586
    2MOL    F64  186   2.523   1.259   6.582  0.4562 -0.2360  0.2525
    2MOL    C65  187   2.531   1.336   6.796 -0.3023 -0.7151  0.1214
    2MOL    H66  188   2.555   1.302   6.896 -1.2653  0.5761  0.8118
    2MOL    H67  189   2.425   1.362   6.798  0.1720  1.4183 -0.5957
    2MOL    C68  190   2.623   1.460   6.766  0.6074 -0.0773 -1.0819
    2MOL    F69  191   2.627   1.483   6.637 -0.5292  0.0119 -0.0777
    2MOL    F70  192   2.564   1.559   6.824  0.7637 -0.7201 -0.0191
    2MOL    C71  193   2.766   1.448   6.808  0.0682 -0.4392 -0.7308
    2MOL    H72  194   2.808   1.369   6.747 -2.8076 -1.2930 -1.6404
    2MOL    H73  195   2.774   1.406   6.909 -0.2538  1.6726  0.2049
    2MOL    C74  196   2.864   1.573   6.778  0.0105 -0.3036  0.8475
    2MOL    F75  197   2.984   1.516   6.801  0.1800 -0.2462 -0.3113
    2MOL    F76  198   2.860   1.599   6.649  0.7073  0.1298 -0.3623
    2MOL    C77  199   2.840   1.695   6.875  0.5587 -0.5912  0.1123
    2MOL    H78  200   2.800   1.652   6.967 -1.7699  0.7584 -0.2370
    2MOL    H79  201   2.749   1.740   6.835 -1.3464 -0.1232  4.6311
    2MOL    C80  202   2.952   1.796   6.884  0.8223  0.6585 -0.8712
    2MOL    F81  203   3.065   1.742   6.938  0.7714  0.2038 -0.8965
    2MOL    F82  204   2.990   1.838   6.766  0.2878 -0.4086 -0.1594
    2MOL    C83  205   2.927   1.920   6.965  0.3158 -0.2839 -0.9610
    2MOL    H84  206   2.845   1.969   6.912  0.0921  0.8584  0.4279
    2MOL    H85  207   3.011   1.990   6.962  0.5003 -0.4553 -0.0383
    2MOL    C86  208   2.867   1.895   7.103  0.1825 -0.4723 -0.2741
    2MOL    F87  209   2.737   1.852   7.089 -0.0386 -0.2456 -0.2323
    2MOL    F88  210   2.937   1.798   7.161 -0.2047 -0.1085  0.0511
    2MOL    C89  211   2.876   2.023   7.177 -0.3667  0.2342  0.3042
    2MOL    H90  212   2.980   2.055   7.185 -0.3861  0.6471 -1.0817
    2MOL    H91  213   2.846   1.999   7.279 -1.5449  0.8207  0.1024
    2MOL    C92  214   2.804   2.147   7.129 -0.2012  0.6596 -0.2609
    2MOL    F93  215   2.854   2.192   7.012  0.0928  0.1951  1.0043
    2MOL    F94  216   2.676   2.119   7.110  0.5522  0.0210  0.0685
    2MOL    C95  217   2.805   2.264   7.221  0.4537  0.3171 -0.4985
    2MOL    H96  218   2.903   2.303   7.195  0.6891 -0.2446 -0.4744
    2MOL    H97  219   2.813   2.244   7.328  2.5121  0.1262 -0.6634
    2MOL    C98  220   2.717   2.381   7.193  0.8781 -0.3767  0.2079
    2MOL    F99  221   2.596   2.360   7.238  0.0338  0.3673  0.2558
    2MOL   F100  222   2.769   2.476   7.266  0.7083 -0.1548  0.2920
    2MOL   C101  223   2.710   2.431   7.037  0.2441 -0.0985 -0.6640
    2MOL   H102  224   2.668   2.343   6.988 -2.4063  1.6925 -1.7251
    2MOL   H103  225   2.807   2.444   6.988 -0.2631  3.0102 -0.9379
    2MOL   C104  226   2.637   2.562   7.011 -0.2802 -0.7801 -0.0119
    2MOL   F105  227   2.513   2.535   7.058 -0.0003 -0.3726  0.1387
    2MOL   F106  228   2.695   2.658   7.088 -0.2197 -0.2486  0.0588
    2MOL   C107  229   2.647   2.601   6.863 -0.0111 -0.2473 -0.0620
    2MOL   H108  230   2.742   2.576   6.816  0.2201  0.7231 -0.1104
    2MOL   H109  231   2.654   2.709   6.856  1.5357 -0.3870 -0.7840
    2MOL   C110  232   2.529   2.553   6.777  0.5564 -0.5756  0.1981
    2MOL   F111  233   2.560   2.574   6.651  0.2586  0.3022 -0.3253
    2MOL   F112  234   2.511   2.420   6.794 -0.1872 -0.1643 -0.2100
    2MOL   C113  235   2.393   2.610   6.802  0.4555  0.0302  0.3702
    2MOL   H114  236   2.359   2.608   6.906  0.6894  0.9168  0.4701
    2MOL   H115  237   2.327   2.539   6.753 -0.8873  1.3408  0.2530
    2MOL   C116  238   2.368   2.747   6.736 -0.4256  0.4058 -0.4527
    2MOL   F117  239   2.458   2.831   6.783 -0.4187  0.0965  0.5666
    2MOL   F118  240   2.363   2.754   6.605  0.2360  0.3176  0.3335
    2MOL   C119  241   2.235   2.803   6.783 -0.3792  0.5026 -0.8572
    2MOL   H120  242   2.159   2.742   6.735 -0.2859 -1.0898  0.9343
    2MOL   H121  243   2.215   2.906   6.754 -0.6512  0.4955 -0.6967
    2MOL   H122  244   2.219   2.798   6.891 -2.3380 -0.7469 -1.1797
    3MOL     C1  245   3.038   8.277   0.498 -0.1132  0.2106 -0.5187
    3MOL     F2  246   3.094   0.037   0.554 -0.2924 -0.1056  0.3179
    3MOL     F3  247   2.987   8.203   0.594  0.2662 -0.0523  0.4410
    3MOL     C4  248   3.123   8.192   0.410  0.5394 -0.4531 -0.7623
    3MOL     H5  249   3.054   8.112   0.382  1.3863 -1.0774 -1.0919
    3MOL     H6  250   3.200   8.139   0.467  0.5070  0.3416  0.0177
    3MOL     H7  251   2.948   8.309   0.446  1.2171  0.1523 -2.9521
    3MOL     C8  252   3.168   8.252   0.276  0.7717  0.5646 -0.8310
    3MOL     F9  253   3.235   0.015   0.301 -0.1713 -0.5669  0.2888
    3MOL    F10  254   3.249   8.160   0.214 -0.1280  0.1452  0.0094
    3MOL    C11  255   3.058   8.290   0.175 -0.5031 -0.2226 -0.0030
    3MOL    H12  256   3.097   0.010   0.102 -1.0278  0.0136 -0.0621
    3MOL    H13  257   2.991   0.005   0.233  0.4061 -0.6389  1.5358
    3MOL    C14  258   2.979   8.179   0.101  0.0151  0.3917  0.0281
    3MOL    F15  259   3.056   8.106   0.018  0.4854 -0.9998 -0.1594
    3MOL    F16  260   2.929   8.100   0.190 -0.4292 -0.1189 -0.2945
    3MOL    C17  261   2.861   8.233   0.027 -0.1656  0.1894  0.5451
    3MOL    H18  262   2.886   8.321   8.318  0.2705  0.1325  0.6443
    3MOL    H19  263   2.791   8.277   0.098 -1.0455 -3.3301  1.9667
    3MOL    C20  264   2.780   8.131   8.297 -0.5199  0.7439  0.1654
    3MOL    F21  265   2.866   8.076   8.213 -0.1376 -0.0231 -0.5819
    3MOL    F22  266   2.731   8.043   0.035  0.1049  0.5086  0.3628
    3MOL    C23  267   2.661   8.190   8.221  0.4234  0.3728  0.4004
    3MOL    H24  268   2.698   8.252   8.139  1.8467 -2.7907 -1.4114
    3MOL    H25  269   2.595   8.241   8.291 -1.2313 -0.6142 -0.4244
    3MOL    C26  270   2.575   8.081   8.150  0.4009  0.0040  0.3881
    3MOL    F27  271   2.477   8.138   8.072  0.2593 -0.5911  0.5270
    3MOL    F28  272   2.652   8.028   8.061  0.7576 -0.4608 -0.2283
    3MOL    C29  273   2.505   7.970   8.234 -0.2340  0.2623 -0.3926
    3MOL    H30  274   2.580   7.905   8.280  0.2250  0.7432 -0.4525
    3MOL    H31  275   2.450   7.908   8.163  0.3406  1.4161 -1.8716
    3MOL    C32  276   2.411   8.022   0.002  0.4128 -0.4685  0.1259
    3MOL    F33  277   2.485   8.078   0.092  0.5414  0.0446  0.3315
    3MOL    F34  278   2.335   8.123   8.299 -0.7719 -0.1885 -0.2018
    3MOL    C35  279   2.321   7.915   0.059  0.5324  0.4217 -0.1055
    3MOL    H36  280   2.372   7.819   0.068  0.4239  0.4192  0.5213
    3MOL    H37  281   2.245   7.888   8.335 -1.7211 -2.5482  3.1459
    3MOL    C38  282   2.246   7.944   0.196 -0.2375 -0.2695  0.1379
    3MOL    F39  283   2.175   7.835   0.233 -0.2065  0.1634  0.2502
    3MOL    F40  284   2.341   7.977   0.290 -0.2183  0.5948  0.3219
    3MOL    C41  285   2.154   8.068   0.191 -0.2885 -0.1514  0.3692
    3MOL    H42  286   2.218   8.155   0.173  0.5832 -0.8841 -0.1214
    3MOL    H43  287   2.111   8.085   0.290 -0.7153  1.9344 -0.1503
    3MOL    C44  288   2.029   8.070   0.099  0.3402  0.1735  0.0400
    3MOL    F45  289   2.065   8.058   8.322 -0.2866  0.4759 -0.1549
    3MOL    F46  290   1.943   7.966   0.131  0.5176  0.7496 -0.3417
    3MOL    C47  291   1.947   8.200   0.110 -0.1409 -0.9438  0.0990
    3MOL    H48  292   2.016   8.283   0.096 -0.9811  0.1848  2.4920
    3MOL    H49  293   1.919   8.218   0.213  1.8038  2.4050  0.0959
    3MOL    C50  294   1.822   8.206   0.017 -0.4831  0.8916  0.7888
    3MOL    F51  295   1.870   8.207   8.244  0.4432 -0.0120  0.1847
    3MOL    F52  296   1.743   8.097   0.031 -0.6186  0.1955  0.2074
    3MOL    C53  297   1.729   8.320   0.035 -0.5423  0.1147  0.4710
    3MOL    H54  298   1.687   8.330   0.135 -0.1149 -1.9062  0.8711
    3MOL    H55  299   1.642   8.304   8.321 -0.1928  0.3657 -0.0779
    3MOL    C56  300   1.790   0.106   0.000 -0.0644  0.2648 -0.2062
    3MOL    F57  301   1.881   0.140   0.088 -0.6218  0.1567  0.3387
    3MOL    F58  302   1.847   0.097   8.232  0.3697 -0.2262  0.1751
    3MOL    C59  303   1.689   0.217   8.338 -0.4330 -0.4807 -0.5730
    3MOL    H60  304   1.631   0.192   8.249  2.7616 -2.6583 -2.1224
    3MOL    H61  305   1.743   0.304   8.303  0.1124 -1.1826 -1.4884
    3MOL    C62  306   1.601   0.265   0.108 -0.1437 -0.6888 -0.4625
    3MOL    F63  307   1.521   0.164   0.149  0.3809 -0.3193  0.0570
    3MOL    F64  308   1.681   0.303   0.207  0.1954  0.3161 -0.3743
    3MOL    C65  309   1.503   0.383   0.077  0.0634 -0.4467 -0.2985
    3MOL    H66  310   1.455   0.408   0.173  0.6527 -2.0880  0.4410
    3MOL    H67  311   1.423   0.351   0.009 -0.7217 -1.0500  0.8796
    3MOL    C68  312   1.557   0.513   0.015 -0.2719 -0.0044  0.3444
    3MOL    F69  313   1.662   0.540   0.085 -0.1987  0.2814 -0.1800
    3MOL    F70  314   1.588   0.478   8.242  0.3445 -0.0303  0.2152
    3MOL    C71  315   1.467   0.627   0.014 -0.0397  0.0088 -0.5152
    3MOL    H72  316   1.429   0.646   0.114 -1.0851 -0.5132 -0.7928
    3MOL    H73  317   1.377   0.614   8.303  0.3188  0.3462 -1.1265
    3MOL    C74  318   1.522   0.758   8.309 -0.0084 -0.1412  0.0543
    3MOL    F75  319   1.575   0.731   8.187 -0.0483  0.2839  0.0278
    3MOL    F76  320   1.423   0.851   8.303 -0.1016 -0.2486  0.5163
    3MOL    C77  321   1.638   0.828   0.040  0.0280  0.3780 -0.7035
    3MOL    H78  322   1.661   0.916   8.329  3.0558 -0.2723 -0.5865
    3MOL    H79  323   1.726   0.765   0.049 -0.5339 -0.4843 -1.2126
    3MOL    C80  324   1.606   0.853   0.192  0.3755  0.5103  0.2988
    3MOL    F81  325   1.485   0.905   0.193 -0.3258  0.0594  0.2836
    3MOL    F82  326   1.611   0.732   0.252  0.2728  0.0873 -0.4806
    3MOL    C83  327   1.704   0.947   0.265 -0.2499  0.4409 -1.0262
    3MOL    H84  328   1.684   1.045   0.222  0.7079  2.0481  2.0305
    3MOL    H85  329   1.809   0.940   0.238  0.1056  2.2553 -0.2264
    3MOL    C86  330   1.713   0.958   0.420  0.4427  0.1470 -0.2922
    3MOL    F87  331   1.603   1.010   0.466 -0.6305 -0.7726  0.0373
    3MOL    F88  332   1.722   0.842   0.479 -0.4220  0.3299 -0.0313
    3MOL    C89  333   1.829   1.041   0.474 -0.2550 -0.1266  0.3883
    3MOL    H90  334   1.916   0.980   0.451  0.6121  1.2018  0.0960
    3MOL    H91  335   1.822   1.056   0.582 -1.0135  2.9780 -0.0241
    3MOL    C92  336   1.847   1.185   0.406  0.0360  0.1881 -0.1899
    3MOL    F93  337   1.918   1.166   0.289  0.3083  0.7450 -0.0635
    3MOL    F94  338   1.726   1.241   0.399 -0.1171 -0.2520  0.2198
    3MOL    C95  339   1.934   1.277   0.497  0.1784 -0.1965 -0.2893
    3MOL    H96  340   2.024   1.226   0.531  0.0076 -0.7440 -0.6540
    3MOL    H97  341   1.883   1.284   0.593 -0.7594  0.8019 -0.8458
    3MOL    C98  342   1.959   1.422   0.450 -1.0951 -0.0038 -0.1329
    3MOL    F99  343   2.041   1.409   0.352 -0.1816 -0.4096  0.7037
    3MOL   F100  344   1.849   1.476   0.412 -0.1981 -0.1968 -0.0009
    3MOL   C101  345   2.021   1.515   0.559  0.6211 -0.1508  0.2621
    3MOL   H102  346   1.944   1.549   0.629  1.4104 -0.6689  1.3847
    3MOL   H103  347   2.062   1.606   0.515 -0.6504 -0.0157 -0.6803
    3MOL   C104  348   2.137   1.464   0.651  0.0496  0.2967  0.3153
    3MOL   F105  349   2.091   1.366   0.733 -0.2481 -0.7278  0.4456
    3MOL   F106  350   2.234   1.406   0.582  0.0671  0.9836  0.9103
    3MOL   C107  351   2.194   1.573   0.733 -0.4665 -0.4759  0.0567
    3MOL   H108  352   2.231   1.655   0.671  0.0551 -1.4690 -0.9635
    3MOL   H109  353   2.278   1.529   0.787 -0.1527 -1.6935 -1.4101
    3MOL   C110  354   2.103   1.645   0.835 -0.2621 -0.4231 -0.3143
    3MOL   F111  355   2.018   1.723   0.775  0.6144 -0.1778 -0.2438
    3MOL   F112  356   2.040   1.556   0.915 -0.9215  0.2975 -0.7568
    3MOL   C113  357   2.168   1.731   0.948 -0.4003 -0.1134  0.1193
    3MOL   H114  358   2.240   1.673   1.006  2.6930 -0.5999 -4.0153
    3MOL   H115  359   2.086   1.750   1.018 -1.1931  1.3441 -1.1902
    3MOL   C116  360   2.216   1.868   0.905  0.0960  0.2721  0.5113
    3MOL   F117  361   2.300   1.852   0.798  0.1656  0.3485  0.5509
    3MOL   F118  362   2.116   1.947   0.877  0.1401 -0.2141 -0.5254
    3MOL   C119  363   2.300   1.933   1.011  1.0227  0.8454 -0.6128
    3MOL   H120  364   2.310   2.041   1.001 -1.5334  1.3163  1.3352
    3MOL   H121  365   2.405   1.903   1.017  0.5372 -1.3117 -2.5491
    3MOL   H122  366   2.254   1.913   1.108  1.1854 -0.9516 -0.8959
    4MOL     C1  367   3.745   5.076   1.244  0.5283  0.2598 -0.4403
    4MOL     F2  368   3.844   5.002   1.288  0.0369  0.2924  0.1116
    4MOL     F3  369   3.665   4.999   1.168 -0.1935  0.3341  0.3601
    4MOL     C4  370   3.799   5.184   1.150 -0.5049  0.0396 -0.1210
    4MOL     H5  371   3.715   5.246   1.118 -2.9079 -3.8023 -1.6548
    4MOL     H6  372   3.850   5.137   1.065  1.0206 -1.5001  1.6021
    4MOL     H7  373   3.677   5.108   1.323 -1.5216 -0.4599 -1.8677
    4MOL     C8  374   3.891   5.285   1.225  0.2334 -0.5062  0.4371
    4MOL     F9  375   3.899   5.395   1.158  0.6090 -0.2381 -0.1940
    4MOL    F10  376   3.829   5.312   1.340 -0.1336  0.1052 -0.1713
    4MOL    C11  377   4.036   5.246   1.255  0.7345  0.2507 -0.4927
    4MOL    H12  378   4.035   5.150   1.307 -1.6533  0.6037  0.1810
    4MOL    H13  379   4.066   5.326   1.323 -2.0881  1.0718 -0.1605
    4MOL    C14  380   4.138   5.236   1.136 -0.2241 -0.9291 -0.0773
    4MOL    F15  381   4.119   5.124   1.071  0.2295 -0.2029 -0.2649
    4MOL    F16  382   4.129   5.349   1.066  0.4908  0.6034 -0.2852
    4MOL    C17  383   4.287   5.240   1.191  0.5314  0.7906  0.4946
    4MOL    H18  384   4.299   5.333   1.247  1.0514  0.3228  1.1624
    4MOL    H19  385   4.366   5.240   1.116 -0.0760 -0.0405 -0.1517
    4MOL    C20  386   4.320   5.132   1.287 -0.2452 -0.0910 -0.4918
    4MOL    F21  387   4.266   5.151   1.406 -0.6478  0.1033  0.2184
    4MOL    F22  388   4.266   5.017   1.244  0.0662  0.1717  0.4297
    4MOL    C23  389   4.474   5.102   1.312  0.3389 -0.3931  0.2343
    4MOL    H24  390   4.518   5.040   1.233 -2.5654 -1.9912 -0.1847
    4MOL    H25  391   4.472   5.035   1.398 -0.3018 -1.2261 -0.4160
    4MOL    C26  392   4.566   5.226   1.347  0.0422  0.3096  0.3902
    4MOL    F27  393   4.558   5.313   1.249  0.1511  0.2414  0.0859
    4MOL    F28  394   4.503   5.283   1.452  0.3148 -0.3055 -0.3241
    4MOL    C29  395   4.712   5.186   1.376 -0.0565 -0.7242 -0.2345
    4MOL    H30  396   4.780   5.269   1.356 -1.1136  0.6242  1.6662
    4MOL    H31  397   4.752   5.111   1.307  0.6409 -0.9763  0.4427
    4MOL    C32  398   4.750   5.141   1.520  0.2717 -0.1589 -0.2832
    4MOL    F33  399   4.671   5.036   1.550 -0.0322  0.0332  0.4048
    4MOL    F34  400   4.882   5.110   1.521  0.2651 -0.1240 -0.3901
    4MOL    C35  401   4.723   5.238   1.634  0.0017  0.1687  0.1967
    4MOL    H36  402   4.772   5.206   1.726 -0.0424  0.5175  0.3397
    4MOL    H37  403   4.614   5.237   1.645 -0.1480 -0.9689 -1.1614
    4MOL    C38  404   4.782   5.380   1.627 -0.1332 -0.5822  0.0236
    4MOL    F39  405   4.721   5.443   1.526  0.0948  0.1873  0.1676
    4MOL    F40  406   4.751   5.443   1.746  0.5148 -0.2278  0.2582
    4MOL    C41  407   4.943   5.375   1.613  0.1090 -0.4701 -0.2319
    4MOL    H42  408   4.974   5.334   1.517 -0.7808  0.4349 -0.9166
    4MOL    H43  409   4.977   5.299   1.683 -0.4191 -0.7040 -0.2284
    4MOL    C44  410   5.016   5.506   1.635 -0.3318  0.0336  0.7359
    4MOL    F45  411   4.969   5.602   1.551 -0.1693  0.1375  0.3122
    4MOL    F46  412   4.989   5.542   1.765 -0.4502  0.0821  0.2808
    4MOL    C47  413   5.167   5.490   1.618 -0.0152  0.2210  0.3320
    4MOL    H48  414   5.188   5.436   1.525  0.5940  0.3615  0.3843
    4MOL    H49  415   5.210   5.429   1.697 -0.4018 -0.6521 -0.1284
    4MOL    C50  416   5.240   5.624   1.608 -0.1275  0.3049 -0.2000
    4MOL    F51  417   5.367   5.588   1.602 -0.3706  0.2722 -0.1535
    4MOL    F52  418   5.202   5.681   1.491  0.6473  0.0778 -0.0322
    4MOL    C53  419   5.198   5.721   1.722  0.3678  0.4351 -1.0811
    4MOL    H54  420   5.206   5.663   1.814  0.2773  0.7372 -0.8849
    4MOL    H55  421   5.097   5.757   1.703  0.0871  0.3624  0.2019
    4MOL    C56  422   5.273   5.850   1.735  0.0477  0.7035 -0.1990
    4MOL    F57  423   5.397   5.826   1.741  0.2342 -0.1757 -0.0098
    4MOL    F58  424   5.268   5.912   1.613  0.5240  0.2113 -0.3292
    4MOL    C59  425   5.224   5.934   1.855  0.3070  0.2486 -0.2577
    4MOL    H60  426   5.201   5.874   1.943 -0.2448 -0.9137 -1.1686
    4MOL    H61  427   5.126   5.968   1.820 -0.4217 -1.1050  0.4258
    4MOL    C62  428   5.313   6.058   1.892  0.7190  0.1732 -0.1189
    4MOL    F63  429   5.244   6.125   1.982  0.1274 -0.1330  0.0901
    4MOL    F64  430   5.422   6.021   1.956 -0.4851  0.2413  0.2132
    4MOL    C65  431   5.344   6.150   1.772 -0.8657 -0.4579 -0.6329
    4MOL    H66  432   5.254   6.197   1.731 -0.9584 -1.2759 -1.3993
    4MOL    H67  433   5.384   6.082   1.697 -2.0536 -2.1784  0.2760
    4MOL    C68  434   5.454   6.246   1.808 -0.2216 -0.6584 -0.3380
    4MOL    F69  435   5.432   6.298   1.926 -0.2914 -0.6095 -0.1969
    4MOL    F70  436   5.569   6.177   1.828 -0.3516  0.2293  0.3843
    4MOL    C71  437   5.482   6.361   1.700  0.2571 -0.5602  0.3887
    4MOL    H72  438   5.542   6.441   1.743  0.3066  0.2629 -1.1645
    4MOL    H73  439   5.384   6.399   1.672  1.2070  0.9167 -0.9897
    4MOL    C74  440   5.545   6.318   1.570 -0.8551  0.0988  0.0908
    4MOL    F75  441   5.654   6.246   1.598 -0.0557 -0.1888  0.1725
    4MOL    F76  442   5.461   6.234   1.507 -0.3233  0.7156  0.0937
    4MOL    C77  443   5.565   6.442   1.469  0.3675 -0.2311 -0.2762
    4MOL    H78  444   5.602   6.522   1.533  0.6202 -0.1862 -0.4791
    4MOL    H79  445   5.467   6.480   1.441  0.3993  1.8626  2.2668
    4MOL    C80  446   5.658   6.413   1.348  0.3149  0.1928  0.4036
    4MOL    F81  447   5.779   6.374   1.388  0.1446 -0.1764  0.3853
    4MOL    F82  448   5.614   6.307   1.275  0.5922  0.1183  0.8620
    4MOL    C83  449   5.685   6.532   1.254  0.4702  0.1236 -0.6355
    4MOL    H84  450   5.742   6.487   1.173 -1.4326 -1.4426 -1.1559
    4MOL    H85  451   5.757   6.593   1.308  1.2203 -1.2096 -0.1117
    4MOL    C86  452   5.557   6.612   1.212  0.1512 -0.5053 -1.0355
    4MOL    F87  453   5.456   6.536   1.177 -0.1751  0.0458 -0.2396
    4MOL    F88  454   5.507   6.685   1.313  0.4165  0.0362  0.1272
    4MOL    C89  455   5.588   6.708   1.094 -0.7861 -0.2315  0.2879
    4MOL    H90  456   5.647   6.792   1.131  2.2500 -1.7858 -0.9018
    4MOL    H91  457   5.491   6.743   1.057 -0.0672  0.8638 -0.5799
    4MOL    C92  458   5.671   6.662   0.972  0.0775 -0.1969 -0.5477
    4MOL    F93  459   5.795   6.651   1.008 -0.0399 -0.3378 -0.4991
    4MOL    F94  460   5.619   6.543   0.931  0.2966 -0.2062  0.8087
    4MOL    C95  461   5.668   6.763   0.847 -0.4122  0.0867  0.2291
    4MOL    H96  462   5.745   6.726   0.780  1.1265  0.9123  1.5011
    4MOL    H97  463   5.707   6.861   0.876 -0.6033 -0.2301  1.6123
    4MOL    C98  464   5.534   6.782   0.769  0.2186 -0.4867  0.4809
    4MOL    F99  465   5.461   6.666   0.752  0.0175 -0.4429 -0.4244
    4MOL   F100  466   5.453   6.866   0.831  0.1340 -0.1213  0.1409
    4MOL   C101  467   5.570   6.844   0.620  0.0770  0.2771 -0.0689
    4MOL   H102  468   5.478   6.842   0.562 -0.9458 -0.6913  1.5430
    4MOL   H103  469   5.631   6.782   0.555 -1.4429  2.4330 -3.7366
    4MOL   C104  470   5.643   6.981   0.617 -0.4349 -0.0797 -0.0213
    4MOL   F105  471   5.553   7.068   0.665 -0.0861 -0.8119  0.2482
    4MOL   F106  472   5.751   6.994   0.698 -0.0373 -0.3319  0.5734
    4MOL   C107  473   5.662   7.023   0.470 -0.0980 -0.1777  0.1708
    4MOL   H108  474   5.564   7.008   0.426 -0.8630  1.5419  1.2079
    4MOL   H109  475   5.729   6.958   0.414 -2.5973  0.3914 -3.6138
    4MOL   C110  476   5.733   7.159   0.455 -0.5150 -0.2149  0.3881
    4MOL   F111  477   5.835   7.162   0.540 -0.0912 -0.6798  0.6869
    4MOL   F112  478   5.776   7.162   0.327  0.2478 -0.1960 -0.6744
    4MOL   C113  479   5.641   7.279   0.477 -0.3999  0.0873  0.4810
    4MOL   H114  480   5.697   7.373   0.470  1.3807 -1.1272 -2.1028
    4MOL   H115  481   5.616   7.284   0.583 -3.1525  0.6553 -0.1549
    4MOL   C116  482   5.511   7.293   0.386 -1.0494  0.4055  0.2641
    4MOL   F117  483   5.548   7.290   0.263 -0.1517 -0.1071  0.0029
    4MOL   F118  484   5.424   7.195   0.389 -0.1440 -0.3849  0.1723
    4MOL   C119  485   5.432   7.423   0.413 -0.6373  0.2245  0.4072
    4MOL   H120  486   5.491   7.513   0.396 -0.7126  0.4959  1.5217
    4MOL   H121  487   5.411   7.433   0.520  1.1043  0.0787  0.7829
    4MOL   H122  488   5.338   7.435   0.360 -0.7275 -1.5058  0.1414
    5MOL     C1  489   5.085   4.406   4.902  0.4437 -0.4069  0.4178
    5MOL     F2  490   5.092   4.529   4.932  0.0909 -0.4282 -0.7053
    5MOL     F3  491   5.207   4.359   4.882 -0.2270  0.0574 -0.5830
    5MOL     C4  492   4.982   4.382   4.795  0.0100  0.7325  0.6990
    5MOL     H5  493   4.977   4.275   4.775 -1.3974  1.0026 -0.5120
    5MOL     H6  494   5.009   4.439   4.706  2.2237  0.9759  1.4886
    5MOL     H7  495   5.055   4.355   4.994  1.2559  0.7380  1.3350
    5MOL     C8  496   4.839   4.428   4.838 -0.3044 -0.0160 -0.6058
    5MOL     F9  497   4.804   4.352   4.938  0.0077  0.2420 -0.0717
    5MOL    F10  498   4.847   4.555   4.885 -0.4051 -0.2005 -0.0761
    5MOL    C11  499   4.736   4.410   4.729  0.5638 -0.3995  0.5439
    5MOL    H12  500   4.639   4.415   4.778  0.4769  2.1808  0.1404
    5MOL    H13  501   4.761   4.312   4.686  3.5834  0.6460 -0.2375
    5MOL    C14  502   4.732   4.519   4.627  0.3675 -0.4743  0.3198
    5MOL    F15  503   4.682   4.633   4.690 -0.0588  0.3032  0.0239
    5MOL    F16  504   4.848   4.553   4.576 -0.8297 -0.7101  0.5287
    5MOL    C17  505   4.635   4.485   4.507 -0.3448 -0.3867  0.1968
    5MOL    H18  506   4.643   4.574   4.444  0.1317  0.7281  1.8019
    5MOL    H19  507   4.534   4.488   4.547 -0.0609 -2.7274  1.1594
    5MOL    C20  508   4.660   4.364   4.426  0.0353  0.1055 -0.4026
    5MOL    F21  509   4.782   4.371   4.380  0.0760 -0.2350  0.5091
    5MOL    F22  510   4.649   4.252   4.504 -0.3683 -0.1669 -0.1294
    5MOL    C23  511   4.570   4.359   4.300  0.3432 -0.7738 -0.6065
    5MOL    H24  512   4.585   4.258   4.261 -4.8239 -1.1903 -1.8273
    5MOL    H25  513   4.604   4.422   4.218  1.7380  0.4980  0.9054
    5MOL    C26  514   4.408   4.367   4.314  0.2778 -0.0082 -0.1982
    5MOL    F27  515   4.375   4.493   4.343 -0.5726  0.2272 -0.0839
    5MOL    F28  516   4.352   4.356   4.193 -0.0426 -0.1171 -0.2907
    5MOL    C29  517   4.339   4.264   4.415  0.4667  0.0243  0.1813
    5MOL    H30  518   4.374   4.282   4.516 -0.1133 -0.2831  0.4388
    5MOL    H31  519   4.370   4.163   4.389  1.4057  0.1481  0.8015
    5MOL    C32  520   4.183   4.246   4.409  0.2256 -0.8014 -0.4927
    5MOL    F33  521   4.133   4.361   4.455  0.4165 -0.5004 -0.2318
    5MOL    F34  522   4.137   4.227   4.288 -0.2867 -0.3398  0.0996
    5MOL    C35  523   4.146   4.130   4.492  0.1171 -0.3002  0.2021
    5MOL    H36  524   4.172   4.150   4.595 -2.9888 -0.8546  1.1512
    5MOL    H37  525   4.198   4.042   4.453  0.6618 -1.3888  3.2985
    5MOL    C38  526   3.998   4.093   4.502  0.4586  0.3036 -0.1120
    5MOL    F39  527   3.971   4.028   4.619  0.0123 -0.2986 -0.3605
    5MOL    F40  528   3.928   4.203   4.513  0.0585 -0.6247 -0.3444
    5MOL    C41  529   3.945   3.999   4.387 -0.4274 -0.1973 -0.2233
    5MOL    H42  530   3.979   3.896   4.394 -1.3954 -0.4486  0.8862
    5MOL    H43  531   3.991   4.040   4.297 -1.2644  0.8773 -0.1772
    5MOL    C44  532   3.801   3.998   4.364 -0.3662  0.9956 -0.5497
    5MOL    F45  533   3.775   3.902   4.266  0.0978 -0.2588 -0.2724
    5MOL    F46  534   3.746   3.954   4.482  0.1236  0.5607  0.2347
    5MOL    C47  535   3.731   4.130   4.312  0.3014 -0.0897  0.1450
    5MOL    H48  536   3.773   4.166   4.218 -1.2491  1.7864  0.1254
    5MOL    H49  537   3.741   4.212   4.383  2.0827 -0.4799  0.3620
    5MOL    C50  538   3.583   4.107   4.280 -0.1662  0.2415 -0.7741
    5MOL    F51  539   3.568   4.027   4.167  0.1953  0.6219 -0.0728
    5MOL    F52  540   3.521   4.045   4.380 -0.1329 -0.1667  0.5628
    5MOL    C53  541   3.504   4.234   4.232  0.0083 -0.0728 -0.3763
    5MOL    H54  542   3.562   4.313   4.184  1.3048 -1.3142 -0.9041
    5MOL    H55  543   3.470   4.293   4.317  0.3066  0.0973 -0.3749
    5MOL    C56  544   3.375   4.207   4.146 -0.3573 -0.2369 -0.1691
    5MOL    F57  545   3.418   4.175   4.022 -0.3663 -0.4059 -0.4618
    5MOL    F58  546   3.301   4.108   4.196  0.2942  0.8918 -0.0794
    5MOL    C59  547   3.292   4.334   4.129 -0.0305 -0.1498  1.3164
    5MOL    H60  548   3.352   4.405   4.073  0.6871 -0.3595  1.8090
    5MOL    H61  549   3.270   4.365   4.232 -1.5078 -1.4597  1.4033
    5MOL    C62  550   3.164   4.309   4.054  0.1810  0.2371 -0.0620
    5MOL    F63  551   3.198   4.253   3.947 -0.3038  0.0707  0.2047
    5MOL    F64  552   3.087   4.244   4.141  0.1531  0.2002  0.3051
    5MOL    C65  553   3.084   4.438   4.018  0.7757 -0.0536  0.3820
    5MOL    H66  554   3.156   4.489   3.953  1.6212 -0.7977  0.7182
    5MOL    H67  555   3.073   4.498   4.108 -0.5898 -1.0314  0.8691
    5MOL    C68  556   2.945   4.413   3.954  1.0112 -0.0800 -0.4195
    5MOL    F69  557   2.969   4.338   3.844  0.5715 -0.4941  0.0797
    5MOL    F70  558   2.867   4.339   4.033  0.0518  0.2607 -0.2385
    5MOL    C71  559   2.868   4.539   3.923  0.1486 -0.5362 -0.1542
    5MOL    H72  560   2.930   4.598   3.856 -1.7963  3.3356  1.3310
    5MOL    H73  561   2.835   4.593   4.012  0.8615  0.4701 -0.5007
    5MOL    C74  562   2.734   4.508   3.846 -0.7771 -0.1186  0.6938
    5MOL    F75  563   2.765   4.449   3.729 -0.7914  0.1694 -0.2076
    5MOL    F76  564   2.659   4.436   3.932 -0.0338  0.2482  0.2939
    5MOL    C77  565   2.674   4.644   3.810  0.0207  0.9018  0.2276
    5MOL    H78  566   2.734   4.699   3.738  0.4335  0.3421  0.1352
    5MOL    H79  567   2.674   4.701   3.902  0.0726 -0.2618  0.9614
    5MOL    C80  568   2.528   4.644   3.755  0.3788  0.3883  0.0747
    5MOL    F81  569   2.542   4.574   3.636  0.4599  0.6027  0.9643
    5MOL    F82  570   2.456   4.580   3.846  0.3798  0.0421  0.2408
    5MOL    C83  571   2.472   4.788   3.760  0.3572  0.1093 -0.0285
    5MOL    H84  572   2.546   4.847   3.705  1.3218 -0.8611  0.1986
    5MOL    H85  573   2.476   4.820   3.864 -0.9874  3.6266 -0.9812
    5MOL    C86  574   2.327   4.813   3.708 -0.3127 -0.4439 -0.0720
    5MOL    F87  575   2.233   4.770   3.794  0.0555  0.4803 -0.1029
    5MOL    F88  576   2.313   4.943   3.691  0.3538  0.2724  0.8316
    5MOL    C89  577   2.300   4.748   3.568  0.6168  0.2831  0.2520
    5MOL    H90  578   2.308   4.640   3.570  1.1762  0.3130 -0.3646
    5MOL    H91  579   2.374   4.784   3.497  0.3576  1.3022  0.4855
    5MOL    C92  580   2.166   4.774   3.501  0.7325  0.1270 -0.0633
    5MOL    F93  581   2.135   4.905   3.493  0.1790 -0.3635  0.2865
    5MOL    F94  582   2.179   4.733   3.374 -0.3025  0.1251  0.1799
    5MOL    C95  583   2.039   4.710   3.573 -0.6237 -0.0481  0.7688
    5MOL    H96  584   2.034   4.757   3.671 -0.7490  0.4315  0.5302
    5MOL    H97  585   2.055   4.602   3.575 -0.5023 -0.0109  2.1894
    5MOL    C98  586   1.897   4.723   3.507 -0.3697 -0.4907  0.3070
    5MOL    F99  587   1.871   4.857   3.505 -0.2506 -0.3561 -0.4580
    5MOL   F100  588   1.902   4.686   3.382 -0.3242  0.2102  0.0904
    5MOL   C101  589   1.781   4.649   3.577 -0.5141 -0.4760 -0.5062
    5MOL   H102  590   1.803   4.542   3.567  1.3024 -0.2882  1.2323
    5MOL   H103  591   1.692   4.669   3.517 -0.7743  0.5273  0.1963
    5MOL   C104  592   1.773   4.664   3.728  0.3472  0.7427 -0.3985
    5MOL   F105  593   1.677   4.583   3.765 -0.1840  0.1112  0.9513
    5MOL   F106  594   1.885   4.623   3.791 -0.2700  0.4198  0.2773
    5MOL   C107  595   1.727   4.800   3.773 -0.1135 -0.0763 -0.1652
    5MOL   H108  596   1.647   4.827   3.703 -2.8684 -3.3933  1.5469
    5MOL   H109  597   1.811   4.869   3.767  1.2181 -1.7064 -0.6006
    5MOL   C110  598   1.681   4.808   3.920 -0.2040 -0.6299 -0.1324
    5MOL   F111  599   1.565   4.745   3.946 -0.1719 -0.0497 -0.2231
    5MOL   F112  600   1.772   4.759   3.998 -0.5930 -0.1167 -0.2457
    5MOL   C113  601   1.659   4.954   3.956 -0.4908  0.1996 -0.1367
    5MOL   H114  602   1.745   5.021   3.951  0.1726 -0.6181  0.2361
    5MOL   H115  603   1.642   4.951   4.064 -1.5242 -0.3130 -0.3102
    5MOL   C116  604   1.543   5.025   3.888  0.0783  0.2119  0.2294
    5MOL   F117  605   1.594   5.053   3.770  0.1545  1.1311  0.0105
    5MOL   F118  606   1.427   4.954   3.892  0.3233  0.4828 -0.1244
    5MOL   C119  607   1.518   5.169   3.933  0.5552  0.0823  0.0683
    5MOL   H120  608   1.472   5.169   4.032  1.6895 -1.3141  0.6066
    5MOL   H121  609   1.443   5.214   3.868  0.8217 -0.6633 -0.7687
    5MOL   H122  610   1.606   5.234   3.936  0.2415  0.4242  3.6150
    6MOL     C1  611   6.996   7.574   4.967  0.1290  0.4379 -0.0878
    6MOL     F2  612   6.978   7.447   4.950 -0.1064  0.1481 -0.6745
    6MOL     F3  613   6.959   7.589   5.097 -0.1548 -0.0620  0.7619
    6MOL     C4  614   6.906   7.653   4.875  0.1912 -0.4330 -0.7440
    6MOL     H5  615   6.800   7.644   4.901  0.3841  0.4542  0.3971
    6MOL     H6  616   6.916   7.620   4.772 -0.1028 -0.3596 -0.7969
    6MOL     H7  617   7.103   7.595   4.955  0.2344  1.1572  1.9323
    6MOL     C8  618   6.941   7.804   4.878  0.1684  0.4138  0.5999
    6MOL     F9  619   6.924   7.853   4.998 -0.1073  0.0018 -0.1631
    6MOL    F10  620   7.067   7.813   4.845  0.0851 -0.1559  0.9417
    6MOL    C11  621   6.870   7.885   4.764  0.0921 -0.4149 -0.3433
    6MOL    H12  622   6.879   7.834   4.668  0.5905  1.5157 -1.3632
    6MOL    H13  623   6.929   7.974   4.740 -0.6867  0.2158  0.0802
    6MOL    C14  624   6.729   7.943   4.790 -0.0486  0.4673  0.4027
    6MOL    F15  625   6.643   7.845   4.819  0.3447 -0.5584  0.4604
    6MOL    F16  626   6.732   8.021   4.896  0.6168 -0.8404  0.5294
    6MOL    C17  627   6.670   8.020   4.674 -0.0335  0.8041 -0.2986
    6MOL    H18  628   6.666   7.951   4.591  0.3368 -0.5277  0.7759
    6MOL    H19  629   6.742   8.092   4.634  1.7352 -0.4878  0.5178
    6MOL    C20  630   6.534   8.089   4.694  0.1082 -0.0780 -0.2603
    6MOL    F21  631   6.488   8.126   4.574  0.3871 -0.6701  0.0889
    6MOL    F22  632   6.455   7.994   4.753  0.2842 -0.1685  0.0589
    6MOL    C23  633   6.528   8.210   4.781  0.9762  0.1557 -0.1856
    6MOL    H24  634   6.552   8.178   4.883  1.1487  0.1168 -0.2371
    6MOL    H25  635   6.426   8.248   4.788  0.9776 -0.0585  1.2438
    6MOL    C26  636   6.623   8.322   4.742  0.4649 -0.5021  0.4966
    6MOL    F27  637   6.735   8.300   4.808 -0.4340 -0.3344 -0.2916
    6MOL    F28  638   6.652   8.309   4.616 -0.2444 -0.2912 -0.5811
    6MOL    C29  639   6.584   0.121   4.772  0.7248  0.2816  0.0626
    6MOL    H30  640   6.674   0.173   4.739  1.2682 -0.5227  0.2441
    6MOL    H31  641   6.572   0.150   4.877  1.2283  0.5366  0.0528
    6MOL    C32  642   6.466   0.174   4.688  0.2409 -0.4627  0.4033
    6MOL    F33  643   6.475   0.150   4.554 -0.7064  0.1831  0.1813
    6MOL    F34  644   6.352   0.116   4.729 -0.2074 -0.0292  0.1830
    6MOL    C35  645   6.451   0.327   4.702  0.3115  0.7866 -0.1541
    6MOL    H36  646   6.378   0.356   4.626 -0.7637 -1.1832  0.1122
    6MOL    H37  647   6.547   0.373   4.679  0.4287  1.3317  1.3549
    6MOL    C38  648   6.406   0.383   4.837  0.1013 -0.5595  0.5076
    6MOL    F39  649   6.300   0.326   4.872  0.0827  0.5123  0.1196
    6MOL    F40  650   6.495   0.361   4.928  0.4087  0.1558 -0.4324
    6MOL    C41  651   6.384   0.536   4.828 -0.6688 -0.5558 -0.7675
    6MOL    H42  652   6.303   0.559   4.759 -0.1857  3.2845 -0.1911
    6MOL    H43  653   6.475   0.586   4.793  0.1976 -1.6392 -0.0990
    6MOL    C44  654   6.349   0.609   4.963 -0.0119 -0.3753  0.1542
    6MOL    F45  655   6.323   0.737   4.935 -0.1228 -0.4487  0.9464
    6MOL    F46  656   6.239   0.549   5.012  0.3639  0.4007  0.5834
    6MOL    C47  657   6.461   0.598   5.074  0.1305  0.0910 -0.5635
    6MOL    H48  658   6.557   0.613   5.025 -0.4369  1.5664 -1.2390
    6MOL    H49  659   6.473   0.492   5.099 -0.5535  0.0957 -0.2035
    6MOL    C50  660   6.435   0.671   5.209 -0.3068  0.0818 -0.2777
    6MOL    F51  661   6.456   0.801   5.191  0.1669 -0.6829 -0.0705
    6MOL    F52  662   6.306   0.646   5.244 -0.2882 -0.3268  0.4249
    6MOL    C53  663   6.517   0.629   5.333  0.3026  0.2656 -0.6377
    6MOL    H54  664   6.507   0.520   5.336  0.3511  0.2524 -0.9321
    6MOL    H55  665   6.469   0.670   5.422 -0.6815 -0.9303 -0.6008
    6MOL    C56  666   6.668   0.662   5.333 -0.0182  0.3121 -0.6704
    6MOL    F57  667   6.717   0.601   5.445 -0.3873 -0.1667  0.4182
    6MOL    F58  668   6.718   0.599   5.231 -0.1425  0.1495 -0.4796
    6MOL    C59  669   6.708   0.815   5.341  0.2700  0.4989 -0.2806
    6MOL    H60  670   6.690   0.858   5.440  1.1696 -1.6999  0.8587
    6MOL    H61  671   6.649   0.877   5.273  0.4722 -0.4942 -1.3630
    6MOL    C62  672   6.856   0.832   5.298 -1.0841  0.0339  0.1320
    6MOL    F63  673   6.924   0.756   5.373 -0.0828 -0.4520 -0.0546
    6MOL    F64  674   6.869   0.796   5.167 -0.1686  0.0620 -0.3462
    6MOL    C65  675   6.913   0.977   5.306 -0.2034 -0.6219 -0.3899
    6MOL    H66  676   6.879   1.034   5.220  0.6202 -0.3853 -0.5566
    6MOL    H67  677   7.020   0.960   5.304  0.1106  1.3989 -1.7117
    6MOL    C68  678   6.870   1.050   5.441 -0.4316  0.1334  0.4751
    6MOL    F69  679   6.744   1.096   5.437 -0.1903 -0.1190  0.1349
    6MOL    F70  680   6.882   0.959   5.535  0.2635 -0.1479  0.4825
    6MOL    C71  681   6.964   1.161   5.479 -0.1038 -0.1758  0.3177
    6MOL    H72  682   7.066   1.123   5.481  0.5756  1.5564 -0.0698
    6MOL    H73  683   6.948   1.192   5.582  0.5493 -1.2566  0.7394
    6MOL    C74  684   6.963   1.301   5.396 -0.7717  0.3016  0.0920
    6MOL    F75  685   6.946   1.262   5.275  0.2029  0.2319 -0.0402
    6MOL    F76  686   6.853   1.371   5.430  0.1146 -0.4142  0.2788
    6MOL    C77  687   7.075   1.404   5.411  0.5632  0.0475 -0.1376
    6MOL    H78  688   7.068   1.477   5.330 -1.9085  1.5668  1.3640
    6MOL    H79  689   7.166   1.350   5.388 -0.4868 -0.6817 -2.7407
    6MOL    C80  690   7.076   1.474   5.554  0.6605  0.9246 -0.8178
    6MOL    F81  691   6.966   1.533   5.586 -0.1321 -0.2543 -0.5383
    6MOL    F82  692   7.097   1.386   5.643  0.0809  0.1038  0.0448
    6MOL    C83  693   7.177   1.590   5.558 -0.3417 -0.6275  0.3237
    6MOL    H84  694   7.154   1.667   5.485 -0.1641 -0.4441  0.4637
    6MOL    H85  695   7.270   1.548   5.522 -0.0194  0.4621 -0.1322
    6MOL    C86  696   7.216   1.643   5.700 -0.5372  0.9730  0.2275
    6MOL    F87  697   7.118   1.710   5.751 -0.6602  0.0869 -0.3840
    6MOL    F88  698   7.228   1.538   5.788 -0.0461 -0.4393  0.3197
    6MOL    C89  699   7.351   1.719   5.704  0.1191 -0.2125 -0.9200
    6MOL    H90  700   7.428   1.660   5.653  0.3196  0.3193 -1.2422
    6MOL    H91  701   7.391   1.734   5.804 -0.7947  1.3060 -0.7781
    6MOL    C92  702   7.339   1.858   5.653  0.8510 -0.4200 -0.1846
    6MOL    F93  703   7.465   1.892   5.627  0.1302  0.0644  0.5702
    6MOL    F94  704   7.272   1.865   5.542 -0.6507 -0.1705  0.1469
    6MOL    C95  705   7.276   1.951   5.766  0.1283 -0.6394  0.7045
    6MOL    H96  706   7.351   1.974   5.841  0.9101 -0.4562 -0.1220
    6MOL    H97  707   7.198   1.910   5.831  0.5375  0.4215  1.8825
    6MOL    C98  708   7.240   2.090   5.711 -0.2287  0.1114 -0.0000
    6MOL    F99  709   7.124   2.069   5.651 -0.2251 -0.1040  0.6458
    6MOL   F100  710   7.210   2.183   5.805  0.6710 -0.2511 -0.3130
    6MOL   C101  711   7.344   2.165   5.624  0.0944 -1.0086 -0.2585
    6MOL   H102  712   7.389   2.088   5.561  1.3089 -0.9522  0.5297
    6MOL   H103  713   7.426   2.198   5.688 -0.2795  1.8044 -1.1512
    6MOL   C104  714   7.302   2.300   5.547  0.2182 -0.0802 -0.1521
    6MOL   F105  715   7.206   2.262   5.455 -0.3264  0.1099  0.1027
    6MOL   F106  716   7.250   2.393   5.630  0.4875 -0.0460 -0.0383
    6MOL   C107  717   7.428   2.365   5.470  0.6311 -0.2243  0.6562
    6MOL   H108  718   7.477   2.291   5.406  0.8416  0.5052 -0.0384
    6MOL   H109  719   7.499   2.396   5.547  0.9438 -0.3177  0.4077
    6MOL   C110  720   7.391   2.492   5.385  0.1123  0.5196  0.2919
    6MOL   F111  721   7.351   2.595   5.463 -0.1088  0.2776  0.8918
    6MOL   F112  722   7.504   2.526   5.325  0.0919  0.2622  0.0072
    6MOL   C113  723   7.285   2.472   5.273  0.1233  0.7497 -0.3610
    6MOL   H114  724   7.186   2.455   5.314  0.4026  1.2602  0.5365
    6MOL   H115  725   7.304   2.374   5.230 -0.3368 -0.4084  1.9723
    6MOL   C116  726   7.275   2.587   5.169 -0.1569  0.0448  0.1104
    6MOL   F117  727   7.388   2.596   5.106 -0.3139  0.2998  0.3128
    6MOL   F118  728   7.181   2.540   5.081 -0.2091  0.3461  0.1414
    6MOL   C119  729   7.238   2.726   5.236 -0.6088  0.3156 -0.7629
    6MOL   H120  730   7.310   2.760   5.310  0.0166 -0.3821 -1.0402
    6MOL   H121  731   7.136   2.717   5.273 -0.5981 -1.0575 -1.0370
    6MOL   H122  732   7.240   2.803   5.159 -0.6579 -0.4904 -1.5811
    7MOL     C1  733   2.829   8.068   5.291 -0.1683 -0.7446 -0.4371
    7MOL     F2  734   2.872   7.954   5.337 -0.2045 -0.1299  0.4836
    7MOL     F3  735   2.928   8.156   5.308 -0.0506  0.5777 -0.3523
    7MOL     C4  736   2.714   8.109   5.387  0.5561  1.1094 -0.2852
    7MOL     H5  737   2.755   8.115   5.488  0.7721  1.1142 -0.3744
    7MOL     H6  738   2.639   8.032   5.402 -1.6328  3.4157  1.0780
    7MOL     H7  739   2.795   8.054   5.188 -0.8690 -1.3459 -0.1354
    7MOL     C8  740   2.641   8.237   5.331  0.1790 -0.8916  0.4119
    7MOL     F9  741   2.734   8.324   5.294 -0.6770 -0.4302  0.1085
    7MOL    F10  742   2.575   8.199   5.220 -0.1075 -0.0160  0.2551
    7MOL    C11  743   2.534   8.315   5.424 -0.3461  0.1475  0.0108
    7MOL    H12  744   2.458   8.242   5.452 -0.7195  0.2764 -0.6572
    7MOL    H13  745   2.488   0.039   5.358  0.1126 -1.0353 -1.6351
    7MOL    C14  746   2.589   0.041   5.545  0.2084 -0.2923  0.4302
    7MOL    F15  747   2.678   8.309   5.595 -0.2608 -1.0242 -0.2280
    7MOL    F16  748   2.647   0.149   5.500  0.3191 -0.2513 -0.1566
    7MOL    C17  749   2.488   0.068   5.654  0.1019  0.2002 -0.0794
    7MOL    H18  750   2.443   8.327   5.694 -1.4204  1.6335  1.5709
    7MOL    H19  751   2.406   0.122   5.605  0.5516 -0.2173 -1.3027
    7MOL    C20  752   2.538   0.162   5.776  0.0597 -0.5690  0.3876
    7MOL    F21  753   2.582   0.272   5.718 -0.3498 -0.1741 -0.3185
    7MOL    F22  754   2.434   0.192   5.852  0.0030 -0.3339  0.0490
    7MOL    C23  755   2.647   0.094   5.865 -0.1555  0.7634 -0.3357
    7MOL    H24  756   2.727   0.060   5.800 -0.2499  0.9004 -0.5222
    7MOL    H25  757   2.612   8.349   5.906  0.8048 -0.0842 -1.4769
    7MOL    C26  758   2.706   0.184   5.976 -0.1133 -0.2258  0.3803
    7MOL    F27  759   2.813   0.104   6.024  0.5035 -0.7288 -0.2427
    7MOL    F28  760   2.746   0.291   5.921 -0.3721 -0.4580 -0.0884
    7MOL    C29  761   2.624   0.206   6.102  0.1947 -0.1107 -0.4999
    7MOL    H30  762   2.593   0.110   6.141 -3.9359  1.7889  1.1494
    7MOL    H31  763   2.530   0.259   6.091  0.5471  0.5281 -0.4924
    7MOL    C32  764   2.704   0.287   6.207  0.2837 -0.3957 -0.4204
    7MOL    F33  765   2.826   0.252   6.222  0.1515  0.2509  0.5308
    7MOL    F34  766   2.718   0.411   6.164  0.3397  0.3699 -0.2205
    7MOL    C35  767   2.633   0.285   6.340  0.3981 -0.1805  0.2032
    7MOL    H36  768   2.691   0.324   6.423  1.8933  0.6424 -1.1972
    7MOL    H37  769   2.619   0.181   6.369 -0.9232  0.0125  0.3111
    7MOL    C38  770   2.483   0.346   6.356  0.4595  0.6887 -0.4525
    7MOL    F39  771   2.397   0.279   6.283 -0.3436  0.9338 -0.5103
    7MOL    F40  772   2.442   0.339   6.482  0.0368 -0.2067 -0.1374
    7MOL    C41  773   2.468   0.492   6.311 -0.0247  0.8482  0.4122
    7MOL    H42  774   2.520   0.510   6.217  0.6406 -2.8015  0.0252
    7MOL    H43  775   2.535   0.542   6.381  0.3127  0.7137  0.1822
    7MOL    C44  776   2.317   0.549   6.320 -0.2794 -0.6723 -0.3864
    7MOL    F45  777   2.243   0.509   6.220  0.0698 -0.2462 -0.4091
    7MOL    F46  778   2.260   0.490   6.428 -0.3165  0.1914 -0.0019
    7MOL    C47  779   2.318   0.700   6.314 -0.0261 -0.2058  0.3021
    7MOL    H48  780   2.386   0.745   6.242  1.1420  0.8384  2.0243
    7MOL    H49  781   2.359   0.731   6.410  2.1637 -1.6120 -0.1563
    7MOL    C50  782   2.180   0.765   6.307 -0.0369  0.9650  0.2415
    7MOL    F51  783   2.102   0.715   6.406  0.7682  0.2968 -0.6845
    7MOL    F52  784   2.191   0.893   6.318  0.0522  0.0030 -0.2124
    7MOL    C53  785   2.101   0.740   6.174 -0.0864  0.4603 -0.1992
    7MOL    H54  786   2.007   0.794   6.173  0.4747  1.5157  1.6493
    7MOL    H55  787   2.065   0.637   6.166 -1.3715  0.9729 -1.0846
    7MOL    C56  788   2.167   0.772   6.037  0.3515 -0.1770  0.1004
    7MOL    F57  789   2.198   0.896   6.033 -0.7052 -0.6812 -0.1145
    7MOL    F58  790   2.285   0.709   6.002 -0.2491 -0.3648  0.7393
    7MOL    C59  791   2.079   0.750   5.912 -0.5777  0.2738  0.0437
    7MOL    H60  792   2.140   0.782   5.827  1.6166 -2.6980  0.3889
    7MOL    H61  793   1.986   0.805   5.923 -1.1899  0.0866 -3.7154
    7MOL    C62  794   2.036   0.609   5.879 -0.4867  1.3726  0.0711
    7MOL    F63  795   2.132   0.524   5.871 -0.1789  0.1488 -0.2090
    7MOL    F64  796   1.945   0.575   5.968  0.2396  0.1160 -0.2057
    7MOL    C65  797   1.970   0.593   5.737 -0.4765  0.7298 -0.6231
    7MOL    H66  798   2.021   0.648   5.658 -0.9898 -0.6260 -1.9236
    7MOL    H67  799   1.871   0.637   5.745 -0.0464  1.4443  0.9471
    7MOL    C68  800   1.949   0.452   5.678 -0.1564  0.0706  0.5555
    7MOL    F69  801   1.915   0.388   5.789 -0.0447  0.6093 -0.4668
    7MOL    F70  802   1.849   0.456   5.592 -0.0786 -0.3504 -0.4544
    7MOL    C71  803   2.078   0.397   5.609  0.4986 -0.0705 -0.8960
    7MOL    H72  804   2.162   0.407   5.679  0.6276 -0.6565 -0.9604
    7MOL    H73  805   2.116   0.473   5.541  1.8052  0.2769  0.1909
    7MOL    C74  806   2.080   0.252   5.546  0.1967 -0.3061  0.3373
    7MOL    F75  807   2.008   0.265   5.430  0.0773 -0.3677 -0.3815
    7MOL    F76  808   2.198   0.219   5.496  0.2437  0.1134 -0.0260
    7MOL    C77  809   2.033   0.139   5.641  0.2670 -0.3377 -0.4741
    7MOL    H78  810   1.932   0.161   5.675  0.3887  0.9094 -0.8690
    7MOL    H79  811   2.104   0.132   5.724  0.9174 -2.1073 -1.1602
    7MOL    C80  812   2.019   8.349   5.576 -0.1072  0.2462  0.1298
    7MOL    F81  813   1.915   0.006   5.492  0.3306  0.0066  0.0880
    7MOL    F82  814   2.133   8.317   5.507  0.5525 -0.2504 -0.3881
    7MOL    C83  815   1.991   8.243   5.687  0.1607  0.1223 -0.1853
    7MOL    H84  816   1.928   8.286   5.766  0.7745 -0.3180  0.5561
    7MOL    H85  817   2.087   8.233   5.737 -0.8787  3.7852  2.7795
    7MOL    C86  818   1.942   8.109   5.646  0.0600 -0.1202 -0.1844
    7MOL    F87  819   2.025   8.060   5.549 -0.1718 -0.1535 -0.3683
    7MOL    F88  820   1.961   8.025   5.746 -0.4078  0.1032 -0.1279
    7MOL    C89  821   1.796   8.108   5.591 -0.4013  0.2067 -0.1857
    7MOL    H90  822   1.789   8.152   5.491  3.0884  1.4703  0.0503
    7MOL    H91  823   1.742   8.151   5.675 -1.7337  0.3696 -1.1030
    7MOL    C92  824   1.731   7.970   5.573 -1.0630  0.2428 -0.1423
    7MOL    F93  825   1.801   7.900   5.480 -0.5667 -0.2835  0.6136
    7MOL    F94  826   1.748   7.908   5.692 -0.0342  0.2324  0.4003
    7MOL    C95  827   1.587   7.966   5.518 -0.6026 -0.9003 -0.0793
    7MOL    H96  828   1.563   7.860   5.512  1.1457 -1.3847  0.9452
    7MOL    H97  829   1.591   8.014   5.420 -0.7573  1.3946  0.9904
    7MOL    C98  830   1.490   8.042   5.602 -0.1127  0.0334 -0.9608
    7MOL    F99  831   1.502   8.017   5.738  0.2765 -0.1876 -0.0356
    7MOL   F100  832   1.507   8.167   5.584  0.4746 -0.3619 -0.1689
    7MOL   C101  833   1.344   8.013   5.565 -0.0343 -0.1254  0.7157
    7MOL   H102  834   1.334   8.051   5.463  0.0499  3.5209  1.9815
    7MOL   H103  835   1.283   8.072   5.633 -1.8067 -2.2189  0.9605
    7MOL   C104  836   1.303   7.861   5.576 -0.1190 -0.3266 -0.4451
    7MOL   F105  837   1.355   7.797   5.470  0.1718 -0.4211 -0.3094
    7MOL   F106  838   1.354   7.797   5.683  0.8573 -0.4343  0.2667
    7MOL   C107  839   1.151   7.849   5.563 -0.2304  0.1512 -0.0686
    7MOL   H108  840   1.113   7.926   5.496  1.2842  0.6297 -0.4010
    7MOL   H109  841   1.098   7.876   5.655 -0.7746 -0.7092 -0.1243
    7MOL   C110  842   1.098   7.706   5.525 -0.7327  0.2180 -0.0656
    7MOL   F111  843   0.974   7.693   5.570  0.5388 -0.1512 -0.0105
    7MOL   F112  844   1.102   7.692   5.393 -0.2176  0.5812  0.0116
    7MOL   C113  845   1.173   7.592   5.587 -0.3423  0.5122  0.3572
    7MOL   H114  846   1.161   7.596   5.696 -0.6563  1.8048  0.2818
    7MOL   H115  847   1.280   7.589   5.565  0.1449 -3.8283  2.7785
    7MOL   C116  848   1.115   7.452   5.535  0.2919  0.8095  0.1405
    7MOL   F117  849   0.984   7.440   5.545 -0.4425 -0.0157 -0.0655
    7MOL   F118  850   1.143   7.430   5.404  0.0103 -0.1997 -0.1996
    7MOL   C119  851   1.172   7.333   5.606  0.0384 -0.0851  0.5364
    7MOL   H120  852   1.278   7.317   5.585 -0.0934  1.2435 -1.2889
    7MOL   H121  853   1.138   7.242   5.558  0.1589  0.7337 -1.1442
    7MOL   H122  854   1.155   7.340   5.713 -0.5742 -1.6066  0.5495
    8MOL     C1  855   0.450   7.894   6.669  0.3434  0.2653 -0.0041
    8MOL     F2  856   0.576   7.914   6.626  0.2896 -0.2797  0.4525
    8MOL     F3  857   0.445   7.775   6.723 -0.1628 -0.1943  0.1521
    8MOL     C4  858   0.353   7.897   6.553 -0.0981  0.5209  0.0743
    8MOL     H5  859   0.265   7.850   6.595 -0.2693 -0.2091 -1.0842
    8MOL     H6  860   0.383   7.839   6.466 -1.3429 -0.3104  0.1857
    8MOL     H7  861   0.426   7.966   6.748  1.7287  0.1809  0.5159
    8MOL     C8  862   0.318   8.040   6.507 -0.1949  0.7332  0.2120
    8MOL     F9  863   0.283   8.103   6.617  0.5643  0.8367  0.7112
    8MOL    F10  864   0.424   8.104   6.451  0.0790 -0.2905  0.2870
    8MOL    C11  865   0.213   8.055   6.402  0.5633  0.5803 -0.1126
    8MOL    H12  866   0.226   7.984   6.320 -0.4281 -0.5084  0.6686
    8MOL    H13  867   0.222   8.154   6.356  0.8432  0.8829  0.5924
    8MOL    C14  868   0.071   8.058   6.460  0.1254 -0.6077  0.1325
    8MOL    F15  869   0.059   7.958   6.544 -0.5275 -0.1543 -0.2794
    8MOL    F16  870   0.063   8.170   6.539  0.1685  0.3108  0.0795
    8MOL    C17  871   8.299   8.065   6.358  0.3817 -0.3508 -0.1038
    8MOL    H18  872   8.312   8.148   6.289  1.9854 -0.8517 -0.4361
    8MOL    H19  873   8.208   8.081   6.416  0.6951  1.2439 -0.0275
    8MOL    C20  874   8.274   7.934   6.278 -0.1014 -0.5437  0.4529
    8MOL    F21  875   0.041   7.897   6.227 -0.0790  0.8921  0.2630
    8MOL    F22  876   8.228   7.834   6.354 -0.1542 -0.1488  0.2940
    8MOL    C23  877   8.176   7.943   6.157  0.0348 -0.1220  0.3736
    8MOL    H24  878   8.204   7.878   6.074  0.2715 -0.1467  0.4700
    8MOL    H25  879   8.201   8.039   6.113  0.1608 -0.2882  0.0834
    8MOL    C26  880   8.024   7.938   6.191  0.4003  0.7499  0.2518
    8MOL    F27  881   8.001   8.011   6.299  0.2938 -0.5047 -0.1492
    8MOL    F28  882   7.960   7.983   6.086 -0.3628  0.4811 -0.2717
    8MOL    C29  883   7.985   7.790   6.203 -0.6061 -0.1950 -0.0331
    8MOL    H30  884   7.984   7.770   6.310 -0.7786 -1.5785 -0.2884
    8MOL    H31  885   8.065   7.729   6.162 -0.1254 -0.4482  1.2710
    8MOL    C32  886   7.848   7.747   6.148  0.0447 -0.0266 -0.5055
    8MOL    F33  887   7.760   7.831   6.188  0.2783  0.0787  0.3994
    8MOL    F34  888   7.856   7.743   6.016  0.2140  0.2756 -0.1086
    8MOL    C35  889   7.796   7.610   6.204 -0.3240  0.2310  0.7142
    8MOL    H36  890   7.700   7.574   6.168  0.0323  0.7820 -0.8198
    8MOL    H37  891   7.778   7.631   6.309 -0.7976  2.2815  0.2510
    8MOL    C38  892   7.897   7.490   6.180 -0.5853  1.3942  0.6295
    8MOL    F39  893   8.008   7.516   6.253  0.6326  0.3044  0.3604
    8MOL    F40  894   7.836   7.380   6.235  0.1749  0.1157  0.5444
    8MOL    C41  895   7.925   7.444   6.025  0.9044 -0.3778 -0.6627
    8MOL    H42  896   7.961   7.529   5.967  0.2112 -0.2556 -0.9141
    8MOL    H43  897   7.835   7.415   5.972  1.3342 -1.4448 -0.8240
    8MOL    C44  898   8.035   7.348   6.017 -0.4228  0.3405  0.5413
    8MOL    F45  899   8.136   7.395   6.087  0.1186 -0.0365 -0.0724
    8MOL    F46  900   7.981   7.245   6.083  1.0281 -0.1121  0.3453
    8MOL    C47  901   8.080   7.310   5.874 -0.4145  0.1053  1.0179
    8MOL    H48  902   8.152   7.228   5.880 -1.3631 -0.5684  3.6144
    8MOL    H49  903   8.128   7.392   5.821  2.3019 -3.1141 -1.7472
    8MOL    C50  904   7.976   7.256   5.767  0.9243 -0.1021  0.4523
    8MOL    F51  905   7.919   7.141   5.811  0.0711 -0.3121  0.6973
    8MOL    F52  906   7.874   7.344   5.752  0.0471 -0.1022 -0.2242
    8MOL    C53  907   8.045   7.251   5.631 -0.1732 -0.3865 -0.0799
    8MOL    H54  908   8.140   7.198   5.638 -0.9724 -2.1299 -1.9431
    8MOL    H55  909   8.078   7.350   5.599 -0.4587 -0.1481  0.3619
    8MOL    C56  910   7.975   7.183   5.519  0.1328 -1.0577  0.6917
    8MOL    F57  911   8.060   7.203   5.421  0.0211  0.2461  0.2540
    8MOL    F58  912   7.972   7.052   5.540  0.0801  0.0622 -0.6096
    8MOL    C59  913   7.843   7.245   5.477  0.1882  0.2757  0.1570
    8MOL    H60  914   7.857   7.353   5.467 -1.0246  0.4859  0.7091
    8MOL    H61  915   7.773   7.241   5.560 -0.9630 -1.9980 -0.8835
    8MOL    C62  916   7.770   7.185   5.350  0.1784 -0.2925 -0.2792
    8MOL    F63  917   7.849   7.205   5.238 -0.3263  0.1997  0.0363
    8MOL    F64  918   7.753   7.056   5.369 -0.3930  0.3410 -0.3777
    8MOL    C65  919   7.630   7.235   5.348  0.3578  0.3017  0.3204
    8MOL    H66  920   7.577   7.243   5.442 -2.6321  0.5439 -1.3149
    8MOL    H67  921   7.570   7.177   5.278 -1.5526  1.6134  0.8399
    8MOL    C68  922   7.610   7.373   5.281  0.4145 -0.0945  0.5973
    8MOL    F69  923   7.673   7.481   5.339 -0.3204  0.6100  0.2326
    8MOL    F70  924   7.661   7.375   5.162 -0.0471  0.8199  0.6566
    8MOL    C71  925   7.462   7.419   5.282  0.4458  0.1745  0.4178
    8MOL    H72  926   7.425   7.423   5.384 -0.1738 -1.3724  0.2700
    8MOL    H73  927   7.404   7.340   5.235 -0.4373  0.6469  0.6905
    8MOL    C74  928   7.416   7.547   5.210  0.0617  0.5944 -0.1437
    8MOL    F75  929   7.396   7.522   5.080 -0.9295  0.1117  0.4503
    8MOL    F76  930   7.293   7.592   5.252 -0.2755  0.1792  0.5189
    8MOL    C77  931   7.510   7.669   5.215  0.2073 -0.4986  0.0680
    8MOL    H78  932   7.468   7.746   5.150 -0.3627 -1.1987 -0.4048
    8MOL    H79  933   7.604   7.637   5.169  0.7402  0.0899  0.7393
    8MOL    C80  934   7.523   7.744   5.358 -0.1466  0.7990  0.3228
    8MOL    F81  935   7.433   7.846   5.368  0.6904  0.2511 -0.4672
    8MOL    F82  936   7.497   7.651   5.460 -0.7048 -0.1440  0.5058
    8MOL    C83  937   7.667   7.794   5.380 -0.3085 -0.3246  0.0587
    8MOL    H84  938   7.702   7.847   5.291  2.3081  2.0941  2.4503
    8MOL    H85  939   7.742   7.719   5.403 -0.1078  0.3663  1.7520
    8MOL    C86  940   7.676   7.885   5.504 -0.1732  0.3241  0.0579
    8MOL    F87  941   7.600   7.999   5.492  0.1616  0.0937 -0.3973
    8MOL    F88  942   7.633   7.822   5.610  0.3774  0.0032  0.2343
    8MOL    C89  943   7.817   7.948   5.528  0.4358 -0.0945  0.3792
    8MOL    H90  944   7.794   8.026   5.601  0.5066  0.1606  0.1286
    8MOL    H91  945   7.850   7.989   5.433  0.7892 -1.3765 -0.0627
    8MOL    C92  946   7.918   7.848   5.593 -0.5064  0.1976 -0.0098
    8MOL    F93  947   7.871   7.818   5.713 -0.0749  0.2659  0.3685
    8MOL    F94  948   7.932   7.736   5.517  0.0044  0.2120  0.1774
    8MOL    C95  949   8.060   7.913   5.624  0.7180 -0.4999  0.0495
    8MOL    H96  950   8.042   7.983   5.706  1.3929 -0.0382 -0.1947
    8MOL    H97  951   8.102   7.967   5.539  2.1268 -0.6986  0.6041
    8MOL    C98  952   8.165   7.815   5.676  0.1273 -0.3367 -0.0482
    8MOL    F99  953   8.107   7.771   5.783 -0.1220  0.2767  0.5013
    8MOL   F100  954   8.185   7.714   5.590  0.6010  0.0277  0.1209
    8MOL   C101  955   8.302   7.883   5.707 -0.2969  0.2924 -0.6292
    8MOL   H102  956   0.012   7.891   5.617 -1.1685  1.0405 -1.1475
    8MOL   H103  957   0.013   7.806   5.755 -0.3777 -0.1977 -1.3023
    8MOL   C104  958   8.310   8.017   5.783  0.2477  0.9343  0.3902
    8MOL   F105  959   8.284   8.113   5.698 -0.6535  0.3301 -0.2684
    8MOL   F106  960   8.213   8.010   5.882  0.0072 -0.1254  0.2320
    8MOL   C107  961   0.107   8.037   5.843 -0.1751 -0.1568 -0.8009
    8MOL   H108  962   0.187   8.020   5.771 -0.4345 -4.2665 -0.2733
    8MOL   H109  963   0.122   7.950   5.907  1.8802  0.5143 -0.3648
    8MOL   C110  964   0.121   8.170   5.910 -0.7397  0.4752 -0.0821
    8MOL   F111  965   0.102   8.263   5.821 -0.0501  0.0554 -0.4954
    8MOL   F112  966   0.028   8.167   6.010 -0.0310 -0.3942 -0.2845
    8MOL   C113  967   0.252   8.204   5.973 -0.3696  0.1438 -0.1152
    8MOL   H114  968   0.341   8.184   5.913 -0.4596 -2.0708  0.4390
    8MOL   H115  969   0.262   8.125   6.048  1.1298  0.5317  0.1157
    8MOL   C116  970   0.272   8.334   6.046  0.0014 -0.2250 -0.7025
    8MOL   F117  971   0.265   0.082   5.957  0.5747  0.0259  0.0736
    8MOL   F118  972   0.170   8.348   6.129  0.1418  0.1674 -0.0708
    8MOL   C119  973   0.404   8.345   6.108 -0.2160  0.5120  0.2012
    8MOL   H120  974   0.490   8.345   6.040 -1.1839  1.9906 -1.0506
    8MOL   H121  975   0.418   8.259   6.174 -1.8942 -0.5624 -0.8059
    8MOL   H122  976   0.410   0.090   6.162 -0.4762 -0.5992  2.2298
    9MOL     C1  977   8.307   7.781   8.103 -0.1903 -1.1925 -0.2318
    9MOL     F2  978   8.213   7.775   8.007 -0.3253  0.4671 -0.2955
    9MOL     F3  979   0.073   7.824   8.044  0.1466  0.0170 -0.1354
    9MOL     C4  980   8.339   7.641   8.165  0.2424 -0.4197 -1.0878
    9MOL     H5  981   0.059   7.669   8.244 -1.2143 -1.2429  0.5488
    9MOL     H6  982   0.047   7.580   8.097  1.3288  0.3030 -0.8313
    9MOL     H7  983   8.281   7.865   8.166  0.2922 -0.6283 -0.7820
    9MOL     C8  984   8.210   7.577   8.225 -0.0720  0.4045 -0.0238
    9MOL     F9  985   8.135   7.668   8.282 -0.0773 -0.2692  0.1338
    9MOL    F10  986   8.126   7.530   8.131 -0.9812 -0.0513 -0.1734
    9MOL    C11  987   8.239   7.463   8.325  0.1314 -0.1250  0.5287
    9MOL    H12  988   8.147   7.410   0.001  1.0130 -1.4971  0.9087
    9MOL    H13  989   8.258   7.498   0.077  4.4528 -0.8535  0.0444
    9MOL    C14  990   8.348   7.371   8.276  0.0430  0.4471  0.1747
    9MOL    F15  991   8.338   7.345   8.148 -0.0156  0.4039  0.0042
    9MOL    F16  992   0.120   7.420   8.310 -0.4357  0.4300  0.3003
    9MOL    C17  993   8.336   7.239   0.005 -0.5290 -0.5479 -0.2786
    9MOL    H18  994   8.239   7.199   8.324 -0.8900  0.1736 -0.0779
    9MOL    H19  995   8.328   7.248   0.113  0.8748  1.1147 -0.2853
    9MOL    C20  996   0.102   7.136   8.330 -0.0303  0.5141  0.2600
    9MOL    F21  997   0.113   7.115   8.200  0.3437  0.4341 -0.0884
    9MOL    F22  998   0.215   7.188   0.025  0.7300 -0.0027 -0.1948
    9MOL    C23  999   0.084   6.999   0.051  0.3842 -0.3413  0.3405
    9MOL    H24 1000   0.177   6.942   0.048  1.1079  0.8250  0.5084
    9MOL    H25 1001   0.017   6.944   8.335  1.0937 -0.8720  0.0601
    9MOL    C26 1002   0.026   6.996   0.195  0.5322  0.8302 -0.2344
    9MOL    F27 1003   0.096   7.080   0.276  1.3175 -0.0684 -0.0534
    9MOL    F28 1004   8.251   7.026   0.199  0.6055 -0.5271 -0.2506
    9MOL    C29 1005   0.033   6.850   0.253  0.1240 -0.3470  0.2758
    9MOL    H30 1006   0.137   6.822   0.269  0.0078  0.4110  2.5672
    9MOL    H31 1007   8.330   6.788   0.181  0.8975 -0.5637 -0.1045
    9MOL    C32 1008   8.320   6.832   0.398  0.2030 -0.2590 -0.2191
    9MOL    F33 1009   8.188   6.846   0.382  0.1797  0.6057 -0.3075
    9MOL    F34 1010   8.338   6.707   0.440  0.0796  0.6535  0.2262
    9MOL    C35 1011   0.026   6.915   0.518 -0.2356 -0.2211 -0.1919
    9MOL    H36 1012   8.312   7.002   0.505 -1.9865 -0.7516  3.9837
    9MOL    H37 1013   0.127   6.956   0.507  1.2553 -3.9353 -1.2151
    9MOL    C38 1014   0.003   6.856   0.658  0.6984 -0.8918  0.2110
    9MOL    F39 1015   0.072   6.744   0.661 -0.4486 -0.4812  0.0862
    9MOL    F40 1016   0.048   6.939   0.745 -0.2682  0.2330 -0.3444
    9MOL    C41 1017   8.209   6.819   0.690  0.4265  0.7976  0.1775
    9MOL    H42 1018   8.158   6.750   0.623 -2.0171  0.4075  2.3617
    9MOL    H43 1019   8.141   6.903   0.677  0.1355  0.5734  0.2428
    9MOL    C44 1020   8.196   6.750   0.826  0.8745  0.1140  0.2069
    9MOL    F45 1021   8.234   6.623   0.809  0.6328 -0.7272  0.0974
    9MOL    F46 1022   8.268   6.812   0.916  0.1952 -0.3702  0.1416
    9MOL    C47 1023   8.041   6.758   0.862 -0.8244  0.1911 -0.1280
    9MOL    H48 1024   7.983   6.749   0.771  0.1554  1.2621 -0.8799
    9MOL    H49 1025   8.038   6.862   0.894  0.1137  0.8537 -2.1192
    9MOL    C50 1026   7.996   6.669   0.980 -0.8614  0.2190  0.0460
    9MOL    F51 1027   7.998   6.538   0.950 -0.0179  0.2768 -0.2937
    9MOL    F52 1028   8.085   6.698   1.075 -0.3639  0.5235 -0.2243
    9MOL    C53 1029   7.852   6.699   1.034 -0.0040 -0.1064 -0.0791
    9MOL    H54 1030   7.850   6.793   1.089 -0.8151 -1.7214  2.7675
    9MOL    H55 1031   7.845   6.625   1.114  0.7942 -1.1273 -0.9451
    9MOL    C56 1032   7.735   6.683   0.938 -0.0510 -0.3984  0.2725
    9MOL    F57 1033   7.743   6.788   0.857  0.0038  0.0582 -0.6137
    9MOL    F58 1034   7.748   6.575   0.864 -0.2961 -0.8800  0.4892
    9MOL    C59 1035   7.593   6.672   1.011  0.7845  0.4563  0.0167
    9MOL    H60 1036   7.591   6.573   1.055 -0.4438 -0.4183 -1.8993
    9MOL    H61 1037   7.517   6.664   0.932  1.9520 -1.9202 -0.9211
    9MOL    C62 1038   7.553   6.786   1.107 -0.1432  0.1599  0.1630
    9MOL    F63 1039   7.643   6.787   1.203  0.4412  0.0859  0.2151
    9MOL    F64 1040   7.564   6.904   1.052 -0.0116  0.0886 -0.5245
    9MOL    C65 1041   7.407   6.769   1.162  0.3828  0.3011 -0.1686
    9MOL    H66 1042   7.344   6.772   1.073  0.6704 -0.2905 -0.3927
    9MOL    H67 1043   7.399   6.865   1.215  1.3044 -0.6600  1.7663
    9MOL    C68 1044   7.367   6.645   1.245 -0.1077 -0.0710  0.1304
    9MOL    F69 1045   7.242   6.657   1.275 -0.1743 -0.0755  0.0972
    9MOL    F70 1046   7.371   6.545   1.162  0.4861 -0.4863 -0.6800
    9MOL    C71 1047   7.444   6.620   1.371 -0.3480  0.1348 -0.5646
    9MOL    H72 1048   7.468   6.715   1.418  2.2792 -0.6807 -0.1757
    9MOL    H73 1049   7.543   6.581   1.347  0.1070  1.1148 -0.2676
    9MOL    C74 1050   7.390   6.533   1.474  0.3205 -0.1745  0.1528
    9MOL    F75 1051   7.486   6.498   1.557 -0.3858  0.3591  0.2067
    9MOL    F76 1052   7.293   6.602   1.540 -0.4310 -0.1461 -0.5702
    9MOL    C77 1053   7.343   6.393   1.419 -0.1824 -0.5709  0.1843
    9MOL    H78 1054   7.425   6.348   1.364  0.0717  1.9264 -1.5901
    9MOL    H79 1055   7.258   6.413   1.353 -0.2361  0.7091  0.6182
    9MOL    C80 1056   7.295   6.298   1.529 -0.2283 -0.0819 -0.2948
    9MOL    F81 1057   7.270   6.187   1.458  0.1493 -0.4134 -0.2018
    9MOL    F82 1058   7.391   6.274   1.619  0.1412 -0.0063  0.1896
    9MOL    C83 1059   7.159   6.343   1.592 -0.0449  0.0186 -0.0940
    9MOL    H84 1060   7.102   6.400   1.518 -0.5789 -1.0696 -0.5504
    9MOL    H85 1061   7.183   6.421   1.663 -1.3221  1.9118 -1.6922
    9MOL    C86 1062   7.073   6.240   1.662 -0.0358  0.7352 -0.9660
    9MOL    F87 1063   6.952   6.288   1.679  0.2523  0.3168  0.0268
    9MOL    F88 1064   7.063   6.140   1.575 -0.0960  0.2368 -0.4668
    9MOL    C89 1065   7.126   6.189   1.795  0.3422 -0.5049 -0.9125
    9MOL    H90 1066   7.152   6.274   1.858 -1.5696 -1.6372  1.4604
    9MOL    H91 1067   7.220   6.140   1.770  0.3025 -0.2452 -1.5787
    9MOL    C92 1068   7.039   6.084   1.864 -0.2910  0.0610  0.2826
    9MOL    F93 1069   6.938   6.149   1.930  0.3835  0.0673 -0.4322
    9MOL    F94 1070   7.003   5.993   1.774  0.5627 -0.2239  0.1212
    9MOL    C95 1071   7.119   6.016   1.991  0.9289 -0.2867 -0.1195
    9MOL    H96 1072   7.048   5.963   2.054  0.2169  0.1683 -0.5281
    9MOL    H97 1073   7.180   6.089   2.043 -2.2403  1.3455  1.4151
    9MOL    C98 1074   7.218   5.904   1.956 -0.2061  0.1010  0.4090
    9MOL    F99 1075   7.155   5.805   1.893  0.3538  0.2492 -0.5147
    9MOL   F100 1076   7.311   5.935   1.868  0.5216  0.0470  0.0128
    9MOL   C101 1077   7.277   5.839   2.086  0.2172  0.1228 -0.6126
    9MOL   H102 1078   7.325   5.744   2.062 -0.2614 -0.4493  0.6201
    9MOL   H103 1079   7.204   5.808   2.161  2.1974 -1.7594  0.6080
    9MOL   C104 1080   7.402   5.909   2.150  0.3777  0.3385  0.6880
    9MOL   F105 1081   7.505   5.924   2.066  0.9413 -0.4536  0.6527
    9MOL   F106 1082   7.362   6.031   2.185  0.8414 -0.0252 -0.0367
    9MOL   C107 1083   7.451   5.839   2.275  0.1079  0.1724 -0.0210
    9MOL   H108 1084   7.475   5.737   2.245  1.2853  1.5564 -4.1538
    9MOL   H109 1085   7.381   5.842   2.358 -0.2075  0.7073 -0.3034
    9MOL   C110 1086   7.571   5.900   2.342  0.8931 -1.0711 -0.9174
    9MOL   F111 1087   7.673   5.892   2.261 -0.1018 -0.0371 -0.1467
    9MOL   F112 1088   7.557   6.029   2.366 -0.3066  0.2386  0.0168
    9MOL   C113 1089   7.608   5.832   2.482  0.1756  0.1680 -0.3227
    9MOL   H114 1090   7.537   5.855   2.562 -1.0305 -0.1543 -1.2988
    9MOL   H115 1091   7.698   5.882   2.519 -0.3278  0.6155  0.3194
    9MOL   C116 1092   7.624   5.682   2.480  0.3515 -0.4502 -0.0437
    9MOL   F117 1093   7.501   5.618   2.464 -0.3682 -0.4226 -0.5767
    9MOL   F118 1094   7.693   5.654   2.379 -0.1554  0.0967  0.0240
    9MOL   C119 1095   7.696   5.643   2.616  0.2008 -0.4969  0.6783
    9MOL   H120 1096   7.803   5.658   2.599 -0.0574  2.5224  1.5236
    9MOL   H121 1097   7.673   5.538   2.637  2.9543 -1.3759 -0.3555
    9MOL   H122 1098   7.661   5.707   2.696  0.2358  1.8302 -1.1062
   10MOL     C1 1099   1.366   0.083   1.615  0.1111  0.0979  1.1525
   10MOL     F2 1100   1.419   0.029   1.508  0.3939 -0.1254  0.6305
   10MOL     F3 1101   1.238   0.043   1.616  0.3979 -0.3492  0.4512
   10MOL     C4 1102   1.373   0.230   1.622 -0.3693  0.6666  0.3631
   10MOL     H5 1103   1.329   0.278   1.534  1.6795  0.6847 -0.7008
   10MOL     H6 1104   1.478   0.254   1.603 -0.4349  0.1518 -0.6505
   10MOL     H7 1105   1.421   0.054   1.704 -2.0945 -3.8671  1.3194
   10MOL     C8 1106   1.315   0.301   1.747 -0.1038  0.0794  0.2602
   10MOL     F9 1107   1.184   0.311   1.720 -0.2970 -0.7320  0.0542
   10MOL    F10 1108   1.332   0.207   1.846  0.5720 -0.4556 -0.2131
   10MOL    C11 1109   1.382   0.441   1.775 -0.2316  0.8372 -0.4421
   10MOL    H12 1110   1.399   0.486   1.678  0.8006  2.6266  0.5493
   10MOL    H13 1111   1.485   0.419   1.804  0.1991 -0.0455 -2.5296
   10MOL    C14 1112   1.308   0.528   1.878 -0.3643 -0.2426  0.3791
   10MOL    F15 1113   1.373   0.637   1.913  0.0933 -0.3509 -0.5573
   10MOL    F16 1114   1.193   0.568   1.824 -0.4547  0.3180  0.5725
   10MOL    C17 1115   1.274   0.453   2.014  0.6827  0.2169 -0.7523
   10MOL    H18 1116   1.203   0.374   1.991  1.4449 -0.4895 -0.7345
   10MOL    H19 1117   1.211   0.518   2.075 -0.4370  0.7347 -2.4325
   10MOL    C20 1118   1.396   0.421   2.101  0.0986  0.3432 -0.3050
   10MOL    F21 1119   1.475   0.340   2.029  0.2185  0.1911 -0.0518
   10MOL    F22 1120   1.465   0.531   2.127  0.2447  0.0383  0.2061
   10MOL    C23 1121   1.356   0.346   2.235 -0.2619  0.0407  0.1519
   10MOL    H24 1122   1.314   0.254   2.197  2.0677 -0.8008 -0.4755
   10MOL    H25 1123   1.273   0.401   2.280  0.3090  0.4033  0.7896
   10MOL    C26 1124   1.470   0.326   2.338  0.0622 -0.3135  0.0500
   10MOL    F27 1125   1.577   0.267   2.274  0.4982  0.0252  0.0083
   10MOL    F28 1126   1.516   0.441   2.383  0.2144 -0.1263 -0.2630
   10MOL    C29 1127   1.439   0.240   2.465  0.1868  0.6962  0.5384
   10MOL    H30 1128   1.533   0.248   2.520  0.8568  0.6133 -0.5857
   10MOL    H31 1129   1.413   0.137   2.441 -0.9322  0.7002  1.6666
   10MOL    C32 1130   1.327   0.305   2.556 -0.2564 -0.0267 -0.0156
   10MOL    F33 1131   1.344   0.430   2.585 -0.4832  0.1428  0.1664
   10MOL    F34 1132   1.215   0.298   2.490  0.2166  0.1907  0.5759
   10MOL    C35 1133   1.314   0.240   2.698  0.5594 -0.1742 -0.5744
   10MOL    H36 1134   1.246   0.156   2.682 -0.3283  0.4049  0.1129
   10MOL    H37 1135   1.270   0.318   2.760  2.2780 -0.4977  1.0874
   10MOL    C38 1136   1.441   0.195   2.768  0.0600 -0.0650  0.1182
   10MOL    F39 1137   1.486   0.090   2.697  0.0059  0.3903 -0.4921
   10MOL    F40 1138   1.534   0.296   2.775 -0.1688 -0.1366  0.0632
   10MOL    C41 1139   1.418   0.145   2.913  1.1900  0.5033  0.2384
   10MOL    H42 1140   1.382   0.228   2.973  1.1574  0.5893  0.1011
   10MOL    H43 1141   1.510   0.103   2.954  1.6300  1.9387  0.7410
   10MOL    C44 1142   1.323   0.032   2.936  0.7224  0.4578 -0.6326
   10MOL    F45 1143   1.207   0.079   2.904  0.1450  0.0114  0.4166
   10MOL    F46 1144   1.344   8.278   2.858 -0.4890 -0.1003  0.3492
   10MOL    C47 1145   1.337   8.313   3.076 -0.3136  0.0460  0.2417
   10MOL    H48 1146   1.333   0.045   3.148  1.1206 -1.5547  2.2226
   10MOL    H49 1147   1.433   8.263   3.094 -0.6434 -0.4183  0.7475
   10MOL    C50 1148   1.231   8.206   3.111 -0.3242  0.4434  0.5010
   10MOL    F51 1149   1.110   8.246   3.060 -0.1335 -0.0631  0.0501
   10MOL    F52 1150   1.265   8.092   3.047  0.7152  0.1828 -0.0722
   10MOL    C53 1151   1.208   8.189   3.269 -0.2102 -0.5274  0.2826
   10MOL    H54 1152   1.126   8.117   3.265 -0.8546  0.2235 -0.1763
   10MOL    H55 1153   1.174   8.282   3.314 -0.6215  0.1654 -1.4373
   10MOL    C56 1154   1.335   8.136   3.349  0.7358 -0.1712  0.3335
   10MOL    F57 1155   1.384   8.037   3.281 -0.3317 -0.0515  0.1839
   10MOL    F58 1156   1.431   8.231   3.340  0.6674  0.3392  0.3678
   10MOL    C59 1157   1.310   8.090   3.499  0.0112  0.0819 -0.4436
   10MOL    H60 1158   1.237   8.010   3.508 -0.7694  0.2771 -4.3485
   10MOL    H61 1159   1.282   8.178   3.557 -0.3313 -1.2297  1.4316
   10MOL    C62 1160   1.442   8.049   3.567 -0.4384 -0.0722 -0.6750
   10MOL    F63 1161   1.541   8.137   3.545  0.4357  0.0303  0.3769
   10MOL    F64 1162   1.435   8.039   3.696  0.0136  0.5759 -0.4660
   10MOL    C65 1163   1.484   7.910   3.505  0.8503  0.1382 -0.0599
   10MOL    H66 1164   1.528   7.909   3.406 -0.5276 -2.2733 -0.6852
   10MOL    H67 1165   1.395   7.847   3.500  0.5319  0.5275  0.6070
   10MOL    C68 1166   1.576   7.826   3.583  0.4435 -0.4473 -0.4612
   10MOL    F69 1167   1.623   7.730   3.505  0.2354 -0.8531 -0.4134
   10MOL    F70 1168   1.682   7.911   3.615 -0.2761 -0.5397  0.0196
   10MOL    C71 1169   1.517   7.772   3.723 -0.7426  0.1157 -0.0497
   10MOL    H72 1170   1.496   7.848   3.798 -1.7803  1.2729 -1.5041
   10MOL    H73 1171   1.595   7.707   3.763  1.3400  2.2565 -0.5108
   10MOL    C74 1172   1.393   7.679   3.702  0.2041  0.0549  0.2067
   10MOL    F75 1173   1.288   7.759   3.679 -0.2737  0.1772  0.0226
   10MOL    F76 1174   1.406   7.601   3.596  0.0240  0.0477 -0.1941
   10MOL    C77 1175   1.359   7.599   3.834  0.0402  0.1288  0.8163
   10MOL    H78 1176   1.373   7.666   3.919  0.6439 -0.5912  1.2883
   10MOL    H79 1177   1.436   7.522   3.838 -1.2257 -1.2675 -1.1615
   10MOL    C80 1178   1.219   7.540   3.840 -0.0333 -0.2367  0.6426
   10MOL    F81 1179   1.124   7.639   3.849  0.3215 -0.3856 -0.2374
   10MOL    F82 1180   1.206   7.475   3.729  0.4782 -0.3370 -0.4613
   10MOL    C83 1181   1.206   7.432   3.956  0.5406 -0.3404  0.3105
   10MOL    H84 1182   1.273   7.350   3.930 -0.1501 -0.5484 -0.8527
   10MOL    H85 1183   1.107   7.387   3.957  0.0926  0.6480  0.7606
   10MOL    C86 1184   1.249   7.477   4.100 -0.1709  0.4081 -0.2700
   10MOL    F87 1185   1.379   7.477   4.116  0.1578  0.0346  0.0100
   10MOL    F88 1186   1.199   7.595   4.112  0.7260 -0.3410  0.0436
   10MOL    C89 1187   1.190   7.387   4.212  0.1732 -0.5123 -0.8270
   10MOL    H90 1188   1.233   7.287   4.207  0.7666 -0.2226 -1.5699
   10MOL    H91 1189   1.083   7.380   4.192  0.4314 -1.6752 -1.8787
   10MOL    C92 1190   1.211   7.445   4.358 -0.3061  0.6405 -0.2022
   10MOL    F93 1191   1.338   7.470   4.367 -0.3829 -0.4387 -0.4750
   10MOL    F94 1192   1.141   7.556   4.372  0.4875  0.3521 -0.1504
   10MOL    C95 1193   1.184   7.337   4.468  0.0976  0.0081  0.3503
   10MOL    H96 1194   1.235   7.243   4.448 -2.5414 -1.7395  1.5051
   10MOL    H97 1195   1.081   7.304   4.463  0.7346 -2.0536  0.3366
   10MOL    C98 1196   1.208   7.383   4.618  0.1577  0.6550 -0.3514
   10MOL    F99 1197   1.172   7.277   4.691  0.2904  0.0916  0.4126
   10MOL   F100 1198   1.339   7.407   4.626 -0.3726 -0.0812 -0.1924
   10MOL   C101 1199   1.132   7.504   4.681  0.0201  0.3752  0.1391
   10MOL   H102 1200   1.027   7.491   4.656  0.1129 -1.2881  0.5694
   10MOL   H103 1201   1.164   7.599   4.638 -2.0055  0.3593 -1.4891
   10MOL   C104 1202   1.130   7.515   4.843  1.0823 -0.1333  0.3996
   10MOL   F105 1203   1.059   7.624   4.874 -0.3496  0.4897  0.1335
   10MOL   F106 1204   1.054   7.407   4.888  0.3945  0.1896  0.3329
   10MOL   C107 1205   1.267   7.517   4.912  0.2862  0.5572 -0.0576
   10MOL   H108 1206   1.296   7.615   4.874 -1.0437  1.0877  0.2315
   10MOL   H109 1207   1.336   7.442   4.873 -0.6361 -0.9976  1.2459
   10MOL   C110 1208   1.249   7.521   5.066 -0.5483 -0.2826 -0.3899
   10MOL   F111 1209   1.186   7.629   5.107 -0.3766 -0.2790 -0.1377
   10MOL   F112 1210   1.202   7.400   5.108 -0.5119  0.2303 -0.7840
   10MOL   C113 1211   1.379   7.526   5.144  0.4378  0.3437 -0.3768
   10MOL   H114 1212   1.447   7.442   5.129 -0.5082 -0.3747 -0.6647
   10MOL   H115 1213   1.370   7.519   5.253 -2.1688 -0.7351 -0.6285
   10MOL   C116 1214   1.473   7.646   5.106  0.3133 -0.4783  0.1389
   10MOL   F117 1215   1.537   7.626   4.992  0.4126 -0.4603  0.0528
   10MOL   F118 1216   1.404   7.762   5.109 -0.3395  0.0122  0.6271
   10MOL   C119 1217   1.592   7.679   5.199 -0.0245 -0.8496  0.1080
   10MOL   H120 1218   1.656   7.759   5.160 -0.1465 -1.3185 -1.0962
   10MOL   H121 1219   1.657   7.594   5.218 -0.7093 -1.1170  1.2893
   10MOL   H122 1220   1.568   7.726   5.294 -0.1138  1.3480 -0.9548
   11MOL     C1 1221   3.090   3.819   7.594 -0.2136 -0.2668  0.1753
   11MOL     F2 1222   3.190   3.907   7.572 -0.0211  0.1811 -0.3471
   11MOL     F3 1223   3.144   3.705   7.552 -0.3320 -0.4656  0.6975
   11MOL     C4 1224   2.966   3.862   7.513  0.7152 -0.4136  0.0299
   11MOL     H5 1225   2.919   3.948   7.561 -1.9444 -1.5221 -0.5578
   11MOL     H6 1226   2.891   3.785   7.530  0.4893 -0.3190 -0.5632
   11MOL     H7 1227   3.072   3.814   7.701 -0.4233 -0.9446  0.1144
   11MOL     C8 1228   2.980   3.905   7.364 -0.0628  0.2850 -0.1162
   11MOL     F9 1229   2.856   3.922   7.310  0.7873 -0.0333 -0.1055
   11MOL    F10 1230   3.039   4.025   7.361 -0.8134  0.4998 -0.1238
   11MOL    C11 1231   3.060   3.804   7.279  0.6464 -0.0359 -0.3845
   11MOL    H12 1232   3.161   3.800   7.318  0.1015 -0.4637  1.0273
   11MOL    H13 1233   3.065   3.840   7.176 -0.1646 -2.4919 -1.3362
   11MOL    C14 1234   2.998   3.664   7.273 -0.0183  0.1794 -0.2318
   11MOL    F15 1235   2.949   3.615   7.391 -0.7676 -0.4044  0.0242
   11MOL    F16 1236   2.905   3.671   7.183  0.3708 -0.0066  0.2836
   11MOL    C17 1237   3.094   3.551   7.221  0.0742  0.4387  0.3018
   11MOL    H18 1238   3.025   3.468   7.204 -0.7649  0.8005  1.9008
   11MOL    H19 1239   3.155   3.517   7.304 -1.9009 -0.4863  1.4157
   11MOL    C20 1240   3.168   3.584   7.089  0.0624 -0.4110 -0.2409
   11MOL    F21 1241   3.078   3.593   6.991  0.5209  0.0777  0.2741
   11MOL    F22 1242   3.237   3.700   7.099 -0.0261  0.5032 -0.5779
   11MOL    C23 1243   3.267   3.474   7.037  0.6368  0.1823 -0.9421
   11MOL    H24 1244   3.353   3.477   7.105 -0.8253 -0.4953  0.9771
   11MOL    H25 1245   3.307   3.521   6.947 -1.8793 -0.9881 -2.7359
   11MOL    C26 1246   3.219   3.327   7.019  0.0027  0.0858  0.3001
   11MOL    F27 1247   3.154   3.292   7.125  0.4396 -0.1899 -0.4132
   11MOL    F28 1248   3.133   3.332   6.919  0.0714  0.1690  0.2654
   11MOL    C29 1249   3.344   3.239   6.986 -1.1972 -0.2083 -0.5494
   11MOL    H30 1250   3.425   3.249   7.058  0.3192 -0.0034 -2.2736
   11MOL    H31 1251   3.385   3.288   6.898  4.4903  1.5304  2.8183
   11MOL    C32 1252   3.309   3.089   6.941  0.0178  0.0159  0.0128
   11MOL    F33 1253   3.209   3.095   6.854  0.3946  0.1920 -0.2167
   11MOL    F34 1254   3.424   3.046   6.879 -0.3245  0.1531 -0.7266
   11MOL    C35 1255   3.264   2.991   7.053  0.3159  0.2730 -0.2976
   11MOL    H36 1256   3.171   3.028   7.096 -0.4162 -0.2842 -1.3711
   11MOL    H37 1257   3.339   3.000   7.132 -1.7094 -0.1842  1.7549
   11MOL    C38 1258   3.245   2.842   7.011 -0.8250 -0.5986  0.1528
   11MOL    F39 1259   3.354   2.803   6.947 -0.2279  0.1502  0.2280
   11MOL    F40 1260   3.238   2.775   7.127  0.6604  0.2866  0.2416
   11MOL    C41 1261   3.117   2.815   6.933  0.2963  0.2706 -0.0271
   11MOL    H42 1262   3.142   2.858   6.836 -0.7325 -1.2014 -0.9692
   11MOL    H43 1263   3.041   2.881   6.975 -0.9121  0.1824 -2.0149
   11MOL    C44 1264   3.077   2.666   6.915 -0.4726  0.0232 -0.4274
   11MOL    F45 1265   3.081   2.588   7.028 -0.3794  0.1398  0.3150
   11MOL    F46 1266   2.949   2.667   6.880 -0.2377  0.4209 -0.3233
   11MOL    C47 1267   3.160   2.603   6.807  0.3223  0.1954 -0.2272
   11MOL    H48 1268   3.265   2.610   6.834  0.1823  2.8881 -0.2344
   11MOL    H49 1269   3.133   2.662   6.720  1.8910 -1.4260 -1.8554
   11MOL    C50 1270   3.128   2.450   6.772 -0.4040 -0.2791 -0.0815
   11MOL    F51 1271   2.995   2.427   6.764 -0.2297  0.0844  0.1152
   11MOL    F52 1272   3.192   2.443   6.654 -0.6875  0.2680 -0.2623
   11MOL    C53 1273   3.188   2.362   6.880 -0.5095  0.3436 -0.1332
   11MOL    H54 1274   3.115   2.359   6.961  0.8562  1.0561  1.1501
   11MOL    H55 1275   3.279   2.397   6.928  0.6721 -3.3313  0.4692
   11MOL    C56 1276   3.201   2.213   6.828 -1.0206 -0.0406  0.5737
   11MOL    F57 1277   3.227   2.152   6.940 -0.1562  0.1105  0.2558
   11MOL    F58 1278   3.080   2.176   6.794  0.0802 -0.0422 -0.3837
   11MOL    C59 1279   3.310   2.183   6.722  0.3928  0.2078 -1.4060
   11MOL    H60 1280   3.275   2.228   6.630 -1.7830  0.4789 -0.4749
   11MOL    H61 1281   3.319   2.076   6.707  0.3554  0.3410 -2.3858
   11MOL    C62 1282   3.453   2.233   6.750 -0.4841 -0.2919  0.2240
   11MOL    F63 1283   3.457   2.354   6.797 -0.4144 -0.1938  0.7872
   11MOL    F64 1284   3.509   2.153   6.844  0.8897  0.2811  0.1984
   11MOL    C65 1285   3.557   2.221   6.628  0.0374 -0.4069  0.0231
   11MOL    H66 1286   3.515   2.269   6.539 -1.1435 -0.1715  0.7004
   11MOL    H67 1287   3.559   2.123   6.579  0.5268 -0.0361 -0.7169
   11MOL    C68 1288   3.700   2.264   6.655 -0.4476  0.0780  0.8601
   11MOL    F69 1289   3.702   2.394   6.687 -0.1143 -0.6457  0.1794
   11MOL    F70 1290   3.752   2.206   6.756 -0.1478 -0.3579  0.1476
   11MOL    C71 1291   3.794   2.240   6.540  1.2825  0.5774 -0.0507
   11MOL    H72 1292   3.887   2.288   6.569  0.9703  0.1611  1.6780
   11MOL    H73 1293   3.764   2.303   6.456 -4.3591  1.1198  2.1796
   11MOL    C74 1294   3.818   2.102   6.488  0.7312  0.2006 -0.0929
   11MOL    F75 1295   3.843   2.025   6.587  0.1343  0.6351 -0.3933
   11MOL    F76 1296   3.706   2.061   6.424 -0.0565  0.3234  0.3464
   11MOL    C77 1297   3.931   2.098   6.383 -0.8252 -0.4182 -0.3666
   11MOL    H78 1298   3.946   1.991   6.367 -0.9911 -0.3070 -1.2362
   11MOL    H79 1299   4.022   2.135   6.430 -1.3811  0.4234  0.0647
   11MOL    C80 1300   3.922   2.180   6.255 -1.2333  0.5641  0.0995
   11MOL    F81 1301   3.797   2.177   6.219 -0.3274  0.5268  0.4179
   11MOL    F82 1302   3.953   2.312   6.274  0.2036  0.2037  0.5619
   11MOL    C83 1303   4.015   2.130   6.136  0.3334 -0.2340  0.5721
   11MOL    H84 1304   4.004   2.024   6.114  0.1709  0.0543 -0.7513
   11MOL    H85 1305   4.121   2.149   6.150  0.7457 -0.9222 -1.4988
   11MOL    C86 1306   3.988   2.212   6.010 -0.6490  0.0854 -0.0462
   11MOL    F87 1307   3.860   2.183   5.974  0.2656  0.4839  0.5004
   11MOL    F88 1308   4.010   2.346   6.027 -0.1599 -0.0448  0.4523
   11MOL    C89 1309   4.081   2.174   5.897  0.1666 -0.1927  0.6521
   11MOL    H90 1310   4.092   2.066   5.884  4.0221  0.1546  0.2099
   11MOL    H91 1311   4.180   2.212   5.922 -0.1153 -1.4330  3.8885
   11MOL    C92 1312   4.046   2.224   5.758  0.2322 -0.5711  0.0494
   11MOL    F93 1313   4.140   2.182   5.671  0.2732  0.0091  0.0772
   11MOL    F94 1314   3.927   2.167   5.720 -0.3783  0.1389 -0.0874
   11MOL    C95 1315   4.038   2.377   5.727  0.4346 -0.0212  0.2188
   11MOL    H96 1316   4.135   2.425   5.714  0.2589  0.3256  0.1809
   11MOL    H97 1317   3.985   2.433   5.805 -0.4667 -0.7667  0.1495
   11MOL    C98 1318   3.955   2.411   5.598  0.7865 -0.0776 -0.2159
   11MOL    F99 1319   3.971   2.311   5.511 -0.1546  0.4221  0.1227
   11MOL   F100 1320   3.832   2.422   5.644 -0.1054 -0.4630  0.3462
   11MOL   C101 1321   4.001   2.541   5.533 -0.6043 -0.3488  1.1267
   11MOL   H102 1322   4.105   2.534   5.501 -1.0549 -0.4329 -0.3802
   11MOL   H103 1323   4.008   2.627   5.599 -0.5521  1.6928 -1.4463
   11MOL   C104 1324   3.912   2.583   5.411  0.2769 -0.5316  0.1580
   11MOL   F105 1325   3.927   2.491   5.318 -0.3854 -0.0377 -0.2552
   11MOL   F106 1326   3.787   2.586   5.448  0.3005  0.3616  0.0012
   11MOL   C107 1327   3.936   2.719   5.342  0.2881  0.1821  0.2798
   11MOL   H108 1328   4.037   2.718   5.300 -0.3717 -0.6816 -1.3132
   11MOL   H109 1329   3.937   2.799   5.416  3.2456  0.6008 -0.1304
   11MOL   C110 1330   3.846   2.749   5.217 -0.6226  0.9496 -0.7739
   11MOL   F111 1331   3.874   2.654   5.120  0.2205  0.1170  0.0804
   11MOL   F112 1332   3.719   2.741   5.247 -0.7123  0.1628 -0.3164
   11MOL   C113 1333   3.889   2.883   5.169  0.3686  0.3826  0.7875
   11MOL   H114 1334   3.996   2.882   5.150 -0.0261  0.0220 -1.4785
   11MOL   H115 1335   3.885   2.957   5.249 -1.5124 -0.9185  1.9342
   11MOL   C116 1336   3.817   2.942   5.039  0.5023  0.1896 -0.0902
   11MOL   F117 1337   3.696   2.977   5.075 -0.4740  0.1427  0.4710
   11MOL   F118 1338   3.879   3.049   5.004  0.0775  0.1706  0.2724
   11MOL   C119 1339   3.808   2.850   4.916 -0.6160  0.7674 -0.2293
   11MOL   H120 1340   3.748   2.762   4.940 -2.2626  2.1738  0.8515
   11MOL   H121 1341   3.897   2.806   4.870 -1.2875 -1.6847  0.7205
   11MOL   H122 1342   3.759   2.897   4.831  0.7658 -0.1882 -1.5896
   12MOL     C1 1343   4.373   1.419   1.775 -0.7597 -0.5833  0.3287
   12MOL     F2 1344   4.396   1.454   1.647  0.5691  0.1424  0.0689
   12MOL     F3 1345   4.470   1.460   1.852  0.0127 -0.2175  0.4694
   12MOL     C4 1346   4.359   1.267   1.796 -0.5349  0.1000  0.7809
   12MOL     H5 1347   4.458   1.222   1.811 -0.6511 -0.0087  1.2448
   12MOL     H6 1348   4.334   1.227   1.698 -1.1322  0.4405  0.7983
   12MOL     H7 1349   4.287   1.472   1.817  0.4659 -0.1499  2.3766
   12MOL     C8 1350   4.268   1.213   1.905  0.4047 -0.7277  0.7953
   12MOL     F9 1351   4.304   1.085   1.913  0.4046  0.6691 -0.3621
   12MOL    F10 1352   4.285   1.274   2.017  0.1142  0.3017 -0.1696
   12MOL    C11 1353   4.117   1.223   1.872  0.3436 -0.3319 -0.1331
   12MOL    H12 1354   4.081   1.325   1.882 -1.1415 -1.0213  2.0383
   12MOL    H13 1355   4.070   1.174   1.958  0.4294 -1.0569 -0.4965
   12MOL    C14 1356   4.059   1.172   1.741  0.4154  0.0665  0.9885
   12MOL    F15 1357   3.923   1.178   1.762  0.0643  0.0196  0.0395
   12MOL    F16 1358   4.093   1.273   1.653 -0.0894  0.0655  0.1023
   12MOL    C17 1359   4.108   1.030   1.693  0.8915  0.3995 -0.2517
   12MOL    H18 1360   4.080   0.968   1.778  0.6972  0.6321 -0.1461
   12MOL    H19 1361   4.216   1.021   1.681  0.8280 -0.4326 -0.2609
   12MOL    C20 1362   4.023   0.965   1.582  0.2806  0.0437 -0.0923
   12MOL    F21 1363   3.895   0.953   1.628 -0.4604 -0.1753  0.0962
   12MOL    F22 1364   3.998   1.042   1.472 -0.1265 -0.2028  0.0501
   12MOL    C23 1365   4.070   0.822   1.537 -0.1135 -0.1810 -0.1521
   12MOL    H24 1366   3.987   0.777   1.483  0.0715 -1.1855  0.3934
   12MOL    H25 1367   4.089   0.769   1.630  1.1861 -0.1497 -0.3929
   12MOL    C26 1368   4.196   0.815   1.456  0.0154 -0.6841 -0.0005
   12MOL    F27 1369   4.303   0.844   1.530  0.0796  0.3855 -0.5524
   12MOL    F28 1370   4.207   0.684   1.430 -0.3288  0.2904  0.1907
   12MOL    C29 1371   4.196   0.895   1.324  0.1489 -0.4876 -0.2134
   12MOL    H30 1372   4.181   1.001   1.343  1.4245 -0.0858 -1.3233
   12MOL    H31 1373   4.110   0.867   1.264 -0.6196 -1.8500  1.4791
   12MOL    C32 1374   4.324   0.889   1.236  0.2327  0.2511  0.0478
   12MOL    F33 1375   4.297   0.957   1.125  0.4665 -0.1521  0.2139
   12MOL    F34 1376   4.422   0.954   1.298  0.6362  0.2619  0.4282
   12MOL    C35 1377   4.376   0.748   1.197  0.4266  0.5338  0.1140
   12MOL    H36 1378   4.398   0.685   1.282  0.1943 -1.0506 -0.9752
   12MOL    H37 1379   4.470   0.764   1.144  2.3516 -0.7670  2.9997
   12MOL    C38 1380   4.290   0.671   1.105  0.4243 -0.4758 -0.4716
   12MOL    F39 1381   4.162   0.667   1.152  0.9109  0.2563  0.1849
   12MOL    F40 1382   4.289   0.735   0.991  0.0415 -0.3455 -0.4745
   12MOL    C41 1383   4.350   0.532   1.084 -0.3013 -0.3698  0.2418
   12MOL    H42 1384   4.334   0.465   1.169  1.0775 -0.1794  0.6704
   12MOL    H43 1385   4.456   0.551   1.068 -0.4050 -0.5177 -0.6100
   12MOL    C44 1386   4.284   0.437   0.980  0.3803  0.3139 -0.1430
   12MOL    F45 1387   4.339   0.319   0.997  0.6547  0.1404  0.2506
   12MOL    F46 1388   4.152   0.427   0.999  0.8381 -0.0042 -0.3506
   12MOL    C47 1389   4.293   0.472   0.831  0.1106  0.4726 -0.0682
   12MOL    H48 1390   4.230   0.554   0.796 -1.5164 -1.2738 -1.2756
   12MOL    H49 1391   4.250   0.389   0.775  1.3193 -0.2635  0.0644
   12MOL    C50 1392   4.438   0.487   0.768 -0.1867  0.9887  0.9455
   12MOL    F51 1393   4.505   0.579   0.838 -0.1346 -0.0446 -0.4138
   12MOL    F52 1394   4.504   0.372   0.793 -0.6330 -0.0204  0.5899
   12MOL    C53 1395   4.438   0.526   0.622  0.0074 -0.3068 -0.1204
   12MOL    H54 1396   4.378   0.617   0.608 -0.9996 -0.8940  0.3163
   12MOL    H55 1397   4.376   0.452   0.572  0.1186  0.3021 -1.1875
   12MOL    C56 1398   4.574   0.536   0.552  0.3650  0.0858  0.1534
   12MOL    F57 1399   4.636   0.637   0.608  0.0507  0.1142  0.0795
   12MOL    F58 1400   4.638   0.425   0.578  0.5154  0.3517 -0.0798
   12MOL    C59 1401   4.562   0.556   0.403 -0.1719  0.6208 -0.0083
   12MOL    H60 1402   4.509   0.652   0.401 -0.5267  0.4690  1.5863
   12MOL    H61 1403   4.501   0.484   0.349  1.9662 -2.8752  2.0668
   12MOL    C62 1404   4.688   0.573   0.326 -0.2302 -0.0021 -0.3348
   12MOL    F63 1405   4.662   0.631   0.206  0.3327 -0.0761  0.1398
   12MOL    F64 1406   4.763   0.665   0.397 -0.1134 -0.0813 -0.0603
   12MOL    C65 1407   4.779   0.445   0.310 -0.9419 -0.1810  0.2802
   12MOL    H66 1408   4.712   0.371   0.268 -0.2644 -1.0013  0.6418
   12MOL    H67 1409   4.809   0.400   0.404  1.9324 -2.1291 -1.4887
   12MOL    C68 1410   4.912   0.455   0.231 -1.0667  0.1160  0.5085
   12MOL    F69 1411   4.970   0.335   0.253 -0.6521  0.3640 -0.4647
   12MOL    F70 1412   4.882   0.470   0.105 -0.4859 -0.5993 -0.2090
   12MOL    C71 1413   5.010   0.561   0.278  0.8142  0.4865  0.6033
   12MOL    H72 1414   5.010   0.554   0.387 -0.2025 -2.2931  0.4633
   12MOL    H73 1415   4.975   0.664   0.264 -0.3096 -0.0969 -1.0704
   12MOL    C74 1416   5.154   0.546   0.213  0.6196 -0.1497 -0.0904
   12MOL    F75 1417   5.238   0.632   0.273 -0.3408 -0.3768 -0.1627
   12MOL    F76 1418   5.198   0.427   0.246  0.1955  0.9561 -0.3342
   12MOL    C77 1419   5.159   0.554   0.053 -0.3059 -0.3248 -0.3282
   12MOL    H78 1420   5.100   0.469   0.017 -0.6273 -0.2816  0.0839
   12MOL    H79 1421   5.260   0.520   0.032 -0.1005  0.1775 -0.1668
   12MOL    C80 1422   5.119   0.689   8.343  0.5072  0.1343  0.1607
   12MOL    F81 1423   4.987   0.725   0.015  0.3829 -0.1118 -0.1106
   12MOL    F82 1424   5.192   0.782   0.056  0.5912  0.2303  0.3497
   12MOL    C83 1425   5.164   0.693   8.190  0.3526  0.8200  0.2279
   12MOL    H84 1426   5.266   0.655   8.189 -0.5249 -1.6596  1.1246
   12MOL    H85 1427   5.171   0.792   8.146  0.0317  1.7818  2.2800
   12MOL    C86 1428   5.098   0.598   8.093 -0.7673 -0.1725  0.7644
   12MOL    F87 1429   5.116   0.473   8.133 -0.2962 -0.0053  0.4393
   12MOL    F88 1430   4.974   0.623   8.091 -0.3600 -0.3156  0.6082
   12MOL    C89 1431   5.149   0.622   7.944  0.0002  0.3459 -0.1540
   12MOL    H90 1432   5.258   0.625   7.951 -0.0496  3.1876  0.0248
   12MOL    H91 1433   5.119   0.723   7.914  0.2461  0.8013  1.0954
   12MOL    C92 1434   5.123   0.514   7.838 -0.0306 -0.3672 -0.1441
   12MOL    F93 1435   5.166   0.556   7.714 -0.3027  0.6348  0.4207
   12MOL    F94 1436   5.191   0.402   7.870 -0.1808  0.0329 -0.1345
   12MOL    C95 1437   4.978   0.475   7.822  0.0852  0.2553  0.4331
   12MOL    H96 1438   4.923   0.569   7.819 -1.4072 -0.5977  0.2393
   12MOL    H97 1439   4.948   0.424   7.914 -1.1359 -1.2357 -0.7614
   12MOL    C98 1440   4.939   0.390   7.707 -0.1848  0.3460 -0.1247
   12MOL    F99 1441   4.970   0.442   7.590  0.0891  0.6105  0.5067
   12MOL   F100 1442   4.995   0.267   7.714  0.3438 -0.2851 -0.5109
   12MOL   C101 1443   4.790   0.364   7.703 -0.2897 -0.3669 -0.1476
   12MOL   H102 1444   4.771   0.297   7.786 -1.0267  0.3921  0.3092
   12MOL   H103 1445   4.767   0.325   7.604 -0.2190  2.1163 -1.1876
   12MOL   C104 1446   4.694   0.491   7.711 -0.9867  0.1538 -0.1967
   12MOL   F105 1447   4.681   0.535   7.836 -0.0595  0.3783 -0.5665
   12MOL   F106 1448   4.732   0.594   7.632  0.1103 -0.0844 -0.1803
   12MOL   C107 1449   4.552   0.448   7.684 -0.8715 -0.6235  0.5625
   12MOL   H108 1450   4.549   0.422   7.578  1.7479 -0.5601  0.4488
   12MOL   H109 1451   4.501   0.544   7.699  0.9984  0.0753  2.7121
   12MOL   C110 1452   4.477   0.337   7.760  0.1636 -0.9407  0.0747
   12MOL   F111 1453   4.547   0.216   7.765 -0.7278  0.3657 -0.1240
   12MOL   F112 1454   4.439   0.377   7.883 -0.2895  0.2064  0.1111
   12MOL   C113 1455   4.347   0.306   7.678  0.8894 -1.0597 -0.0257
   12MOL   H114 1456   4.375   0.268   7.580 -0.6326  0.6297 -1.1421
   12MOL   H115 1457   4.299   0.402   7.657 -2.4457 -2.6104  0.2060
   12MOL   C116 1458   4.242   0.205   7.725  0.3061  0.0531  0.1373
   12MOL   F117 1459   4.304   0.090   7.738 -0.3297  0.1586  0.0355
   12MOL   F118 1460   4.175   0.237   7.838  0.4043  0.2313 -0.2206
   12MOL   C119 1461   4.145   0.170   7.612 -0.0362 -0.0594  0.5035
   12MOL   H120 1462   4.089   0.077   7.625 -0.8138  0.4194  0.5596
   12MOL   H121 1463   4.184   0.184   7.512  1.3908  0.5662  1.1253
   12MOL   H122 1464   4.064   0.240   7.625 -0.3035 -0.6478  2.2852
   13MOL     C1 1465   2.576   5.131   5.713  0.3026 -0.0860  0.2493
   13MOL     F2 1466   2.659   5.214   5.776 -0.0675 -0.0840  0.8505
   13MOL     F3 1467   2.459   5.125   5.779 -0.4496  0.4409  0.3102
   13MOL     C4 1468   2.652   4.995   5.686  0.2750 -0.3236 -0.0433
   13MOL     H5 1469   2.574   4.919   5.681  2.8597 -3.1198  1.0262
   13MOL     H6 1470   2.715   4.977   5.773 -0.2555 -1.8103  0.0350
   13MOL     H7 1471   2.555   5.182   5.618  0.0238 -0.8557 -0.1064
   13MOL     C8 1472   2.724   4.988   5.552 -0.3890 -0.5963  0.0883
   13MOL     F9 1473   2.767   4.864   5.560  0.8755 -0.1449 -0.0766
   13MOL    F10 1474   2.639   5.011   5.452  0.0078  0.0032 -0.0576
   13MOL    C11 1475   2.850   5.087   5.535  0.4644  0.6511 -0.1620
   13MOL    H12 1476   2.929   5.066   5.608  0.7763  0.8556 -0.4412
   13MOL    H13 1477   2.819   5.190   5.550 -0.5920  0.4589 -0.9711
   13MOL    C14 1478   2.915   5.100   5.398 -0.0433 -0.1310  0.3223
   13MOL    F15 1479   2.832   5.156   5.314  0.1658  0.2232  0.1004
   13MOL    F16 1480   3.018   5.186   5.424  0.5553  0.1688  0.3564
   13MOL    C17 1481   2.962   4.957   5.340 -0.7859  0.4163 -0.0532
   13MOL    H18 1482   2.880   4.893   5.307  0.3551 -0.3006 -1.5474
   13MOL    H19 1483   2.991   4.891   5.422  0.3190  2.1869  1.0070
   13MOL    C20 1484   3.078   4.964   5.230 -0.6238  0.0799 -0.4084
   13MOL    F21 1485   3.174   5.045   5.272  0.5639 -0.2550 -0.2680
   13MOL    F22 1486   3.122   4.838   5.211 -0.7879 -0.0493  0.9962
   13MOL    C23 1487   3.028   5.016   5.099  0.6591 -1.0624 -0.2965
   13MOL    H24 1488   2.954   5.096   5.104  2.2129  0.3896 -0.1532
   13MOL    H25 1489   2.960   4.936   5.068 -0.5512 -0.1846  0.0655
   13MOL    C26 1490   3.140   5.050   5.000  0.2140 -0.4567  0.0757
   13MOL    F27 1491   3.067   5.086   4.890 -1.0200  0.3862 -0.3712
   13MOL    F28 1492   3.205   5.162   5.041  0.6349  0.4586 -0.5312
   13MOL    C29 1493   3.233   4.932   4.959  0.0289 -0.1526 -0.2031
   13MOL    H30 1494   3.172   4.843   4.942  1.8250 -1.6803  1.1065
   13MOL    H31 1495   3.302   4.909   5.040  0.8275  0.5107 -0.6818
   13MOL    C32 1496   3.319   4.956   4.827  0.2915 -1.1247  0.3066
   13MOL    F33 1497   3.417   4.871   4.826  0.3988 -0.1582 -0.3493
   13MOL    F34 1498   3.240   4.943   4.721  0.3338 -0.4233  0.1167
   13MOL    C35 1499   3.385   5.102   4.834  0.4337 -0.1009  0.2168
   13MOL    H36 1500   3.426   5.127   4.932 -1.3739 -1.3199  1.3041
   13MOL    H37 1501   3.311   5.178   4.810  0.7211  0.3967  0.9130
   13MOL    C38 1502   3.491   5.119   4.720  0.0985 -0.2018  0.6940
   13MOL    F39 1503   3.596   5.040   4.754 -0.4853 -0.4355 -0.0801
   13MOL    F40 1504   3.449   5.068   4.605  0.5865 -0.4399  0.0957
   13MOL    C41 1505   3.533   5.261   4.681  0.1760 -0.0214  0.1384
   13MOL    H42 1506   3.445   5.308   4.637  1.5399  0.8574 -1.6760
   13MOL    H43 1507   3.609   5.262   4.603  0.4184  2.7963  0.3637
   13MOL    C44 1508   3.583   5.350   4.804  0.4070 -0.3172 -0.1307
   13MOL    F45 1509   3.472   5.384   4.874 -0.2052 -0.6350 -0.3263
   13MOL    F46 1510   3.670   5.285   4.882 -0.1401  0.7024 -0.0061
   13MOL    C47 1511   3.646   5.483   4.758 -0.2011  0.7650 -0.0088
   13MOL    H48 1512   3.583   5.528   4.681 -1.0311  0.9342  0.7567
   13MOL    H49 1513   3.736   5.457   4.703 -1.1784 -3.0870  0.0484
   13MOL    C50 1514   3.682   5.588   4.867  0.3922 -0.7157 -0.5178
   13MOL    F51 1515   3.592   5.602   4.958 -0.5899 -0.1672 -0.0829
   13MOL    F52 1516   3.785   5.535   4.932  0.4683  0.0588 -0.1013
   13MOL    C53 1517   3.729   5.732   4.822 -0.6594  0.0959 -0.3951
   13MOL    H54 1518   3.804   5.710   4.747  1.6262 -0.0448  1.8631
   13MOL    H55 1519   3.780   5.795   4.894 -1.0132 -0.1854  0.1050
   13MOL    C56 1520   3.604   5.812   4.775  0.5108 -0.2446  0.3740
   13MOL    F57 1521   3.521   5.742   4.702  0.0746  0.2474  0.4164
   13MOL    F58 1522   3.529   5.840   4.885  0.4174  0.3957  0.1893
   13MOL    C59 1523   3.633   5.945   4.703  0.1922 -0.5917 -0.1511
   13MOL    H60 1524   3.535   5.988   4.680  0.5647  0.8652  0.9374
   13MOL    H61 1525   3.666   5.926   4.601 -1.0214  1.2693 -0.9126
   13MOL    C62 1526   3.726   6.050   4.763  0.6759  0.2984  0.3110
   13MOL    F63 1527   3.849   5.998   4.755 -0.3728 -0.1712  0.0466
   13MOL    F64 1528   3.729   6.163   4.689  0.4023  0.3607 -0.3962
   13MOL    C65 1529   3.682   6.085   4.903  0.2356 -0.4828  0.7413
   13MOL    H66 1530   3.716   6.005   4.968  0.9007  1.6592  3.1255
   13MOL    H67 1531   3.574   6.082   4.920  0.0076  2.8894  0.2218
   13MOL    C68 1532   3.741   6.217   4.963  0.0909 -0.2723  0.2674
   13MOL    F69 1533   3.870   6.230   4.935  0.0635  0.2656  0.4269
   13MOL    F70 1534   3.673   6.326   4.911 -0.4703  0.3664 -0.0582
   13MOL    C71 1535   3.720   6.217   5.116  0.8921 -0.4740 -0.3230
   13MOL    H72 1536   3.803   6.151   5.143  0.9984  0.2353  1.1844
   13MOL    H73 1537   3.623   6.181   5.149 -0.0288  0.7667 -1.6616
   13MOL    C74 1538   3.752   6.357   5.190 -0.0104 -0.3694 -0.3520
   13MOL    F75 1539   3.750   6.331   5.325  0.2218  0.1075 -0.2352
   13MOL    F76 1540   3.875   6.404   5.171 -0.6624  0.2290  0.1263
   13MOL    C77 1541   3.662   6.481   5.151  0.3302  0.1064 -0.1875
   13MOL    H78 1542   3.667   6.507   5.045 -1.0529 -2.8173 -1.0436
   13MOL    H79 1543   3.717   6.559   5.203 -0.8354  1.5345 -1.0544
   13MOL    C80 1544   3.516   6.480   5.211 -0.0228  0.3822  0.1628
   13MOL    F81 1545   3.451   6.373   5.165  0.5060 -0.2728 -0.4179
   13MOL    F82 1546   3.510   6.464   5.340  0.6952 -0.5225 -0.3901
   13MOL    C83 1547   3.446   6.607   5.171  0.8173 -0.7906  0.2657
   13MOL    H84 1548   3.418   6.615   5.066 -1.3539 -2.1173  0.7076
   13MOL    H85 1549   3.512   6.690   5.198  0.2263 -0.0802 -0.4352
   13MOL    C86 1550   3.313   6.641   5.234  0.0703 -0.0734 -0.5959
   13MOL    F87 1551   3.337   6.669   5.357 -0.3765 -0.8085  0.2644
   13MOL    F88 1552   3.272   6.758   5.181 -0.0902  0.3857  0.5749
   13MOL    C89 1553   3.200   6.530   5.226 -0.3420  0.2560 -0.0149
   13MOL    H90 1554   3.235   6.435   5.267 -1.4776  0.1578  0.7342
   13MOL    H91 1555   3.172   6.517   5.122 -0.4347  0.1032  0.0296
   13MOL    C92 1556   3.066   6.579   5.288  0.0194 -0.4006  0.2032
   13MOL    F93 1557   3.032   6.684   5.216 -0.7996 -0.1856  0.1984
   13MOL    F94 1558   2.989   6.477   5.265 -0.1351  1.0320  0.1805
   13MOL    C95 1559   3.085   6.610   5.443 -0.0483 -0.1477 -1.0219
   13MOL    H96 1560   3.114   6.714   5.437  0.3223 -0.2977 -2.1025
   13MOL    H97 1561   3.167   6.549   5.482  0.2186  2.0064  1.9100
   13MOL    C98 1562   2.962   6.604   5.528 -0.0100 -0.2841 -0.3291
   13MOL    F99 1563   2.928   6.476   5.538 -0.0528 -0.2520 -0.1797
   13MOL   F100 1564   2.995   6.652   5.650 -0.2862 -0.0437  0.0815
   13MOL   C101 1565   2.836   6.669   5.473 -0.1292 -0.1189  0.5321
   13MOL   H102 1566   2.815   6.613   5.382  0.8754  0.7858 -0.2561
   13MOL   H103 1567   2.854   6.767   5.430  0.5009 -0.1897  0.6380
   13MOL   C104 1568   2.714   6.696   5.573 -0.0090 -0.7052  0.7376
   13MOL   F105 1569   2.602   6.728   5.505 -0.2655  0.3160 -0.5551
   13MOL   F106 1570   2.693   6.579   5.639 -0.4893 -0.6823  0.5604
   13MOL   C107 1571   2.735   6.800   5.682 -0.2295 -0.5265  0.2836
   13MOL   H108 1572   2.808   6.780   5.761 -1.4992  0.7444  1.8133
   13MOL   H109 1573   2.641   6.796   5.737  1.6655 -1.0407  3.6674
   13MOL   C110 1574   2.755   6.950   5.643  0.0585  0.0265 -0.1753
   13MOL   F111 1575   2.876   6.954   5.588  0.0935 -0.3133  0.1732
   13MOL   F112 1576   2.670   6.986   5.545  0.1995  0.1658 -0.3018
   13MOL   C113 1577   2.752   7.046   5.766  0.1085 -0.3944  0.7321
   13MOL   H114 1578   2.849   7.035   5.816  0.5662 -0.6766 -0.2134
   13MOL   H115 1579   2.673   7.016   5.835 -1.4869  1.2097 -0.3635
   13MOL   C116 1580   2.743   7.195   5.723  0.0096 -0.3163  0.3331
   13MOL   F117 1581   2.862   7.230   5.669  0.8532 -0.2723  0.1553
   13MOL   F118 1582   2.643   7.225   5.641  0.0498 -0.0371  0.4749
   13MOL   C119 1583   2.723   7.282   5.853 -0.0542  0.2270 -0.3879
   13MOL   H120 1584   2.799   7.261   5.929 -1.0100 -1.1268  0.2122
   13MOL   H121 1585   2.628   7.265   5.904  0.7800  0.2226  1.1891
   13MOL   H122 1586   2.710   7.389   5.834 -2.3927  0.2322  1.0907
   14MOL     C1 1587   1.207   7.522   2.154 -0.3075  0.8314 -0.0926
   14MOL     F2 1588   1.105   7.520   2.069  0.5017  0.1730 -0.2539
   14MOL     F3 1589   1.240   7.650   2.164 -0.0691 -0.1428 -0.0649
   14MOL     C4 1590   1.324   7.439   2.105 -0.8734  0.0269  0.6819
   14MOL     H5 1591   1.416   7.477   2.149  0.4003 -1.0423 -1.0021
   14MOL     H6 1592   1.337   7.454   1.998  1.5518  1.9646  1.2119
   14MOL     H7 1593   1.180   7.505   2.258  1.5295 -0.3712  0.2121
   14MOL     C8 1594   1.297   7.296   2.144 -0.0044 -0.2633 -0.2620
   14MOL     F9 1595   1.289   7.291   2.279 -0.4064 -0.5583  0.2511
   14MOL    F10 1596   1.190   7.243   2.083 -0.4406  0.9359  0.3538
   14MOL    C11 1597   1.412   7.199   2.108 -0.1424  0.2397 -0.2312
   14MOL    H12 1598   1.381   7.095   2.123  0.6677  0.0144 -0.0779
   14MOL    H13 1599   1.490   7.221   2.181  0.7041  0.8056 -1.2939
   14MOL    C14 1600   1.477   7.208   1.965 -0.5091 -0.0467 -0.2659
   14MOL    F15 1601   1.377   7.194   1.876 -0.0198  0.1111  0.6681
   14MOL    F16 1602   1.530   7.324   1.949  0.1750 -0.1017  0.4365
   14MOL    C17 1603   1.595   7.116   1.944 -0.1984  0.2414 -0.3049
   14MOL    H18 1604   1.570   7.026   2.000 -4.0030  1.0266 -0.6008
   14MOL    H19 1605   1.676   7.162   2.001 -1.2843  1.8916 -0.0451
   14MOL    C20 1606   1.640   7.096   1.799 -0.0391 -0.3251  0.1136
   14MOL    F21 1607   1.546   7.062   1.717 -0.0125 -0.0502 -0.3020
   14MOL    F22 1608   1.686   7.219   1.759 -0.2187  0.2777  0.2487
   14MOL    C23 1609   1.759   7.009   1.772  0.1129  0.7922 -0.0441
   14MOL    H24 1610   1.786   7.033   1.669 -0.7634 -0.8116 -0.6763
   14MOL    H25 1611   1.731   6.904   1.770  0.8528  0.4375  3.8618
   14MOL    C26 1612   1.886   7.015   1.854  0.2839  0.0108 -1.1085
   14MOL    F27 1613   1.938   7.133   1.842  0.0888  0.2322  0.1131
   14MOL    F28 1614   1.855   7.000   1.983  0.3647  0.3454  0.3613
   14MOL    C29 1615   1.998   6.919   1.812  0.8703  0.6576  0.1541
   14MOL    H30 1616   2.015   6.937   1.706  2.9898  0.2137  0.4048
   14MOL    H31 1617   1.956   6.819   1.819  1.5740  0.1905 -1.9588
   14MOL    C32 1618   2.123   6.911   1.908  0.4724 -1.0004  0.2615
   14MOL    F33 1619   2.080   6.851   2.017  0.3260  0.0777  0.6258
   14MOL    F34 1620   2.214   6.831   1.857  0.0868  0.4355 -0.0055
   14MOL    C35 1621   2.191   7.048   1.952  0.3058 -0.2042  0.5205
   14MOL    H36 1622   2.111   7.099   2.005 -1.5434  0.1854 -2.5369
   14MOL    H37 1623   2.216   7.107   1.864  0.7023 -0.6616  0.3218
   14MOL    C38 1624   2.323   7.025   2.031 -0.8387  0.3661  0.1923
   14MOL    F39 1625   2.338   7.146   2.084  0.3527 -0.4811  0.3740
   14MOL    F40 1626   2.299   6.941   2.130 -0.2302  0.2853 -0.0490
   14MOL    C41 1627   2.449   6.982   1.952  0.0660 -0.0553  0.0694
   14MOL    H42 1628   2.447   7.027   1.853  0.3659  1.0559  0.5542
   14MOL    H43 1629   2.437   6.874   1.947 -0.7677  0.1262 -3.1589
   14MOL    C44 1630   2.583   7.010   2.026 -0.4676 -0.0982  0.8069
   14MOL    F45 1631   2.676   6.973   1.935 -0.1955 -0.4462  0.1126
   14MOL    F46 1632   2.599   7.145   2.034 -0.8590  0.5343  0.0066
   14MOL    C47 1633   2.612   6.944   2.163  0.6610 -0.4565  0.2661
   14MOL    H48 1634   2.593   6.837   2.169 -1.1842 -0.1320  0.5319
   14MOL    H49 1635   2.537   6.977   2.236 -1.2834 -3.3135 -0.3450
   14MOL    C50 1636   2.753   6.966   2.224 -0.5478  0.9941  0.5819
   14MOL    F51 1637   2.850   6.933   2.140 -0.1194  0.2264  0.2345
   14MOL    F52 1638   2.764   7.094   2.248  0.2036  0.7498  0.6386
   14MOL    C53 1639   2.790   6.891   2.350 -0.7223  0.6418  0.3073
   14MOL    H54 1640   2.719   6.919   2.428  0.4152  0.3904  1.4632
   14MOL    H55 1641   2.885   6.934   2.384 -0.5771 -0.5784  1.4856
   14MOL    C56 1642   2.803   6.735   2.339  0.6683 -0.0309  0.0408
   14MOL    F57 1643   2.696   6.670   2.299 -0.1546 -0.0184 -0.1805
   14MOL    F58 1644   2.894   6.711   2.248  0.0365  0.0987  0.0991
   14MOL    C59 1645   2.851   6.662   2.464  0.1930 -0.5989  0.5367
   14MOL    H60 1646   2.828   6.557   2.446 -0.2754 -0.2096 -1.2355
   14MOL    H61 1647   2.791   6.695   2.549 -0.3637 -2.0196  0.6979
   14MOL    C62 1648   2.993   6.679   2.513 -0.3547  0.3077  0.9019
   14MOL    F63 1649   3.083   6.641   2.423 -0.2603 -0.2158  0.4037
   14MOL    F64 1650   3.006   6.809   2.520 -0.1013 -0.1632 -0.0562
   14MOL    C65 1651   3.015   6.602   2.645 -0.1952 -0.2154  0.2397
   14MOL    H66 1652   3.002   6.494   2.629  1.9265 -0.6985  1.6307
   14MOL    H67 1653   2.945   6.651   2.713  1.0878  0.5652  1.0007
   14MOL    C68 1654   3.154   6.618   2.704  0.2103 -0.3642  0.3612
   14MOL    F69 1655   3.240   6.535   2.633  0.8489  0.6511  0.1788
   14MOL    F70 1656   3.193   6.742   2.677 -0.1481 -0.0823  0.0418
   14MOL    C71 1657   3.170   6.573   2.851 -0.3371  0.0414  0.7792
   14MOL    H72 1658   3.278   6.563   2.867 -0.1266  0.8825 -0.0594
   14MOL    H73 1659   3.121   6.475   2.852  3.2826 -1.9153 -1.7777
   14MOL    C74 1660   3.099   6.652   2.965 -0.3653 -0.0894  0.7223
   14MOL    F75 1661   2.969   6.638   2.943 -0.1212  0.5449 -0.2225
   14MOL    F76 1662   3.125   6.586   3.076  0.4999  0.5467  0.5557
   14MOL    C77 1663   3.142   6.804   2.974  0.3009  0.2681  0.2818
   14MOL    H78 1664   3.112   6.852   2.881 -1.5252  1.7496  1.6213
   14MOL    H79 1665   3.251   6.811   2.982  0.3440 -2.3146  2.6483
   14MOL    C80 1666   3.096   6.868   3.101 -0.0691  1.1173  1.2804
   14MOL    F81 1667   2.966   6.854   3.121  0.4363 -0.0370 -0.3309
   14MOL    F82 1668   3.148   6.812   3.207  0.1813 -0.6308 -0.1727
   14MOL    C83 1669   3.116   7.020   3.115 -0.3422 -0.6748 -0.0910
   14MOL    H84 1670   3.066   7.048   3.207  0.7987  0.3397  0.2314
   14MOL    H85 1671   3.059   7.065   3.035 -0.3553 -1.5746 -0.6033
   14MOL    C86 1672   3.264   7.065   3.120 -0.3059  0.5427  0.2133
   14MOL    F87 1673   3.330   6.985   3.193 -0.1047  0.3001 -0.0957
   14MOL    F88 1674   3.322   7.069   2.997  0.4629  0.2256 -0.5064
   14MOL    C89 1675   3.280   7.208   3.176  0.4171  0.3782 -0.1431
   14MOL    H90 1676   3.386   7.234   3.182  0.5028  0.1148 -0.5199
   14MOL    H91 1677   3.239   7.206   3.278 -1.4840  1.2673 -0.8682
   14MOL    C92 1678   3.214   7.332   3.108 -0.0274  0.0046 -0.3495
   14MOL    F93 1679   3.080   7.322   3.117 -1.0096  0.0922  0.5319
   14MOL    F94 1680   3.245   7.447   3.172 -0.1816 -0.2035 -0.8249
   14MOL    C95 1681   3.250   7.358   2.961 -0.2346  0.2303  0.3869
   14MOL    H96 1682   3.195   7.444   2.921 -1.1592  0.6476  2.4964
   14MOL    H97 1683   3.221   7.275   2.897  1.6718  0.7047 -1.1415
   14MOL    C98 1684   3.398   7.396   2.945  0.4177 -0.3881  0.1399
   14MOL    F99 1685   3.419   7.505   3.009 -0.0943 -0.2233 -0.2717
   14MOL   F100 1686   3.476   7.303   2.982 -0.1829 -0.2145 -0.2343
   14MOL   C101 1687   3.429   7.419   2.795 -0.5521  0.1905  0.7791
   14MOL   H102 1688   3.342   7.449   2.738  0.2644  0.2979 -0.4181
   14MOL   H103 1689   3.453   7.326   2.744 -0.4806  0.1983  0.7979
   14MOL   C104 1690   3.558   7.504   2.777  0.8653 -0.6164 -0.7342
   14MOL   F105 1691   3.593   7.479   2.652 -0.0013  0.4566 -0.4048
   14MOL   F106 1692   3.523   7.629   2.766  0.2678  0.0742  0.8795
   14MOL   C107 1693   3.682   7.483   2.874  0.1386 -0.2850  0.2596
   14MOL   H108 1694   3.686   7.378   2.900  1.0924 -0.6795 -1.3969
   14MOL   H109 1695   3.667   7.546   2.962  1.5637 -0.2057  0.4665
   14MOL   C110 1696   3.822   7.525   2.822  0.4393  0.1461  0.9749
   14MOL   F111 1697   3.841   7.442   2.715  0.1387  0.5497  0.4697
   14MOL   F112 1698   3.827   7.650   2.785  0.2024  0.3729  0.4424
   14MOL   C113 1699   3.936   7.507   2.928 -0.2477  0.2994 -0.6384
   14MOL   H114 1700   3.921   7.586   3.002 -0.6205  1.7271 -2.2249
   14MOL   H115 1701   4.033   7.527   2.883  0.0468 -0.0008 -0.1360
   14MOL   C116 1702   3.949   7.375   3.001 -0.2353  0.1195  0.2183
   14MOL   F117 1703   3.839   7.349   3.071  0.0007  0.2919  0.1498
   14MOL   F118 1704   3.978   7.274   2.918  0.6855  0.2511 -0.2515
   14MOL   C119 1705   4.050   7.388   3.114  0.9542  0.1077 -0.0507
   14MOL   H120 1706   4.142   7.434   3.076 -0.2045  1.7435 -0.9465
   14MOL   H121 1707   4.066   7.295   3.168 -1.2780 -0.3049 -0.0601
   14MOL   H122 1708   4.012   7.464   3.182  0.9052  0.7063 -0.7323
   15MOL     C1 1709   3.037   2.598   4.953  0.3646  0.0650  0.0857
   15MOL     F2 1710   3.095   2.485   4.999 -0.1056 -0.3870 -0.0382
   15MOL     F3 1711   3.098   2.714   4.990 -0.2441 -0.0307  0.0983
   15MOL     C4 1712   2.892   2.607   5.004 -0.6186 -0.2376  0.2924
   15MOL     H5 1713   2.842   2.688   4.951  0.5337  0.8112  0.7839
   15MOL     H6 1714   2.878   2.627   5.110 -1.5470 -2.0691  0.5308
   15MOL     H7 1715   3.049   2.605   4.845 -2.2487  1.6039 -0.1308
   15MOL     C8 1716   2.801   2.490   4.962 -0.0597  0.1040 -0.5692
   15MOL     F9 1717   2.795   2.468   4.826 -0.4814 -0.6127 -0.6070
   15MOL    F10 1718   2.863   2.392   5.025 -0.4546 -0.4478  0.3590
   15MOL    C11 1719   2.661   2.516   5.011  0.2217  0.5987  0.6978
   15MOL    H12 1720   2.635   2.613   4.968  0.5930 -0.2453 -1.5443
   15MOL    H13 1721   2.670   2.511   5.119 -0.5741  0.5861  0.7643
   15MOL    C14 1722   2.554   2.403   4.974 -0.0733  0.0187 -0.0873
   15MOL    F15 1723   2.438   2.437   5.024  0.3257 -0.3498  0.4685
   15MOL    F16 1724   2.541   2.398   4.842 -0.3106 -0.1604 -0.3099
   15MOL    C17 1725   2.605   2.262   5.024 -0.2110 -0.4378 -0.8372
   15MOL    H18 1726   2.642   2.284   5.123 -2.6047  1.0541 -0.2413
   15MOL    H19 1727   2.681   2.219   4.958  2.2816  1.6745  0.5736
   15MOL    C20 1728   2.486   2.157   5.025 -0.3105  0.4592 -0.0243
   15MOL    F21 1729   2.441   2.148   4.903  0.1330 -0.3263  0.0812
   15MOL    F22 1730   2.558   2.041   5.056 -0.0723  0.2873  0.1536
   15MOL    C23 1731   2.373   2.178   5.125  0.2175  0.4899 -0.2271
   15MOL    H24 1732   2.300   2.255   5.102  0.2988  0.5685 -0.2220
   15MOL    H25 1733   2.421   2.187   5.222 -0.8195 -2.4970  0.6154
   15MOL    C26 1734   2.285   2.054   5.141 -0.1901  0.8331 -0.6301
   15MOL    F27 1735   2.245   2.024   5.012 -0.3192  0.6572 -0.1603
   15MOL    F28 1736   2.350   1.949   5.190 -0.2218 -0.3430 -0.0961
   15MOL    C29 1737   2.145   2.075   5.208 -0.0125 -0.5426 -0.7686
   15MOL    H30 1738   2.072   1.998   5.184  0.3823 -0.7690 -1.2453
   15MOL    H31 1739   2.107   2.169   5.166 -2.7432 -1.3448 -0.1752
   15MOL    C32 1740   2.155   2.083   5.360 -0.1204  0.2681 -0.2183
   15MOL    F33 1741   2.214   1.975   5.401 -0.5203  0.1500 -0.7038
   15MOL    F34 1742   2.237   2.186   5.377  0.1246  1.2272 -0.5405
   15MOL    C35 1743   2.024   2.102   5.441 -0.5191 -0.5802 -0.3012
   15MOL    H36 1744   2.051   2.128   5.543 -0.6421  0.3720 -0.5125
   15MOL    H37 1745   1.970   2.007   5.451 -1.2210 -0.2682 -1.0640
   15MOL    C38 1746   1.917   2.198   5.391  0.1330  1.0571 -0.3194
   15MOL    F39 1747   1.964   2.323   5.375  0.0082 -0.2472 -0.2498
   15MOL    F40 1748   1.884   2.143   5.272  0.4413  0.2494 -0.2897
   15MOL    C41 1749   1.795   2.192   5.487 -0.0767 -0.0096 -0.0487
   15MOL    H42 1750   1.818   2.248   5.578  1.3228  0.8609 -0.9238
   15MOL    H43 1751   1.782   2.093   5.530 -1.4180 -0.9205 -2.4524
   15MOL    C44 1752   1.662   2.243   5.421 -0.7877 -0.7727  0.2653
   15MOL    F45 1753   1.694   2.342   5.335  0.2766 -0.0202  0.0272
   15MOL    F46 1754   1.615   2.144   5.349 -0.9013  0.1963 -0.8346
   15MOL    C47 1755   1.540   2.283   5.500  0.1042 -0.4499 -0.0382
   15MOL    H48 1756   1.509   2.195   5.558  1.9114  0.3183  2.1831
   15MOL    H49 1757   1.445   2.295   5.448 -0.1781  0.6067  0.6934
   15MOL    C50 1758   1.547   2.411   5.592 -0.0022  0.3093 -0.2909
   15MOL    F51 1759   1.423   2.425   5.638 -0.5532 -0.7516 -0.8460
   15MOL    F52 1760   1.623   2.383   5.697  0.0574  0.0986  0.1209
   15MOL    C53 1761   1.597   2.540   5.511  0.1604  0.3437 -0.2039
   15MOL    H54 1762   1.700   2.522   5.481  1.3857 -0.3337  3.9620
   15MOL    H55 1763   1.612   2.622   5.582 -2.1240  0.0053  0.6917
   15MOL    C56 1764   1.496   2.587   5.399  0.6455 -0.6779 -0.1433
   15MOL    F57 1765   1.468   2.487   5.315 -0.2558  0.5913 -0.3202
   15MOL    F58 1766   1.378   2.616   5.457  0.2159  0.0461  0.0567
   15MOL    C59 1767   1.533   2.713   5.322  0.3532 -0.4737 -0.3702
   15MOL    H60 1768   1.538   2.798   5.390  1.6759  0.6480 -1.8148
   15MOL    H61 1769   1.447   2.741   5.260  0.2004  2.3005  0.9969
   15MOL    C62 1770   1.668   2.705   5.244  0.5037 -0.7061 -0.0947
   15MOL    F63 1771   1.770   2.693   5.324 -0.1789  0.6846 -0.4387
   15MOL    F64 1772   1.670   2.593   5.171 -0.6404 -0.6224 -0.0352
   15MOL    C65 1773   1.700   2.829   5.153  0.5342  0.0047 -0.3237
   15MOL    H66 1774   1.805   2.825   5.124  0.7169 -2.1074  0.5052
   15MOL    H67 1775   1.692   2.919   5.214  1.0380 -0.5511  0.5782
   15MOL    C68 1776   1.618   2.847   5.029  0.2201 -0.1130  0.2617
   15MOL    F69 1777   1.600   2.729   4.966  0.2622 -0.0838  0.1207
   15MOL    F70 1778   1.492   2.886   5.055 -0.1568 -0.6458 -0.2372
   15MOL    C71 1779   1.686   2.951   4.935  0.2820  0.2953  0.0570
   15MOL    H72 1780   1.631   2.951   4.841  1.3784 -0.4489 -0.5977
   15MOL    H73 1781   1.782   2.910   4.902  0.3548  0.1844  0.4010
   15MOL    C74 1782   1.702   3.093   4.979 -0.2185 -0.8221  0.2660
   15MOL    F75 1783   1.587   3.143   5.010  0.1768 -0.4238 -0.3788
   15MOL    F76 1784   1.779   3.096   5.082 -0.8024 -0.1917 -0.2954
   15MOL    C77 1785   1.763   3.181   4.872  0.2935 -0.2561  0.5136
   15MOL    H78 1786   1.858   3.131   4.855  0.1271 -0.6070  0.6068
   15MOL    H79 1787   1.788   3.277   4.917  1.0563 -1.5349  2.9109
   15MOL    C80 1788   1.694   3.213   4.739 -0.1633  0.1181 -0.2738
   15MOL    F81 1789   1.681   3.092   4.668  0.1338 -0.2481 -0.3916
   15MOL    F82 1790   1.573   3.257   4.764 -0.4219 -0.3211 -0.1941
   15MOL    C83 1791   1.765   3.320   4.654  0.4212 -0.5416  0.6248
   15MOL    H84 1792   1.741   3.284   4.555  2.7404  0.3933 -0.3280
   15MOL    H85 1793   1.873   3.318   4.672  0.5420  0.4782  0.0699
   15MOL    C86 1794   1.716   3.471   4.658  0.4245  0.0908  0.2667
   15MOL    F87 1795   1.779   3.535   4.562  0.0674 -0.2088  0.1875
   15MOL    F88 1796   1.581   3.479   4.638 -0.2823 -0.2882  0.3226
   15MOL    C89 1797   1.753   3.555   4.781 -0.0132 -0.2069 -0.2990
   15MOL    H90 1798   1.714   3.515   4.875  1.2354  3.3466  1.8605
   15MOL    H91 1799   1.707   3.654   4.773  1.1698  0.2312 -2.0268
   15MOL    C92 1800   1.908   3.564   4.815 -0.5303  0.5192 -0.1783
   15MOL    F93 1801   1.932   3.438   4.848 -0.0198  0.4249 -0.0134
   15MOL    F94 1802   1.971   3.596   4.702  0.3506  0.0866  0.2138
   15MOL    C95 1803   1.949   3.657   4.937  0.1092  0.2121  0.1965
   15MOL    H96 1804   1.894   3.632   5.027 -2.4575  0.7096 -1.1866
   15MOL    H97 1805   1.914   3.755   4.902 -0.9795 -1.1344 -2.6299
   15MOL    C98 1806   2.104   3.683   4.957 -0.3175 -0.6270 -0.2822
   15MOL    F99 1807   2.159   3.567   4.976  0.0787 -0.5650 -0.9228
   15MOL   F100 1808   2.154   3.733   4.842  0.2090 -0.1801  0.1841
   15MOL   C101 1809   2.116   3.781   5.077  0.4930 -0.5126 -0.0065
   15MOL   H102 1810   2.089   3.733   5.171  2.4077 -2.3560 -0.3551
   15MOL   H103 1811   2.062   3.873   5.055 -0.8124 -1.4217 -0.6245
   15MOL   C104 1812   2.260   3.820   5.102 -0.4621  0.1411 -0.0361
   15MOL   F105 1813   2.334   3.709   5.091 -0.3148  0.4293 -0.0144
   15MOL   F106 1814   2.298   3.899   5.007 -0.1625 -0.0038  0.2784
   15MOL   C107 1815   2.288   3.902   5.230 -0.2544 -0.4859  0.0203
   15MOL   H108 1816   2.393   3.928   5.238 -0.7452  1.6157 -0.1126
   15MOL   H109 1817   2.278   3.836   5.316  0.2735  0.9000  1.1690
   15MOL   C110 1818   2.196   4.021   5.258 -0.8907 -0.0945  0.1918
   15MOL   F111 1819   2.202   4.104   5.151  0.1991  0.2609 -0.0469
   15MOL   F112 1820   2.076   3.967   5.260 -0.3672 -0.6342  0.5192
   15MOL   C113 1821   2.222   4.113   5.379  0.1711  0.0851 -0.2595
   15MOL   H114 1822   2.328   4.139   5.375 -0.1170  1.3250 -0.1958
   15MOL   H115 1823   2.208   4.045   5.464 -1.0511 -0.6376 -1.0324
   15MOL   C116 1824   2.136   4.244   5.395 -0.2271  0.2623  0.1143
   15MOL   F117 1825   2.174   4.325   5.300 -0.0023  0.4090 -0.0997
   15MOL   F118 1826   2.010   4.219   5.386 -0.3962  0.0286 -0.1102
   15MOL   C119 1827   2.162   4.315   5.526 -0.0563  0.6267 -0.0949
   15MOL   H120 1828   2.103   4.407   5.533 -1.0837  0.1990 -2.4747
   15MOL   H121 1829   2.265   4.350   5.535 -0.0477  0.1733  1.7269
   15MOL   H122 1830   2.123   4.253   5.606 -0.5070  3.6071  2.0737
   16MOL     C1 1831   5.096   4.282   2.849 -0.0039  0.2008 -0.3582
   16MOL     F2 1832   5.029   4.312   2.736  0.5456  0.0033  0.0185
   16MOL     F3 1833   5.008   4.276   2.951  0.0650 -0.0115  0.3107
   16MOL     C4 1834   5.201   4.386   2.886 -0.2722 -0.0401  0.9096
   16MOL     H5 1835   5.170   4.490   2.898 -2.4744 -0.4519 -0.8733
   16MOL     H6 1836   5.262   4.391   2.796  0.0064  0.3118  1.1165
   16MOL     H7 1837   5.126   4.177   2.844 -1.2844 -0.3343  2.2917
   16MOL     C8 1838   5.295   4.342   3.006 -0.3228 -0.1537  0.5150
   16MOL     F9 1839   5.230   4.358   3.122 -0.4103 -0.1810 -0.0828
   16MOL    F10 1840   5.332   4.221   2.985 -0.2744  0.4364  0.3172
   16MOL    C11 1841   5.433   4.429   3.017  0.4224 -0.8836 -0.3708
   16MOL    H12 1842   5.412   4.532   3.047  0.4416 -0.5308 -1.5436
   16MOL    H13 1843   5.472   4.422   2.916 -2.0736  0.1400 -1.4533
   16MOL    C14 1844   5.549   4.379   3.099 -0.1791  0.2177 -0.0371
   16MOL    F15 1845   5.581   4.256   3.048  0.5365 -0.4433  0.3102
   16MOL    F16 1846   5.658   4.452   3.079  0.8695 -0.6640  0.0542
   16MOL    C17 1847   5.527   4.355   3.251 -0.4388  0.1689  0.0799
   16MOL    H18 1848   5.624   4.323   3.287 -0.6182 -1.4987 -0.8496
   16MOL    H19 1849   5.460   4.269   3.264 -0.9521  0.5637  0.0522
   16MOL    C20 1850   5.483   4.482   3.339 -0.1206  1.0246 -0.0813
   16MOL    F21 1851   5.570   4.585   3.305  0.0768  0.2670 -0.1702
   16MOL    F22 1852   5.361   4.521   3.293 -0.4250 -0.6202  0.3312
   16MOL    C23 1853   5.486   4.451   3.489  0.5304  0.1358  0.0783
   16MOL    H24 1854   5.587   4.416   3.509  0.7254 -0.9843 -2.6389
   16MOL    H25 1855   5.426   4.366   3.520  1.3982 -1.9824 -3.6307
   16MOL    C26 1856   5.459   4.568   3.575  0.2241 -0.3927 -0.2597
   16MOL    F27 1857   5.533   4.669   3.554  0.2475 -0.3469  0.2491
   16MOL    F28 1858   5.337   4.609   3.556  0.2003  0.0439  0.5767
   16MOL    C29 1859   5.483   4.537   3.719 -0.5397 -0.0896  0.3780
   16MOL    H30 1860   5.586   4.501   3.729 -0.6434 -0.6046 -0.3596
   16MOL    H31 1861   5.416   4.461   3.759  1.3619 -2.4188 -0.6898
   16MOL    C32 1862   5.488   4.659   3.812  0.4768  0.3491 -0.4311
   16MOL    F33 1863   5.594   4.732   3.780  0.3326  0.1755  0.1166
   16MOL    F34 1864   5.379   4.729   3.790 -0.1948  0.4669 -0.5010
   16MOL    C35 1865   5.509   4.621   3.965  0.2044 -0.1194  0.2875
   16MOL    H36 1866   5.610   4.580   3.966  0.2185 -0.0552  2.0871
   16MOL    H37 1867   5.448   4.539   4.003 -1.3684  1.4880  1.2825
   16MOL    C38 1868   5.516   4.725   4.070  0.3008  0.1208 -0.2862
   16MOL    F39 1869   5.529   4.676   4.187 -0.2351 -0.3672 -0.2504
   16MOL    F40 1870   5.618   4.806   4.059 -0.1060  0.1152 -0.5017
   16MOL    C41 1871   5.393   4.815   4.072  0.2959  0.5675  0.0652
   16MOL    H42 1872   5.388   4.881   3.985 -0.2328 -0.0260 -0.3591
   16MOL    H43 1873   5.422   4.900   4.133 -0.0089 -0.1875  1.2828
   16MOL    C44 1874   5.262   4.742   4.111 -0.2166  0.5858 -0.1605
   16MOL    F45 1875   5.228   4.658   4.013 -0.3385  0.2382  0.4132
   16MOL    F46 1876   5.275   4.670   4.216 -0.5593  0.8916 -0.3576
   16MOL    C47 1877   5.160   4.851   4.144 -0.1732 -0.6514 -0.6787
   16MOL    H48 1878   5.148   4.915   4.057 -1.2242 -0.3394 -0.3243
   16MOL    H49 1879   5.202   4.903   4.230 -1.3165  0.8543 -1.0141
   16MOL    C50 1880   5.027   4.802   4.181  0.6014 -0.5256  0.1733
   16MOL    F51 1881   4.984   4.730   4.075 -0.8274  0.4869 -0.2310
   16MOL    F52 1882   5.038   4.727   4.294 -0.5150 -0.3334  0.9453
   16MOL    C53 1883   4.920   4.913   4.193  0.6688 -0.2539 -0.1709
   16MOL    H54 1884   4.822   4.867   4.207  0.6903 -0.7049 -1.4943
   16MOL    H55 1885   4.908   4.969   4.101 -2.3611  0.0775  0.3657
   16MOL    C56 1886   4.955   5.015   4.300  0.2572 -0.1669 -0.1999
   16MOL    F57 1887   5.009   4.959   4.408 -0.4959  0.6408  0.1472
   16MOL    F58 1888   5.048   5.093   4.248 -0.3860  0.2190 -0.8148
   16MOL    C59 1889   4.843   5.101   4.353 -0.8669  0.5119 -1.0372
   16MOL    H60 1890   4.882   5.148   4.444 -1.2252 -0.2805 -0.4695
   16MOL    H61 1891   4.765   5.031   4.384  2.2646 -2.1400  1.2314
   16MOL    C62 1892   4.767   5.199   4.263 -0.2792 -0.3346 -0.1167
   16MOL    F63 1893   4.849   5.298   4.217  0.5914  0.3429 -0.9853
   16MOL    F64 1894   4.734   5.123   4.155 -0.2466  0.1336 -0.2650
   16MOL    C65 1895   4.642   5.255   4.332  0.2780 -0.7526  0.7616
   16MOL    H66 1896   4.664   5.260   4.439  0.8327  0.3690  0.6006
   16MOL    H67 1897   4.560   5.184   4.327  0.9173 -1.4115 -0.7177
   16MOL    C68 1898   4.579   5.381   4.286 -0.0205  0.4070 -0.9443
   16MOL    F69 1899   4.568   5.391   4.151  0.3618  0.0978 -0.1591
   16MOL    F70 1900   4.453   5.378   4.345 -0.5694 -0.0202 -0.4564
   16MOL    C71 1901   4.649   5.512   4.332 -0.4034 -0.2705 -0.1124
   16MOL    H72 1902   4.740   5.503   4.274 -0.3060  2.7792 -0.4974
   16MOL    H73 1903   4.678   5.493   4.436 -0.6545 -0.9495 -0.1638
   16MOL    C74 1904   4.565   5.635   4.293  0.3387  0.8324 -0.3656
   16MOL    F75 1905   4.580   5.647   4.157  0.0287  0.3028  0.1908
   16MOL    F76 1906   4.437   5.617   4.320  0.0012 -0.0097  0.6125
   16MOL    C77 1907   4.605   5.768   4.368 -0.3794 -0.2797 -0.0291
   16MOL    H78 1908   4.581   5.764   4.475 -0.0414 -1.5129  0.0109
   16MOL    H79 1909   4.537   5.835   4.317 -1.1283 -1.3699 -0.4724
   16MOL    C80 1910   4.749   5.826   4.368 -0.0047  0.1777 -0.1222
   16MOL    F81 1911   4.753   5.934   4.446  0.5413  0.2562 -0.4208
   16MOL    F82 1912   4.822   5.728   4.417 -0.4508 -0.2113 -0.3938
   16MOL    C83 1913   4.794   5.867   4.228  0.2018 -0.0426  0.2168
   16MOL    H84 1914   4.721   5.937   4.188  2.5358  2.6181  0.4069
   16MOL    H85 1915   4.788   5.785   4.157  1.2563  0.0296  0.0321
   16MOL    C86 1916   4.946   5.915   4.217  0.5178 -0.1119 -0.4972
   16MOL    F87 1917   5.015   5.819   4.280  0.7829  0.2122 -0.5304
   16MOL    F88 1918   4.968   5.899   4.086  0.1145  0.0492  0.0131
   16MOL    C89 1919   4.969   6.067   4.274 -0.6086  0.2938 -0.2776
   16MOL    H90 1920   5.073   6.054   4.305 -0.1520  0.4207 -1.7175
   16MOL    H91 1921   4.906   6.079   4.362  1.2529  4.2653  0.6081
   16MOL    C92 1922   4.945   6.181   4.181 -0.7812 -0.0968  0.0333
   16MOL    F93 1923   5.041   6.180   4.088 -0.5751  0.2416  0.2011
   16MOL    F94 1924   4.825   6.158   4.119  0.0924 -0.5655  0.2917
   16MOL    C95 1925   4.954   6.312   4.254  0.3800  0.2747  0.1874
   16MOL    H96 1926   5.041   6.319   4.319  0.3061 -0.5841  0.3804
   16MOL    H97 1927   4.874   6.314   4.328  0.6866  1.4006  0.5011
   16MOL    C98 1928   4.947   6.434   4.163 -0.0728  0.0110 -0.4620
   16MOL    F99 1929   5.047   6.417   4.081 -0.0881  0.4435  0.1622
   16MOL   F100 1930   4.834   6.441   4.085 -0.2295 -0.3365 -0.0846
   16MOL   C101 1931   4.974   6.566   4.252 -0.2653  0.6854  0.1793
   16MOL   H102 1932   5.077   6.553   4.285 -0.6425 -2.0710  0.4225
   16MOL   H103 1933   4.908   6.568   4.338  0.1429 -1.6547  0.5827
   16MOL   C104 1934   4.947   6.694   4.176 -0.1269  0.5966 -0.6000
   16MOL   F105 1935   4.815   6.696   4.145 -0.4767  0.5731 -0.4870
   16MOL   F106 1936   4.970   6.800   4.250 -0.5579 -0.6735  0.0822
   16MOL   C107 1937   5.043   6.704   4.047 -0.1145 -0.5276  0.6437
   16MOL   H108 1938   5.020   6.625   3.976 -1.1528  1.6428 -1.5095
   16MOL   H109 1939   5.145   6.693   4.083 -1.2943 -1.6562  3.8498
   16MOL   C110 1940   5.051   6.839   3.970  0.3705  0.1434  0.3306
   16MOL   F111 1941   4.928   6.874   3.947 -0.3031  0.3125  0.8276
   16MOL   F112 1942   5.108   6.928   4.053  0.0037 -0.7729 -0.0605
   16MOL   C113 1943   5.132   6.818   3.839  0.2322 -0.0558  0.3757
   16MOL   H114 1944   5.109   6.717   3.805 -0.2089 -0.1449  0.9287
   16MOL   H115 1945   5.233   6.807   3.878 -0.6293 -0.0329  2.7125
   16MOL   C116 1946   5.122   6.922   3.731  0.5199 -0.4578 -0.2921
   16MOL   F117 1947   5.001   6.930   3.690  0.8387 -0.0401  0.3176
   16MOL   F118 1948   5.151   7.042   3.790  0.4863  0.4330 -0.6528
   16MOL   C119 1949   5.218   6.891   3.607 -0.3115 -0.3261  0.0703
   16MOL   H120 1950   5.318   6.874   3.647 -0.0149  1.3202  0.0659
   16MOL   H121 1951   5.219   6.977   3.541 -1.4416  1.6109  2.5018
   16MOL   H122 1952   5.209   6.796   3.554 -0.3236 -0.4220  0.2430
   17MOL     C1 1953   5.357   3.867   7.109 -0.3255  0.2156 -0.2050
   17MOL     F2 1954   5.450   3.810   7.032 -0.5115  0.3698  0.2168
   17MOL     F3 1955   5.423   3.890   7.218  0.2405  0.2382 -0.1382
   17MOL     C4 1956   5.228   3.780   7.133 -0.0231 -0.7426  0.3899
   17MOL     H5 1957   5.164   3.839   7.199 -0.9560  0.4473 -1.5231
   17MOL     H6 1958   5.261   3.689   7.184 -0.8218 -1.9022 -1.1272
   17MOL     H7 1959   5.337   3.965   7.065 -0.7010  0.5005  0.6020
   17MOL     C8 1960   5.152   3.753   7.007 -0.0836  0.5213 -0.0279
   17MOL     F9 1961   5.136   3.870   6.952  0.4290  0.5005 -0.4861
   17MOL    F10 1962   5.218   3.684   6.914 -0.0468 -0.3297 -0.3285
   17MOL    C11 1963   5.022   3.673   7.023  0.1641 -0.0162 -0.1319
   17MOL    H12 1964   4.974   3.663   6.925  0.0787  0.4701 -0.1414
   17MOL    H13 1965   4.959   3.742   7.078  1.6151 -0.4269  2.1033
   17MOL    C14 1966   5.023   3.534   7.085 -0.5460 -0.3931 -0.2458
   17MOL    F15 1967   5.127   3.462   7.049 -0.0816  0.1967 -0.2521
   17MOL    F16 1968   5.041   3.559   7.212 -0.1437  0.0504  0.2562
   17MOL    C17 1969   4.898   3.447   7.057 -0.0343 -0.2524  0.6669
   17MOL    H18 1970   4.932   3.350   7.092 -0.3543 -0.5915  0.0449
   17MOL    H19 1971   4.877   3.429   6.952  0.9894  1.2193  0.1973
   17MOL    C20 1972   4.773   3.494   7.131  0.1674  0.2041  1.0675
   17MOL    F21 1973   4.792   3.490   7.259  0.0185 -0.0380 -0.2686
   17MOL    F22 1974   4.743   3.620   7.099 -0.2930 -0.1182 -0.0151
   17MOL    C23 1975   4.650   3.408   7.098  0.3141  0.2480 -0.1272
   17MOL    H24 1976   4.687   3.306   7.113  1.3014  0.6553  0.2289
   17MOL    H25 1977   4.621   3.409   6.992 -0.5439  0.8707  0.1099
   17MOL    C26 1978   4.515   3.421   7.167 -0.4453  0.0639 -0.0398
   17MOL    F27 1979   4.441   3.312   7.139 -0.1255  0.4872  0.5467
   17MOL    F28 1980   4.530   3.423   7.304  0.2127  0.4342  0.0305
   17MOL    C29 1981   4.441   3.551   7.128 -0.0010 -0.2416  0.6432
   17MOL    H30 1982   4.424   3.555   7.021  0.2755  1.1371  0.6351
   17MOL    H31 1983   4.491   3.645   7.153 -1.1125  0.5178  0.0362
   17MOL    C32 1984   4.295   3.565   7.178 -0.2558 -0.2100 -0.0516
   17MOL    F33 1985   4.255   3.687   7.140 -0.2637 -0.0601  0.9373
   17MOL    F34 1986   4.226   3.471   7.106 -0.2682 -0.2911  0.0239
   17MOL    C35 1987   4.289   3.567   7.331  0.2928 -0.3535  0.6232
   17MOL    H36 1988   4.380   3.622   7.357  0.0670  1.0924 -1.5354
   17MOL    H37 1989   4.313   3.466   7.364 -2.2166 -0.4498  2.2829
   17MOL    C38 1990   4.158   3.619   7.392  0.5746 -0.1742  0.2664
   17MOL    F39 1991   4.171   3.622   7.521  0.1940  0.7416  0.0866
   17MOL    F40 1992   4.127   3.743   7.359  0.0785  0.0669 -0.1510
   17MOL    C41 1993   4.039   3.527   7.359  0.0427  0.8321 -0.4210
   17MOL    H42 1994   4.078   3.425   7.370 -2.3343 -0.0416  0.1854
   17MOL    H43 1995   4.008   3.547   7.256 -0.2510 -1.4890 -0.8226
   17MOL    C44 1996   3.904   3.551   7.427  0.1446  0.6056  0.5144
   17MOL    F45 1997   3.926   3.560   7.555  0.4233  0.0318 -0.5399
   17MOL    F46 1998   3.851   3.666   7.387  0.5637 -0.4914  0.1518
   17MOL    C47 1999   3.799   3.448   7.395  0.1718  0.0444  0.4155
   17MOL    H48 2000   3.832   3.349   7.426 -0.1507 -0.7130 -1.5710
   17MOL    H49 2001   3.778   3.441   7.288 -0.0675 -0.4185  0.4866
   17MOL    C50 2002   3.655   3.470   7.456 -0.7678 -0.0064 -0.1139
   17MOL    F51 2003   3.660   3.493   7.582  0.2117  0.4596 -0.2369
   17MOL    F52 2004   3.605   3.579   7.397  0.2275 -0.4254  0.1281
   17MOL    C53 2005   3.577   3.346   7.428  0.0778  0.1254 -0.4718
   17MOL    H54 2006   3.617   3.267   7.492 -1.3961  0.5223  0.9916
   17MOL    H55 2007   3.588   3.310   7.326 -1.0324 -1.5368 -0.0084
   17MOL    C56 2008   3.425   3.358   7.460  0.6057  0.5111  0.4954
   17MOL    F57 2009   3.380   3.450   7.378  0.1300  0.1317 -0.5993
   17MOL    F58 2010   3.364   3.249   7.419  0.3509 -0.2209  0.6648
   17MOL    C59 2011   3.389   3.373   7.613  0.0332 -0.3019  0.2453
   17MOL    H60 2012   3.421   3.472   7.645 -1.7654  0.5780 -0.6139
   17MOL    H61 2013   3.453   3.299   7.661  2.2716 -0.8294 -3.3328
   17MOL    C62 2014   3.237   3.353   7.647 -0.6962  0.5473 -0.7570
   17MOL    F63 2015   3.180   3.455   7.585  0.1805 -0.8951 -0.0018
   17MOL    F64 2016   3.193   3.239   7.595  0.2318 -0.3057 -0.0693
   17MOL    C65 2017   3.212   3.369   7.794  0.3868 -0.4716  0.5223
   17MOL    H66 2018   3.107   3.386   7.817  0.7084 -0.2738  1.8896
   17MOL    H67 2019   3.240   3.471   7.820 -0.9068  0.0761 -0.1983
   17MOL    C68 2020   3.281   3.276   7.893  0.1284  0.0186 -0.2931
   17MOL    F69 2021   3.286   3.152   7.845 -0.1533 -0.2812  0.5297
   17MOL    F70 2022   3.409   3.322   7.901 -0.3802  0.1471 -0.8212
   17MOL    C71 2023   3.218   3.275   8.038 -0.0218 -0.6856  0.0910
   17MOL    H72 2024   3.112   3.250   8.029  0.2040 -1.3287 -0.8332
   17MOL    H73 2025   3.222   3.376   8.079  0.3895  0.4911 -2.7622
   17MOL    C74 2026   3.282   3.190   8.146 -0.1230  0.2667  0.6736
   17MOL    F75 2027   3.413   3.228   8.164 -0.2189  0.2432  0.4211
   17MOL    F76 2028   3.219   3.234   8.256 -0.0750 -0.2110 -0.3831
   17MOL    C77 2029   3.269   3.037   8.142  0.4883 -0.1409  0.3175
   17MOL    H78 2030   3.309   3.007   8.045  0.4053 -1.0779  0.5721
   17MOL    H79 2031   3.166   3.001   8.137  0.4515 -0.1993  1.4607
   17MOL    C80 2032   3.342   2.959   8.251 -0.0314  0.1364  0.0515
   17MOL    F81 2033   3.292   2.839   8.248  0.2776  0.3270  0.2523
   17MOL    F82 2034   3.470   2.952   8.244 -0.0726 -0.1827  0.2633
   17MOL    C83 2035   3.319   3.010   0.047  0.1370 -0.8022  0.0123
   17MOL    H84 2036   3.211   3.024   0.056  0.3002  2.7412 -2.3761
   17MOL    H85 2037   3.357   3.111   0.062  0.6910 -1.3461  2.4168
   17MOL    C86 2038   3.368   2.917   0.162 -0.2728  0.2121  0.0621
   17MOL    F87 2039   3.327   2.958   0.280  0.3057 -0.1843 -0.3456
   17MOL    F88 2040   3.330   2.794   0.150 -0.3091 -0.1464 -0.2403
   17MOL    C89 2041   3.520   2.901   0.177  0.2830 -0.4070  0.3018
   17MOL    H90 2042   3.563   2.841   0.096 -2.8265 -2.0277 -0.2492
   17MOL    H91 2043   3.533   2.835   0.262 -1.8988  0.0613  1.0305
   17MOL    C92 2044   3.604   3.033   0.203  0.5758  0.2072 -1.1799
   17MOL    F93 2045   3.624   3.110   0.097  0.0659  0.3646 -0.2731
   17MOL    F94 2046   3.530   3.106   0.282 -0.7310  0.0884  0.1058
   17MOL    C95 2047   3.741   3.011   0.278 -0.8593 -0.2816 -0.4685
   17MOL    H96 2048   3.713   2.973   0.376  1.7919 -0.0322  0.4310
   17MOL    H97 2049   3.789   3.109   0.288  0.6070 -0.8965 -1.3409
   17MOL    C98 2050   3.841   2.917   0.211 -1.2109 -0.4332  0.2644
   17MOL    F99 2051   3.795   2.794   0.228 -0.1904  0.2855  0.2824
   17MOL   F100 2052   3.842   2.937   0.082  0.2978  0.5498  0.5231
   17MOL   C101 2053   3.979   2.951   0.268 -0.6232  0.3649 -0.4250
   17MOL   H102 2054   3.996   3.058   0.264  2.5043 -0.0800 -0.3745
   17MOL   H103 2055   4.052   2.908   0.199  0.5236  0.3170  0.7967
   17MOL   C104 2056   4.018   2.894   0.411 -0.7124 -0.3621  0.4398
   17MOL   F105 2057   4.136   2.945   0.445  0.4288  0.0815 -0.3707
   17MOL   F106 2058   3.922   2.923   0.499  0.0627 -0.1505 -0.1608
   17MOL   C107 2059   4.041   2.740   0.412  0.0663  0.4963  0.2288
   17MOL   H108 2060   4.106   2.712   0.329  2.8158 -1.9813  3.1024
   17MOL   H109 2061   3.944   2.693   0.393 -1.2878  2.5098  1.8063
   17MOL   C110 2062   4.101   2.663   0.526 -0.2778  0.2341  0.5370
   17MOL   F111 2063   4.217   2.733   0.566  0.3885  0.0744 -0.0278
   17MOL   F112 2064   3.996   2.667   0.616  0.1029 -0.4909  0.5302
   17MOL   C113 2065   4.145   2.521   0.496  0.1813 -0.2861  0.0821
   17MOL   H114 2066   4.215   2.520   0.412  2.5440 -2.9201  1.9853
   17MOL   H115 2067   4.059   2.474   0.447 -0.6704 -0.2414  1.5287
   17MOL   C116 2068   4.192   2.446   0.619 -0.7115 -1.2996 -0.2563
   17MOL   F117 2069   4.311   2.498   0.649  0.4642  0.3445  0.1003
   17MOL   F118 2070   4.128   2.465   0.729 -0.1100 -0.1876  0.4337
   17MOL   C119 2071   4.213   2.297   0.595 -0.2208  1.1085  0.3436
   17MOL   H120 2072   4.207   2.232   0.683  1.8094  1.0830  0.4928
   17MOL   H121 2073   4.315   2.289   0.558 -0.3267  1.5622 -0.0535
   17MOL   H122 2074   4.135   2.255   0.531  1.1104  0.5612 -0.9426
   18MOL     C1 2075   4.234   2.800   1.522 -0.0959 -0.6297  0.0539
   18MOL     F2 2076   4.260   2.924   1.580 -0.0557  0.4969 -0.5312
   18MOL     F3 2077   4.351   2.728   1.512  0.4261  0.2749  0.4090
   18MOL     C4 2078   4.176   2.805   1.381  0.1285 -0.3936  0.0151
   18MOL     H5 2079   4.252   2.851   1.318  0.0140 -0.9031 -0.4978
   18MOL     H6 2080   4.089   2.871   1.382  1.7984  1.8855 -0.9911
   18MOL     H7 2081   4.174   2.746   1.594  1.3613  0.8447  2.4212
   18MOL     C8 2082   4.133   2.669   1.337 -0.0327 -0.5571  0.9483
   18MOL     F9 2083   4.244   2.595   1.326  0.2018 -0.1108 -0.0705
   18MOL    F10 2084   4.065   2.603   1.426  0.5002 -0.0063 -0.3057
   18MOL    C11 2085   4.051   2.666   1.213  0.0653 -0.2303 -0.0586
   18MOL    H12 2086   4.113   2.710   1.135 -0.7333  1.0221 -0.0077
   18MOL    H13 2087   3.966   2.734   1.221  0.2364  0.3373 -2.5342
   18MOL    C14 2088   4.007   2.529   1.169 -0.4430  0.3518  0.2591
   18MOL    F15 2089   4.115   2.455   1.135 -0.0166  0.2955 -0.2706
   18MOL    F16 2090   3.952   2.463   1.269 -0.4056  0.1303 -0.0717
   18MOL    C17 2091   3.909   2.531   1.047 -0.7266  0.0128 -0.1143
   18MOL    H18 2092   3.958   2.584   0.965  0.0884 -0.8824 -0.2216
   18MOL    H19 2093   3.817   2.579   1.079 -0.0810  1.0892  0.1543
   18MOL    C20 2094   3.872   2.388   0.987 -0.1056 -0.1055 -1.2243
   18MOL    F21 2095   3.971   2.301   0.971  0.0793 -0.5684  0.1394
   18MOL    F22 2096   3.782   2.334   1.067  0.0635 -0.2976 -0.2624
   18MOL    C23 2097   3.815   2.387   0.851  0.5449  0.4184 -0.4926
   18MOL    H24 2098   3.796   2.284   0.818  0.2445  1.1112 -2.5903
   18MOL    H25 2099   3.894   2.427   0.789 -1.6467  1.0165 -3.0148
   18MOL    C26 2100   3.681   2.459   0.819  0.2498 -0.4257 -0.2917
   18MOL    F27 2101   3.585   2.433   0.900  0.1069  0.0075  0.0540
   18MOL    F28 2102   3.702   2.590   0.827 -0.1174 -0.3126  0.4588
   18MOL    C29 2103   3.633   2.421   0.679  0.1977 -0.2510 -0.7530
   18MOL    H30 2104   3.542   2.479   0.661 -1.6311 -2.3117  1.4874
   18MOL    H31 2105   3.598   2.318   0.681 -2.0368  0.4534 -1.7742
   18MOL    C32 2106   3.717   2.454   0.557  0.0350 -0.5401 -0.4183
   18MOL    F33 2107   3.735   2.582   0.544  0.2959 -0.3141 -0.1082
   18MOL    F34 2108   3.833   2.387   0.556  0.0759 -0.5869 -0.7482
   18MOL    C35 2109   3.651   2.425   0.422  0.2829 -0.0799 -0.5696
   18MOL    H36 2110   3.645   2.317   0.406  1.4927 -0.5274  1.7606
   18MOL    H37 2111   3.711   2.479   0.349  1.1574  0.3389  0.4550
   18MOL    C38 2112   3.511   2.468   0.394  0.2157  0.3268  0.1402
   18MOL    F39 2113   3.430   2.411   0.480  0.3162 -0.2966  0.3331
   18MOL    F40 2114   3.507   2.598   0.417 -0.3285  0.8486 -0.3232
   18MOL    C41 2115   3.472   2.454   0.244 -0.5830 -0.0268  0.5948
   18MOL    H42 2116   3.541   2.513   0.184 -0.8699  0.7733  1.0504
   18MOL    H43 2117   3.373   2.494   0.223 -0.2017 -0.2629 -1.7907
   18MOL    C44 2118   3.493   2.316   0.178 -0.4453 -0.0666  0.1699
   18MOL    F45 2119   3.452   2.330   0.046 -0.3892  0.3199  0.0605
   18MOL    F46 2120   3.622   2.285   0.179 -0.5243  0.1165  0.2594
   18MOL    C47 2121   3.409   2.201   0.244 -0.1928  0.2065 -0.7866
   18MOL    H48 2122   3.307   2.236   0.260  0.4813  1.8910 -0.1028
   18MOL    H49 2123   3.438   2.194   0.349 -0.4165 -0.5890 -0.7769
   18MOL    C50 2124   3.417   2.052   0.190 -0.1466  0.4746  0.1445
   18MOL    F51 2125   3.414   2.073   0.055 -0.1125 -0.8360  0.4884
   18MOL    F52 2126   3.535   2.000   0.221  0.4534  0.3553 -0.1771
   18MOL    C53 2127   3.284   1.971   0.231 -0.2163 -0.3019 -0.0230
   18MOL    H54 2128   3.284   1.883   0.167  1.6154  0.1608 -0.7054
   18MOL    H55 2129   3.196   2.031   0.209  0.1649  0.3887  0.3260
   18MOL    C56 2130   3.268   1.939   0.381  0.1425  0.1931  0.5037
   18MOL    F57 2131   3.366   1.859   0.418  0.2871 -0.2834 -0.3569
   18MOL    F58 2132   3.282   2.048   0.451  0.5501  0.2006 -0.1583
   18MOL    C59 2133   3.131   1.863   0.418  0.1802 -0.0021  0.2406
   18MOL    H60 2134   3.124   1.771   0.359 -0.1428 -0.7598  1.4419
   18MOL    H61 2135   3.051   1.922   0.374 -2.5806 -2.3742  1.8751
   18MOL    C62 2136   3.095   1.816   0.558 -0.1615 -0.1243 -0.6364
   18MOL    F63 2137   3.090   1.936   0.621 -0.1686 -0.1971  0.1469
   18MOL    F64 2138   2.968   1.766   0.565 -0.1636  0.1703  0.4265
   18MOL    C65 2139   3.194   1.720   0.629  0.0597 -0.1350  1.2647
   18MOL    H66 2140   3.167   1.725   0.734 -2.9246  0.7480  0.5127
   18MOL    H67 2141   3.287   1.776   0.630 -0.0906  0.1398  0.3587
   18MOL    C68 2142   3.221   1.572   0.567  0.2358 -0.3466 -0.7479
   18MOL    F69 2143   3.269   1.592   0.447 -0.2157 -0.1260  0.0318
   18MOL    F70 2144   3.308   1.500   0.637 -0.0170  0.0068  0.1145
   18MOL    C71 2145   3.088   1.495   0.570  0.0042  0.0988 -0.6520
   18MOL    H72 2146   3.002   1.552   0.533  0.4295  1.8799  0.9992
   18MOL    H73 2147   3.062   1.472   0.674  4.1616  0.1019  0.4796
   18MOL    C74 2148   3.099   1.364   0.498 -0.0063  0.4766 -0.4348
   18MOL    F75 2149   3.213   1.306   0.524 -0.1721 -0.4013  0.1148
   18MOL    F76 2150   3.011   1.287   0.552  0.4030  0.4138 -0.2407
   18MOL    C77 2151   3.072   1.369   0.342 -0.3119  0.2313 -0.6618
   18MOL    H78 2152   3.081   1.270   0.298  0.7985  0.3834 -0.7955
   18MOL    H79 2153   3.147   1.433   0.296  1.3663 -1.4419 -0.3396
   18MOL    C80 2154   2.932   1.428   0.312  0.0033 -0.1586  0.2384
   18MOL    F81 2155   2.841   1.415   0.410  0.0330 -0.0157 -0.5038
   18MOL    F82 2156   2.959   1.554   0.302 -0.2813  0.1683  0.0947
   18MOL    C83 2157   2.868   1.388   0.178 -0.0360  0.7583  0.1501
   18MOL    H84 2158   2.833   1.284   0.186  1.8152  0.1485  0.4299
   18MOL    H85 2159   2.948   1.383   0.104  1.2804  1.4113  1.5068
   18MOL    C86 2160   2.763   1.480   0.106  0.2246  0.0939  0.2888
   18MOL    F87 2161   2.818   1.600   0.085 -0.1844 -0.1358 -0.1126
   18MOL    F88 2162   2.736   1.437   8.332  0.1503 -0.0691 -0.3258
   18MOL    C89 2163   2.637   1.479   0.193 -0.4539  0.8964 -0.6374
   18MOL    H90 2164   2.666   1.524   0.288  0.8150  0.2210 -0.6948
   18MOL    H91 2165   2.595   1.382   0.220 -1.1477  1.6992  1.2350
   18MOL    C92 2166   2.517   1.552   0.125 -0.7896 -0.2060 -0.9335
   18MOL    F93 2167   2.559   1.676   0.085  0.2436  0.3604 -0.3944
   18MOL    F94 2168   2.480   1.478   0.018  0.0830  0.0415 -0.4659
   18MOL    C95 2169   2.402   1.579   0.224 -0.3611 -0.3278  0.0647
   18MOL    H96 2170   2.433   1.640   0.309 -0.1252  1.3288 -1.1944
   18MOL    H97 2171   2.382   1.482   0.270 -1.0841 -0.5638 -0.7400
   18MOL    C98 2172   2.268   1.631   0.167 -0.0623 -0.1896  0.1808
   18MOL    F99 2173   2.188   1.668   0.271  0.1555 -0.1439  0.7148
   18MOL   F100 2174   2.291   1.738   0.093 -0.2464 -0.1675 -0.0447
   18MOL   C101 2175   2.191   1.526   0.079 -0.1114 -0.3539  0.1901
   18MOL   H102 2176   2.186   1.435   0.138  3.1765 -0.9182 -0.2918
   18MOL   H103 2177   2.252   1.497   8.344  1.4560 -1.0050  1.4974
   18MOL   C104 2178   2.049   1.574   0.025 -0.0330  1.2928 -0.1314
   18MOL   F105 2179   1.969   1.628   0.117  0.3388 -0.0159 -0.0454
   18MOL   F106 2180   2.057   1.665   8.282 -0.1582 -0.6382  0.1861
   18MOL   C107 2181   1.963   1.454   8.328  0.5739  0.5060 -0.5039
   18MOL   H108 2182   1.863   1.498   8.320  0.0426 -0.1534  2.1672
   18MOL   H109 2183   1.941   1.386   0.060 -0.8238  2.6697  0.9789
   18MOL   C110 2184   2.023   1.371   8.206 -0.7723  0.3042  0.0016
   18MOL   F111 2185   2.081   1.465   8.132 -0.4139  0.2018  0.1740
   18MOL   F112 2186   2.108   1.281   8.241 -0.0527 -0.0041 -0.0390
   18MOL   C113 2187   1.917   1.298   8.122 -0.5759 -0.0261 -0.1629
   18MOL   H114 2188   1.963   1.255   8.034 -0.2288  0.5860 -0.2860
   18MOL   H115 2189   1.856   1.375   8.074 -0.8042 -0.4641 -0.5855
   18MOL   C116 2190   1.812   1.203   8.193 -0.7989  0.0277 -0.7597
   18MOL   F117 2191   1.872   1.103   8.258  0.1890 -0.3597  0.2940
   18MOL   F118 2192   1.748   1.272   8.286 -0.1773  0.4914 -0.7052
   18MOL   C119 2193   1.701   1.143   8.109  0.0648 -0.9687  0.6264
   18MOL   H120 2194   1.646   1.085   8.183  2.0568 -0.9770  2.1422
   18MOL   H121 2195   1.750   1.099   8.022 -1.6476  0.5577 -1.1478
   18MOL   H122 2196   1.640   1.221   8.065  2.0936  1.0023  1.2049
   19MOL     C1 2197   2.929   1.160   3.123 -0.1627 -0.1625 -0.0376
   19MOL     F2 2198   2.863   1.268   3.072 -0.1753 -0.2208 -0.3054
   19MOL     F3 2199   2.867   1.055   3.066 -0.2015 -0.1346 -0.3732
   19MOL     C4 2200   2.921   1.151   3.276  0.7169  0.6584  0.4770
   19MOL     H5 2201   2.958   1.243   3.319  1.9272  0.5372 -0.2749
   19MOL     H6 2202   2.988   1.075   3.317  1.3424 -0.0443 -1.7549
   19MOL     H7 2203   3.029   1.144   3.083  0.5010  1.4243  0.9252
   19MOL     C8 2204   2.773   1.131   3.336 -0.1833 -0.4292  0.1566
   19MOL     F9 2205   2.695   1.232   3.284  0.3233 -0.1015 -0.0948
   19MOL    F10 2206   2.716   1.018   3.299  0.4848 -0.5329  0.0447
   19MOL    C11 2207   2.755   1.134   3.490  0.2831  0.5366  0.3458
   19MOL    H12 2208   2.650   1.118   3.516 -0.1215  1.3605 -0.7295
   19MOL    H13 2209   2.778   1.237   3.517  1.0303  0.3248  0.5134
   19MOL    C14 2210   2.841   1.036   3.572 -0.4118  0.1776 -0.3447
   19MOL    F15 2211   2.813   0.915   3.538 -0.2789  0.2153  0.0443
   19MOL    F16 2212   2.968   1.063   3.546  0.0372  0.0179  0.0157
   19MOL    C17 2213   2.797   1.053   3.719  0.0011  0.1380  0.1496
   19MOL    H18 2214   2.689   1.043   3.724 -0.0312  1.1868  2.2531
   19MOL    H19 2215   2.816   1.157   3.745  1.1746 -0.6568  2.7327
   19MOL    C20 2216   2.863   0.961   3.824  0.4443 -0.0936  0.1259
   19MOL    F21 2217   2.832   0.831   3.792  0.4063 -0.1161 -0.5549
   19MOL    F22 2218   2.993   0.982   3.812  0.1229  0.4291  0.4339
   19MOL    C23 2219   2.804   0.978   3.967  0.0133  0.1266  0.1346
   19MOL    H24 2220   2.696   0.970   3.978 -0.7100  5.3823 -1.8719
   19MOL    H25 2221   2.829   1.079   3.999  1.7559 -0.0996 -0.4598
   19MOL    C26 2222   2.873   0.892   4.068 -0.2601  0.6343 -0.5915
   19MOL    F27 2223   2.858   0.760   4.041 -0.0604  0.1956  0.1789
   19MOL    F28 2224   3.007   0.917   4.070  0.1506  0.2963  0.2544
   19MOL    C29 2225   2.827   0.930   4.213  0.5193  0.3409  0.6596
   19MOL    H30 2226   2.719   0.918   4.208  0.6171 -0.0529 -0.6497
   19MOL    H31 2227   2.850   1.036   4.218  0.1904  0.5076 -1.2322
   19MOL    C32 2228   2.887   0.847   4.331 -0.5676 -1.1820  0.7807
   19MOL    F33 2229   3.017   0.869   4.348 -0.1917 -0.1112  0.2123
   19MOL    F34 2230   2.827   0.913   4.432  0.6061  0.1325 -0.2380
   19MOL    C35 2231   2.861   0.694   4.339  0.0114  0.9984  0.5898
   19MOL    H36 2232   2.923   0.642   4.266 -0.0255 -0.1687  1.3774
   19MOL    H37 2233   2.757   0.676   4.312  0.3140  0.8000 -0.5017
   19MOL    C38 2234   2.885   0.642   4.488 -0.3106  0.1117 -0.0996
   19MOL    F39 2235   3.010   0.667   4.532  0.5085  0.1744  0.4014
   19MOL    F40 2236   2.804   0.708   4.568 -0.1684 -0.1261 -0.4178
   19MOL    C41 2237   2.854   0.490   4.491 -0.0582 -0.2298  0.9914
   19MOL    H42 2238   2.949   0.460   4.446 -0.0583  3.1055 -1.4154
   19MOL    H43 2239   2.776   0.467   4.419  0.7315  1.2616 -0.3766
   19MOL    C44 2240   2.836   0.403   4.612 -0.2679  0.1588  0.3192
   19MOL    F45 2241   2.713   0.418   4.646 -0.8381 -0.3943  0.5643
   19MOL    F46 2242   2.860   0.272   4.586  0.1361  0.2274  0.1886
   19MOL    C47 2243   2.928   0.460   4.724  0.2033  0.8282 -0.3430
   19MOL    H48 2244   2.920   0.568   4.731 -2.9288  0.5987  0.2395
   19MOL    H49 2245   3.029   0.435   4.690 -1.5809 -2.0674 -3.7813
   19MOL    C50 2246   2.908   0.384   4.856  0.0347  0.2694 -0.0326
   19MOL    F51 2247   2.788   0.409   4.910  0.2416 -0.1023  0.4031
   19MOL    F52 2248   2.911   0.250   4.832  0.0312  0.2740  0.1262
   19MOL    C53 2249   3.024   0.414   4.953  0.2090 -0.3419  0.6688
   19MOL    H54 2250   3.013   0.520   4.976  2.7905 -0.4427  2.6294
   19MOL    H55 2251   3.122   0.422   4.907 -0.1957 -0.2984 -0.1961
   19MOL    C56 2252   3.017   0.328   5.079 -0.5053  0.0622 -0.0933
   19MOL    F57 2253   3.099   0.383   5.166 -0.1057 -0.6789 -0.1690
   19MOL    F58 2254   2.908   0.357   5.147  0.1293  0.8296 -0.1242
   19MOL    C59 2255   3.044   0.181   5.070  0.2995  0.1474 -0.5545
   19MOL    H60 2256   2.980   0.132   4.996  1.3380  2.2072 -2.8993
   19MOL    H61 2257   3.023   0.141   5.169 -1.2541  2.4187  0.0947
   19MOL    C62 2258   3.186   0.141   5.021  0.2739 -0.0020 -0.5797
   19MOL    F63 2259   3.212   0.184   4.898 -0.4781  1.0842 -0.1436
   19MOL    F64 2260   3.266   0.203   5.108 -0.4239 -0.7203 -0.1603
   19MOL    C65 2261   3.218   8.341   5.024 -0.5356 -0.0592 -0.5650
   19MOL    H66 2262   3.210   8.301   5.125 -0.6350 -0.3126 -0.6719
   19MOL    H67 2263   3.322   8.333   4.992 -0.0622  0.8736  0.7234
   19MOL    C68 2264   3.135   8.247   4.932  0.4542  0.3141  0.5647
   19MOL    F69 2265   3.171   8.126   4.973 -1.1351 -0.4673 -0.0759
   19MOL    F70 2266   3.004   8.271   4.954 -0.1839 -0.3809 -0.1698
   19MOL    C71 2267   3.162   8.265   4.775 -0.3039  0.0540 -0.3567
   19MOL    H72 2268   3.265   8.233   4.758  0.2444  1.3576  0.4127
   19MOL    H73 2269   3.159   0.019   4.741 -0.2363  0.1966  0.0769
   19MOL    C74 2270   3.073   8.169   4.687  0.2519 -0.3759  0.0344
   19MOL    F75 2271   3.142   8.167   4.573  0.0842  0.1456 -0.8270
   19MOL    F76 2272   3.069   8.042   4.730 -0.2754  0.0050  0.3808
   19MOL    C77 2273   2.932   8.218   4.671  0.3961 -0.1994 -0.4180
   19MOL    H78 2274   2.920   8.327   4.671 -2.7211 -0.4805  1.3884
   19MOL    H79 2275   2.878   8.185   4.759  0.4173  1.9348  0.4411
   19MOL    C80 2276   2.849   8.172   4.542  0.1310 -0.1980 -0.3675
   19MOL    F81 2277   2.720   8.223   4.558 -0.3478 -0.2385 -0.0011
   19MOL    F82 2278   2.914   8.235   4.441 -0.1132  0.7860 -0.1210
   19MOL    C83 2279   2.835   8.015   4.531 -0.3497  0.0471 -0.4814
   19MOL    H84 2280   2.799   7.985   4.629 -1.5286 -0.3864 -1.0522
   19MOL    H85 2281   2.936   7.973   4.535 -0.3952  0.1205  2.1110
   19MOL    C86 2282   2.750   7.947   4.415 -0.2217  0.1671  0.6754
   19MOL    F87 2283   2.627   7.990   4.415  0.4168 -0.0085 -0.1124
   19MOL    F88 2284   2.808   8.001   4.304 -0.2046  0.0039 -0.2066
   19MOL    C89 2285   2.765   7.790   4.413  0.4615 -0.1454 -0.0930
   19MOL    H90 2286   2.715   7.759   4.505 -1.6515  2.1371 -0.4248
   19MOL    H91 2287   2.872   7.770   4.416  0.7004  0.8871 -1.3927
   19MOL    C92 2288   2.691   7.716   4.298 -0.2032  0.2163 -0.3006
   19MOL    F93 2289   2.557   7.724   4.327 -0.2686  0.2817  0.1247
   19MOL    F94 2290   2.711   7.764   4.176  0.2346  0.4127 -0.0676
   19MOL    C95 2291   2.733   7.565   4.296 -0.2057  0.9809  0.7122
   19MOL    H96 2292   2.704   7.514   4.387 -0.6655 -0.8258 -0.4078
   19MOL    H97 2293   2.842   7.558   4.297 -0.2778 -0.1176  2.2823
   19MOL    C98 2294   2.676   7.484   4.184 -0.2369 -0.0761 -0.0171
   19MOL    F99 2295   2.729   7.503   4.068 -0.1959  0.0724  0.5273
   19MOL   F100 2296   2.705   7.356   4.208 -0.0460  0.0663  0.0373
   19MOL   C101 2297   2.523   7.482   4.179  0.5587  0.5860 -0.0577
   19MOL   H102 2298   2.477   7.581   4.173 -0.2945  0.3023  1.4435
   19MOL   H103 2299   2.486   7.448   4.276 -2.6540  2.9927 -0.3370
   19MOL   C104 2300   2.465   7.409   4.060  0.0689 -0.3264 -0.2756
   19MOL   F105 2301   2.330   7.401   4.083  0.2286 -0.0369 -0.2593
   19MOL   F106 2302   2.488   7.491   3.955 -0.5160  0.1123  0.1719
   19MOL   C107 2303   2.507   7.262   4.036  0.0213 -0.1633  0.7770
   19MOL   H108 2304   2.504   7.209   4.131 -2.2765 -0.2085  0.7056
   19MOL   H109 2305   2.611   7.267   4.002 -0.2336  1.1191  0.1462
   19MOL   C110 2306   2.412   7.183   3.949  0.1086  0.4378 -0.1893
   19MOL   F111 2307   2.471   7.068   3.913 -0.1395  0.0222  0.1291
   19MOL   F112 2308   2.305   7.155   4.019  0.3107  0.0293  0.0117
   19MOL   C113 2309   2.371   7.250   3.819  0.0116  0.7108  0.7243
   19MOL   H114 2310   2.465   7.260   3.764 -2.7634  0.8861 -4.2785
   19MOL   H115 2311   2.341   7.352   3.843 -0.1164  0.8060  0.1504
   19MOL   C116 2312   2.268   7.176   3.736  0.0039 -0.2863  0.7258
   19MOL   F117 2313   2.258   7.230   3.613 -0.3370 -0.2153 -0.0622
   19MOL   F118 2314   2.308   7.050   3.726 -0.4159 -0.1326  0.8748
   19MOL   C119 2315   2.127   7.177   3.796  0.5530 -0.1386 -0.3376
   19MOL   H120 2316   2.053   7.155   3.719 -0.4666 -0.6242  0.7743
   19MOL   H121 2317   2.099   7.266   3.852 -0.6385 -1.3083  0.9852
   19MOL   H122 2318   2.119   7.099   3.871  2.9703 -1.0645 -0.9937
   20MOL     C1 2319   0.539   8.166   2.232 -0.2621  0.3432 -0.0290
   20MOL     F2 2320   0.606   8.080   2.311  0.1482  0.3930 -0.5810
   20MOL     F3 2321   0.624   8.246   2.175  0.1067  0.1741 -0.2933
   20MOL     C4 2322   0.459   8.250   2.334 -0.2131 -0.7707 -0.0234
   20MOL     H5 2323   0.527   8.311   2.392 -1.7243  1.6464 -0.6943
   20MOL     H6 2324   0.397   8.188   2.399 -1.7133 -0.5782 -1.2412
   20MOL     H7 2325   0.474   8.115   2.161 -1.2813  1.2105  0.2780
   20MOL     C8 2326   0.366   0.004   2.262  0.7862  0.4692 -0.1739
   20MOL     F9 2327   0.297   0.050   2.364 -0.1426 -0.4839  0.0440
   20MOL    F10 2328   0.447   0.092   2.202 -0.1791 -0.4862  0.6276
   20MOL    C11 2329   0.261   8.316   2.151  0.3199  0.3421  0.7434
   20MOL    H12 2330   0.306   8.281   2.058 -0.3823 -0.5534  0.7359
   20MOL    H13 2331   0.202   0.050   2.114  0.6507  0.1110 -0.3217
   20MOL    C14 2332   0.164   8.204   2.191  0.2852  0.1813 -0.6054
   20MOL    F15 2333   0.229   8.093   2.210  0.5074 -0.4254 -0.3767
   20MOL    F16 2334   0.110   8.223   2.303 -0.4241 -0.0992 -0.2566
   20MOL    C17 2335   0.048   8.186   2.084 -0.2194 -0.4801 -0.2109
   20MOL    H18 2336   0.006   8.286   2.073  1.4109  0.3625  0.9106
   20MOL    H19 2337   8.314   8.125   2.117 -0.7198  0.1853 -0.2469
   20MOL    C20 2338   0.087   8.122   1.950 -0.3360  0.6794 -0.7970
   20MOL    F21 2339   8.330   8.128   1.873 -0.1790 -0.9822 -0.0311
   20MOL    F22 2340   0.184   8.189   1.891  0.0759  0.0555  0.0771
   20MOL    C23 2341   0.126   7.973   1.969 -0.1604 -0.2030 -0.1654
   20MOL    H24 2342   0.053   7.916   2.026 -0.0299 -0.9240 -0.6997
   20MOL    H25 2343   0.223   7.971   2.018 -0.0409  0.5375 -0.3611
   20MOL    C26 2344   0.132   7.901   1.836  0.3958 -0.4808  0.2901
   20MOL    F27 2345   0.004   7.892   1.791  0.4886 -0.1586  0.2475
   20MOL    F28 2346   0.199   7.969   1.742 -0.5804 -0.0350  0.1824
   20MOL    C29 2347   0.206   7.761   1.839 -0.1329  0.2535  0.4402
   20MOL    H30 2348   0.314   7.772   1.852 -0.0018  0.3170 -0.6362
   20MOL    H31 2349   0.196   7.714   1.741 -0.2769  3.3729 -1.0984
   20MOL    C32 2350   0.157   7.654   1.944 -0.2600  0.5119 -0.3153
   20MOL    F33 2351   0.184   7.706   2.060 -0.2688 -0.2046 -0.9953
   20MOL    F34 2352   0.026   7.646   1.936 -0.0558  0.5386 -0.1549
   20MOL    C35 2353   0.228   7.517   1.935  0.2186  0.3006  0.0374
   20MOL    H36 2354   0.329   7.536   1.973  0.4412 -0.6648 -0.0757
   20MOL    H37 2355   0.231   7.474   1.835 -1.2522  0.1793  0.0408
   20MOL    C38 2356   0.164   7.404   2.023 -0.4551  0.3642  0.6221
   20MOL    F39 2357   0.180   7.429   2.150 -0.3644  0.6864  0.2000
   20MOL    F40 2358   0.036   7.406   2.004  0.2081 -0.0940 -0.1859
   20MOL    C41 2359   0.223   7.267   1.988  0.4759  0.1125  0.1605
   20MOL    H42 2360   0.213   7.252   1.880 -1.4193  1.1358  0.1772
   20MOL    H43 2361   0.154   7.191   2.025  0.9465 -0.1352  0.5261
   20MOL    C44 2362   0.363   7.239   2.050 -0.2049 -0.4735  0.3172
   20MOL    F45 2363   0.456   7.334   2.014  0.0936  0.3326 -0.2517
   20MOL    F46 2364   0.361   7.236   2.186 -0.4860 -0.0471 -0.0066
   20MOL    C47 2365   0.429   7.101   2.022 -0.1670  0.1692 -0.3028
   20MOL    H48 2366   0.373   7.030   2.083  0.5122  0.6005  0.8300
   20MOL    H49 2367   0.528   7.100   2.067 -0.9317 -1.0384  1.3772
   20MOL    C50 2368   0.450   7.041   1.881 -0.6514  0.5615  0.7766
   20MOL    F51 2369   0.327   7.020   1.835 -0.0396 -0.0641  0.4991
   20MOL    F52 2370   0.508   7.141   1.811 -0.3505  0.5717 -0.9014
   20MOL    C53 2371   0.538   6.926   1.874  0.0826 -0.0648 -0.1808
   20MOL    H54 2372   0.514   6.848   1.946  2.0707  0.0638  0.6504
   20MOL    H55 2373   0.637   6.957   1.906 -0.8400 -0.2185  2.9779
   20MOL    C56 2374   0.538   6.862   1.732  0.0368  0.3181 -0.6955
   20MOL    F57 2375   0.413   6.817   1.703  0.1180 -0.1455  0.5664
   20MOL    F58 2376   0.577   6.953   1.636 -0.0821  0.1775  0.0623
   20MOL    C59 2377   0.637   6.741   1.716  0.3843  0.0795  0.6557
   20MOL    H60 2378   0.611   6.681   1.803 -1.4731  0.5048  0.4207
   20MOL    H61 2379   0.742   6.768   1.726  1.1568 -2.9692  1.3370
   20MOL    C62 2380   0.623   6.656   1.594 -0.2895 -0.0183  0.0826
   20MOL    F63 2381   0.735   6.579   1.580 -0.3753  0.4652  0.2680
   20MOL    F64 2382   0.520   6.577   1.627  0.6410  0.2577 -0.4957
   20MOL    C65 2383   0.597   6.722   1.450 -0.6263 -0.9080 -0.4518
   20MOL    H66 2384   0.517   6.795   1.454 -0.4188 -0.6857 -0.2978
   20MOL    H67 2385   0.574   6.640   1.382 -2.5764 -0.7842  0.0383
   20MOL    C68 2386   0.713   6.787   1.371 -0.7511  0.2285 -0.0311
   20MOL    F69 2387   0.762   6.853   1.475 -0.1211 -0.7748 -0.0643
   20MOL    F70 2388   0.794   6.689   1.329  0.3770 -0.0160 -0.2040
   20MOL    C71 2389   0.690   6.889   1.259 -0.2543  0.7013 -0.5118
   20MOL    H72 2390   0.608   6.954   1.289 -1.5351 -1.0673 -0.1177
   20MOL    H73 2391   0.649   6.833   1.175  1.2840 -1.4694  0.1565
   20MOL    C74 2392   0.817   6.958   1.205 -0.5666 -0.6626 -0.1364
   20MOL    F75 2393   0.777   7.066   1.154  0.5229  0.1867 -0.1271
   20MOL    F76 2394   0.889   6.998   1.302 -0.0106  0.4321  0.0651
   20MOL    C77 2395   0.912   6.879   1.109  0.9173  0.2205  0.1677
   20MOL    H78 2396   0.958   6.805   1.174  2.1920  0.7231 -0.1315
   20MOL    H79 2397   0.997   6.947   1.095 -1.0661  2.6023 -0.6886
   20MOL    C80 2398   0.867   6.826   0.974  0.0467  1.1193  0.0166
   20MOL    F81 2399   0.783   6.728   0.994 -0.1160  0.3737 -0.3109
   20MOL    F82 2400   0.809   6.918   0.902 -0.1487  0.1767  0.6566
   20MOL    C83 2401   0.982   6.774   0.885 -0.2776  0.1058  0.6499
   20MOL    H84 2402   1.048   6.854   0.853  0.2906 -0.2893  0.8222
   20MOL    H85 2403   0.942   6.730   0.794  1.0486  0.0980  0.0663
   20MOL    C86 2404   1.070   6.666   0.946 -1.0269 -0.9386 -0.0353
   20MOL    F87 2405   1.163   6.639   0.849 -0.1255  0.0599 -0.5099
   20MOL    F88 2406   1.135   6.726   1.045 -0.1345  0.0315  0.1429
   20MOL    C89 2407   1.006   6.533   0.998  0.9280 -0.5985  0.8720
   20MOL    H90 2408   0.918   6.554   1.058 -0.4553 -2.5551 -0.3883
   20MOL    H91 2409   1.082   6.485   1.058  0.8151 -1.5142  0.3098
   20MOL    C92 2410   0.951   6.423   0.893 -0.2963  0.4729 -0.3587
   20MOL    F93 2411   0.892   6.490   0.791 -0.1663  0.3335  0.2651
   20MOL    F94 2412   1.046   6.349   0.854  0.2974  0.2377  0.0829
   20MOL    C95 2413   0.843   6.323   0.954 -0.0570  0.1296  0.4605
   20MOL    H96 2414   0.801   6.264   0.872 -0.0378 -1.0415  1.2867
   20MOL    H97 2415   0.767   6.400   0.969 -1.5194 -1.6237  2.2545
   20MOL    C98 2416   0.875   6.255   1.087 -0.7100 -0.2530  0.5050
   20MOL    F99 2417   0.900   6.356   1.167  0.0484 -0.2861  0.3320
   20MOL   F100 2418   0.750   6.205   1.118  0.4254 -0.4735  0.1931
   20MOL   C101 2419   0.983   6.138   1.085 -0.2207 -0.2311 -0.1794
   20MOL   H102 2420   1.086   6.171   1.070 -0.1849 -0.4106 -0.3406
   20MOL   H103 2421   0.963   6.081   0.994  1.4028  1.5625 -1.6763
   20MOL   C104 2422   0.978   6.048   1.211  0.0715  0.2085  0.4863
   20MOL   F105 2423   1.004   6.122   1.321  0.1008  0.2786  0.1854
   20MOL   F106 2424   0.867   5.984   1.233  0.1808  0.3196 -0.4721
   20MOL   C107 2425   1.076   5.938   1.182  0.4234 -0.0964  0.6564
   20MOL   H108 2426   1.170   5.990   1.162 -0.5672  2.4226  2.2793
   20MOL   H109 2427   1.057   5.893   1.085  0.8991 -1.5210  1.2014
   20MOL   C110 2428   1.092   5.822   1.281  1.1681 -0.4888  0.4369
   20MOL   F111 2429   1.129   5.867   1.396  0.0564  0.2598 -0.2543
   20MOL   F112 2430   0.978   5.757   1.286 -0.7243 -0.0561 -0.0921
   20MOL   C113 2431   1.191   5.724   1.230 -0.1894 -0.4918 -0.3977
   20MOL   H114 2432   1.154   5.693   1.132  1.4312 -3.0021 -0.2492
   20MOL   H115 2433   1.181   5.633   1.288  1.1198 -0.7006 -0.4989
   20MOL   C116 2434   1.340   5.763   1.216  0.2397 -0.4162  0.4465
   20MOL   F117 2435   1.352   5.849   1.120 -0.1137 -0.0310  0.3774
   20MOL   F118 2436   1.392   5.820   1.329  0.8408  0.1050  0.2302
   20MOL   C119 2437   1.431   5.639   1.182  0.3973 -0.3006  0.1043
   20MOL   H120 2438   1.533   5.668   1.158  0.0925 -0.3354 -1.2751
   20MOL   H121 2439   1.385   5.594   1.094 -0.1395 -1.6071  1.0408
   20MOL   H122 2440   1.431   5.566   1.262  1.7218 -0.2095  0.1953
   21MOL     C1 2441   3.763   7.919   7.133 -0.6906  1.0078 -0.9203
   21MOL     F2 2442   3.897   7.918   7.106 -0.3033  0.3467 -0.3006
   21MOL     F3 2443   3.707   7.822   7.066  0.3225 -0.4936 -0.0309
   21MOL     C4 2444   3.698   8.058   7.094  0.1024  0.4618 -0.0075
   21MOL     H5 2445   3.593   8.052   7.065  0.3311  1.0266 -0.9547
   21MOL     H6 2446   3.726   8.081   6.991 -0.3953  3.2968  0.4393
   21MOL     H7 2447   3.759   7.885   7.237 -0.4589 -0.4061 -1.3624
   21MOL     C8 2448   3.727   8.184   7.175  0.6100  0.4693  0.9140
   21MOL     F9 2449   3.686   8.169   7.299 -0.0621 -0.1147  0.5439
   21MOL    F10 2450   3.866   8.199   7.176  0.3440 -0.3796 -0.2597
   21MOL    C11 2451   3.661   8.316   7.120  0.0487  0.2283  0.6100
   21MOL    H12 2452   3.562   8.323   7.165  0.4978 -1.2602  1.8462
   21MOL    H13 2453   3.646   8.318   7.012 -2.0976 -2.0499  0.8154
   21MOL    C14 2454   3.731   0.097   7.168 -0.1663 -0.0342 -0.7618
   21MOL    F15 2455   3.847   0.101   7.117  0.1314  0.5387 -0.5674
   21MOL    F16 2456   3.667   0.195   7.106 -0.0984 -0.1350  0.5168
   21MOL    C17 2457   3.735   0.108   7.323 -0.2662  0.0262  0.6744
   21MOL    H18 2458   3.776   0.016   7.366 -0.1436  0.2295  0.9923
   21MOL    H19 2459   3.633   0.096   7.359 -0.8031 -3.3607 -1.6824
   21MOL    C20 2460   3.811   0.223   7.388  0.2867 -0.0327  0.5581
   21MOL    F21 2461   3.777   0.207   7.518 -0.0309  0.2574 -0.1657
   21MOL    F22 2462   3.937   0.201   7.372 -0.0586  0.1922  0.1039
   21MOL    C23 2463   3.775   0.365   7.327 -0.1637  0.3210 -0.1071
   21MOL    H24 2464   3.666   0.367   7.317 -0.1657  1.2447  0.0307
   21MOL    H25 2465   3.817   0.385   7.229 -0.0736  0.7111  0.0110
   21MOL    C26 2466   3.804   0.492   7.416 -0.0176 -0.1020 -0.0131
   21MOL    F27 2467   3.724   0.474   7.518  0.4931 -0.4633 -0.0086
   21MOL    F28 2468   3.934   0.494   7.451  0.3854  0.0783  0.3114
   21MOL    C29 2469   3.770   0.624   7.345  0.1506 -0.1611  0.1874
   21MOL    H30 2470   3.679   0.611   7.288  0.3020  1.4937 -0.4551
   21MOL    H31 2471   3.851   0.650   7.277  1.1415  0.1217  1.4477
   21MOL    C32 2472   3.725   0.732   7.438  0.1578  0.1137 -0.2256
   21MOL    F33 2473   3.702   0.841   7.370  0.0725  0.0764  0.2626
   21MOL    F34 2474   3.622   0.703   7.515 -0.4646 -0.0472 -0.2962
   21MOL    C35 2475   3.838   0.781   7.536 -0.3126 -0.5845 -0.2064
   21MOL    H36 2476   3.876   0.696   7.593  1.2747 -0.2209 -0.6857
   21MOL    H37 2477   3.797   0.846   7.613  3.3915  2.5321 -0.7294
   21MOL    C38 2478   3.960   0.854   7.476  0.2840  0.4567 -0.0985
   21MOL    F39 2479   4.019   0.762   7.403 -0.8374  0.3538  0.2670
   21MOL    F40 2480   3.923   0.967   7.405 -0.1508 -0.2676 -0.5156
   21MOL    C41 2481   4.068   0.920   7.566  0.3885  0.0395 -0.7122
   21MOL    H42 2482   4.034   1.010   7.618 -0.6598 -1.0533  0.5190
   21MOL    H43 2483   4.148   0.958   7.503  2.0910 -1.2036  0.6773
   21MOL    C44 2484   4.109   0.820   7.682 -0.1980  0.5960  0.0506
   21MOL    F45 2485   3.990   0.828   7.752  0.1929 -0.3366 -0.3668
   21MOL    F46 2486   4.130   0.703   7.620 -0.1765 -0.2538  0.4344
   21MOL    C47 2487   4.228   0.857   7.764 -0.3867  0.0827  0.6235
   21MOL    H48 2488   4.209   0.959   7.797  0.5439  1.0309 -1.6752
   21MOL    H49 2489   4.314   0.874   7.700 -1.1587 -0.9940 -0.7348
   21MOL    C50 2490   4.258   0.767   7.890  0.1492  0.2409 -0.2460
   21MOL    F51 2491   4.143   0.741   7.956 -0.4806 -0.3889  0.2168
   21MOL    F52 2492   4.291   0.652   7.837 -0.0182  0.4480 -0.1337
   21MOL    C53 2493   4.376   0.832   7.985 -0.1677  0.8300  0.5833
   21MOL    H54 2494   4.355   0.934   8.016 -1.0371  1.3593 -1.6277
   21MOL    H55 2495   4.466   0.844   7.924 -1.3800  3.4803 -0.7429
   21MOL    C56 2496   4.416   0.742   8.100 -0.1660  0.5565  0.5169
   21MOL    F57 2497   4.313   0.704   8.182  0.0264 -0.2677 -0.0470
   21MOL    F58 2498   4.470   0.632   8.057 -0.1863 -0.6452  0.3276
   21MOL    C59 2499   4.514   0.805   8.200  0.2230 -0.4514 -0.3893
   21MOL    H60 2500   4.608   0.825   8.148 -0.3092 -0.1873 -1.2455
   21MOL    H61 2501   4.540   0.729   8.274 -0.4049 -1.7243 -1.4516
   21MOL    C62 2502   4.481   0.944   8.254 -0.0127 -0.2024  0.2429
   21MOL    F63 2503   4.510   1.036   8.161 -0.6603  0.5393  0.0559
   21MOL    F64 2504   4.353   0.937   8.269 -0.3956  0.1452  0.6906
   21MOL    C65 2505   4.537   0.977   0.040  1.0226  0.9914  0.9069
   21MOL    H66 2506   4.499   0.896   0.102 -0.1009  1.3169  0.6384
   21MOL    H67 2507   4.478   1.056   0.084 -0.0967 -0.0145  1.2300
   21MOL    C68 2508   4.690   0.995   0.051  0.2881 -0.6942  0.0312
   21MOL    F69 2509   4.746   0.886   0.008 -0.4015  0.4188 -0.4601
   21MOL    F70 2510   4.726   1.093   8.322 -0.0577  0.1221 -0.1379
   21MOL    C71 2511   4.739   1.018   0.202  1.0341  0.5316 -0.2492
   21MOL    H72 2512   4.698   0.934   0.257 -1.0440  0.8421 -1.2697
   21MOL    H73 2513   4.670   1.094   0.238  1.4378  0.4440  0.7232
   21MOL    C74 2514   4.891   1.037   0.224  0.1720  0.6159 -0.3378
   21MOL    F75 2515   4.967   0.989   0.126  0.2770  0.1710  0.2377
   21MOL    F76 2516   4.903   1.173   0.216 -0.0524  0.0574 -0.0604
   21MOL    C77 2517   4.951   0.992   0.362 -0.1789  0.7896 -0.1140
   21MOL    H78 2518   4.956   0.883   0.363 -0.2981  0.7825  3.5951
   21MOL    H79 2519   4.882   1.023   0.440 -0.5392  2.3432 -1.0278
   21MOL    C80 2520   5.080   1.060   0.407 -0.3084 -0.0710  0.0304
   21MOL    F81 2521   5.168   1.042   0.312 -0.1206  0.0333  0.1168
   21MOL    F82 2522   5.052   1.190   0.425  0.1392 -0.1932  0.2538
   21MOL    C83 2523   5.145   1.005   0.534 -0.0861  0.1574 -0.2271
   21MOL    H84 2524   5.158   0.898   0.520 -1.0588 -0.2178  1.6296
   21MOL    H85 2525   5.082   1.009   0.623  0.8743 -0.1830  0.4776
   21MOL    C86 2526   5.267   1.100   0.578 -0.8009  0.2687  0.4791
   21MOL    F87 2527   5.236   1.219   0.602 -0.0156 -0.2673 -0.8108
   21MOL    F88 2528   5.315   1.046   0.693  0.0021  0.6782 -0.2420
   21MOL    C89 2529   5.389   1.104   0.480 -0.3424  0.1126 -0.2969
   21MOL    H90 2530   5.465   1.169   0.524 -1.3557  0.7368  0.5704
   21MOL    H91 2531   5.371   1.150   0.383 -2.9203 -0.5435 -0.1694
   21MOL    C92 2532   5.463   0.976   0.459 -0.3506 -0.1713 -0.9098
   21MOL    F93 2533   5.546   0.968   0.563  0.3441  0.1167 -0.0262
   21MOL    F94 2534   5.388   0.865   0.464  0.4655 -0.3451 -0.7317
   21MOL    C95 2535   5.531   0.968   0.324  0.4826 -0.2041  0.0255
   21MOL    H96 2536   5.602   1.049   0.309  0.6629 -0.4501 -0.4479
   21MOL    H97 2537   5.459   0.991   0.245  0.4357 -0.5108 -0.0220
   21MOL    C98 2538   5.621   0.850   0.283  0.5293 -0.3600  0.4827
   21MOL    F99 2539   5.656   0.873   0.153 -0.4189 -0.0179 -0.4577
   21MOL   F100 2540   5.734   0.845   0.353  0.8926  0.1354  0.2500
   21MOL   C101 2541   5.555   0.714   0.286  0.3470 -0.1535  0.4247
   21MOL   H102 2542   5.455   0.744   0.254  0.1465 -0.2520  0.9490
   21MOL   H103 2543   5.542   0.682   0.390 -1.5440  1.9506  0.8765
   21MOL   C104 2544   5.617   0.611   0.191 -0.5571  0.0052  0.3764
   21MOL   F105 2545   5.595   0.650   0.068 -0.0173 -0.3121  0.1565
   21MOL   F106 2546   5.752   0.622   0.203  0.2709  0.0095 -0.2786
   21MOL   C107 2547   5.563   0.461   0.211  0.2056 -0.8936  0.5593
   21MOL   H108 2548   5.591   0.399   0.125 -0.2788  2.2186 -1.9470
   21MOL   H109 2549   5.455   0.463   0.201  0.4218  2.3863 -1.8496
   21MOL   C110 2550   5.591   0.387   0.345  0.1902 -0.1841 -0.4407
   21MOL   F111 2551   5.711   0.417   0.385  0.1239 -0.2359 -0.2297
   21MOL   F112 2552   5.505   0.427   0.437  0.0116 -0.0235 -0.9223
   21MOL   C113 2553   5.603   0.237   0.330 -0.2642  0.6573  0.0906
   21MOL   H114 2554   5.635   0.194   0.425 -1.5131 -1.5403 -0.4577
   21MOL   H115 2555   5.682   0.200   0.264 -1.3107 -0.5943 -0.4851
   21MOL   C116 2556   5.479   0.158   0.284  0.3578 -0.7571  0.7065
   21MOL   F117 2557   5.444   0.211   0.166  0.2275 -0.0815 -0.2527
   21MOL   F118 2558   5.512   0.032   0.271 -1.0625 -0.0700 -0.3806
   21MOL   C119 2559   5.354   0.172   0.368 -0.1485 -0.3023 -1.0679
   21MOL   H120 2560   5.268   0.175   0.302 -0.6631 -0.3691 -0.4023
   21MOL   H121 2561   5.351   0.256   0.437 -1.5954 -1.9711  0.9658
   21MOL   H122 2562   5.342   0.087   0.436 -1.1833 -0.0476 -0.9381
   22MOL     C1 2563   2.876   3.053   5.030  0.1294 -0.2848 -0.2572
   22MOL     F2 2564   2.759   3.018   5.087 -0.0384  0.3112 -0.4940
   22MOL     F3 2565   2.916   3.168   5.082 -0.1677  0.0212 -0.0594
   22MOL     C4 2566   2.867   3.078   4.876 -0.2641 -1.0066 -0.2152
   22MOL     H5 2567   2.965   3.119   4.852 -0.8524  0.6260  0.1535
   22MOL     H6 2568   2.795   3.156   4.852 -0.2274 -1.2397 -1.0953
   22MOL     H7 2569   2.954   2.978   5.042  0.2762  0.1284  1.5339
   22MOL     C8 2570   2.836   2.950   4.793 -0.2698  0.0141 -0.3619
   22MOL     F9 2571   2.942   2.871   4.784 -0.3359 -0.2791 -0.1304
   22MOL    F10 2572   2.739   2.898   4.869 -0.7042  0.4282 -0.2820
   22MOL    C11 2573   2.794   2.990   4.652  0.3558  0.5361 -0.0374
   22MOL    H12 2574   2.873   3.046   4.602 -0.5693  1.8105 -0.1125
   22MOL    H13 2575   2.704   3.052   4.651 -1.0957 -1.5059 -0.1059
   22MOL    C14 2576   2.752   2.872   4.561 -0.1317 -0.0306  0.9919
   22MOL    F15 2577   2.657   2.804   4.621 -0.1264 -0.2726  0.4371
   22MOL    F16 2578   2.698   2.935   4.463  0.5091  0.6240 -0.0728
   22MOL    C17 2579   2.867   2.777   4.504  0.0888  0.3524 -0.0130
   22MOL    H18 2580   2.911   2.726   4.590 -1.5044 -0.6158  0.2488
   22MOL    H19 2581   2.941   2.850   4.472 -0.8600  1.3006 -0.0850
   22MOL    C20 2582   2.828   2.681   4.388 -0.1937 -0.9597  0.2148
   22MOL    F21 2583   2.793   2.749   4.281  0.8276  0.2269  0.1911
   22MOL    F22 2584   2.950   2.620   4.367  0.1733 -0.3050 -0.2303
   22MOL    C23 2585   2.726   2.577   4.438  0.3386  0.1813  1.2395
   22MOL    H24 2586   2.624   2.614   4.449 -0.0895 -1.2146  2.2136
   22MOL    H25 2587   2.770   2.536   4.529  2.0739 -2.3408 -0.6804
   22MOL    C26 2588   2.700   2.458   4.341 -0.2077  0.1395 -0.3527
   22MOL    F27 2589   2.643   2.520   4.232  0.0974  0.1592  0.3936
   22MOL    F28 2590   2.812   2.393   4.299 -0.2200 -0.0811 -0.6656
   22MOL    C29 2591   2.606   2.349   4.389 -0.1487  0.5358 -0.3387
   22MOL    H30 2592   2.656   2.281   4.457  1.1251  2.5012  0.7581
   22MOL    H31 2593   2.583   2.274   4.313  0.2472 -0.4863  0.5405
   22MOL    C32 2594   2.469   2.394   4.446 -0.1364 -0.1650  0.2116
   22MOL    F33 2595   2.478   2.475   4.561  0.3029 -0.6372  0.1412
   22MOL    F34 2596   2.408   2.469   4.354  0.1078  0.3480 -1.0579
   22MOL    C35 2597   2.380   2.269   4.485 -0.2264 -0.6429 -0.2367
   22MOL    H36 2598   2.425   2.227   4.575  1.6169 -0.8756 -1.2444
   22MOL    H37 2599   2.392   2.187   4.414  0.7012 -0.5460 -0.1979
   22MOL    C38 2600   2.237   2.287   4.509 -0.1847 -0.6348 -0.5807
   22MOL    F39 2601   2.194   2.174   4.566 -0.2721 -0.1429  0.0411
   22MOL    F40 2602   2.225   2.387   4.600 -0.0089 -0.6654  0.2417
   22MOL    C41 2603   2.153   2.316   4.381  0.3284 -0.1588  0.4026
   22MOL    H42 2604   2.188   2.256   4.296 -2.4636 -0.3626 -0.6760
   22MOL    H43 2605   2.149   2.424   4.367 -0.6506 -0.1192  0.9477
   22MOL    C44 2606   2.000   2.287   4.385  0.1712  0.5717  0.0077
   22MOL    F45 2607   1.948   2.354   4.487  0.5011 -0.5098 -0.0848
   22MOL    F46 2608   1.951   2.343   4.274 -0.0240 -0.0681 -0.1730
   22MOL    C47 2609   1.961   2.143   4.399 -0.1411 -0.4912 -0.1944
   22MOL    H48 2610   1.965   2.117   4.505 -1.4078  0.6922  0.1627
   22MOL    H49 2611   2.024   2.080   4.337 -1.7585 -1.1699 -1.1719
   22MOL    C50 2612   1.817   2.101   4.354 -0.6051 -0.3063 -0.3708
   22MOL    F51 2613   1.806   2.114   4.222 -0.3052 -0.1397 -0.4542
   22MOL    F52 2614   1.822   1.975   4.381 -0.3676 -0.6442  0.0950
   22MOL    C53 2615   1.696   2.165   4.418  0.7313  0.5748  0.0738
   22MOL    H54 2616   1.706   2.273   4.405  3.2407  0.4198  0.4398
   22MOL    H55 2617   1.698   2.132   4.522  0.5676  0.2000 -0.0390
   22MOL    C56 2618   1.555   2.135   4.364  0.2771 -0.5384  0.0380
   22MOL    F57 2619   1.515   2.012   4.408 -0.3341 -0.2469  0.1573
   22MOL    F58 2620   1.477   2.215   4.439  0.8481 -0.3590  0.4753
   22MOL    C59 2621   1.531   2.149   4.208  0.2100  0.0904 -0.3874
   22MOL    H60 2622   1.568   2.052   4.175 -2.8336 -0.3378 -2.7805
   22MOL    H61 2623   1.596   2.225   4.166  1.8682 -1.7733 -1.2569
   22MOL    C62 2624   1.388   2.171   4.164  0.7961  0.1326  0.4317
   22MOL    F63 2625   1.352   2.283   4.225 -0.0861 -0.2801  0.2699
   22MOL    F64 2626   1.387   2.199   4.036 -0.6103 -0.0740  0.1272
   22MOL    C65 2627   1.289   2.067   4.196 -0.0213  0.3582  0.1178
   22MOL    H66 2628   1.269   2.077   4.303 -2.7736  3.7404 -0.6111
   22MOL    H67 2629   1.330   1.968   4.181 -1.4744 -0.1289 -0.7763
   22MOL    C68 2630   1.150   2.056   4.122  0.1225 -0.4748 -0.4532
   22MOL    F69 2631   1.078   2.164   4.167  0.5247  0.7515 -0.0058
   22MOL    F70 2632   1.166   2.076   3.994 -0.7954  0.1854 -0.0795
   22MOL    C71 2633   1.060   1.936   4.165  0.0620  0.9319 -0.4100
   22MOL    H72 2634   0.954   1.943   4.139  0.2508 -2.6550 -2.4975
   22MOL    H73 2635   1.058   1.938   4.274  0.0649 -0.7150 -0.3596
   22MOL    C74 2636   1.111   1.797   4.122  0.1810 -0.1050  0.1453
   22MOL    F75 2637   1.117   1.791   3.989  0.8562 -0.1839 -0.7448
   22MOL    F76 2638   1.232   1.778   4.167  0.0439 -1.0548  0.1586
   22MOL    C77 2639   1.023   1.688   4.187 -0.0260 -0.5536 -0.4013
   22MOL    H78 2640   0.923   1.696   4.145 -0.5596 -0.5335  0.8680
   22MOL    H79 2641   1.011   1.703   4.294  2.3433  0.0453 -0.1997
   22MOL    C80 2642   1.066   1.542   4.166  0.0320  0.1548  0.1348
   22MOL    F81 2643   1.072   1.514   4.038  0.3360  0.3710 -0.1594
   22MOL    F82 2644   1.180   1.511   4.227  0.5328 -0.0313 -0.3266
   22MOL    C83 2645   0.964   1.444   4.227  0.8185 -0.6537 -0.5340
   22MOL    H84 2646   0.994   1.344   4.194  1.2324 -0.8501  0.4159
   22MOL    H85 2647   0.864   1.462   4.188  0.8951 -0.1603 -0.5013
   22MOL    C86 2648   0.944   1.448   4.375  0.2546 -0.3929 -0.2509
   22MOL    F87 2649   0.878   1.561   4.409 -0.3281  0.1038  0.0439
   22MOL    F88 2650   0.855   1.348   4.392  0.0371  0.1484  0.4089
   22MOL    C89 2651   1.073   1.429   4.461  0.4491 -0.3273 -0.6308
   22MOL    H90 2652   1.122   1.526   4.467 -0.5463  0.3352 -2.7018
   22MOL    H91 2653   1.135   1.363   4.401  1.2230 -0.5286  0.3832
   22MOL    C92 2654   1.051   1.375   4.606 -0.4318  0.2538 -0.1700
   22MOL    F93 2655   1.171   1.368   4.664  0.5011 -0.3035 -0.0904
   22MOL    F94 2656   0.973   1.458   4.677  0.1975  0.0334 -0.3678
   22MOL    C95 2657   0.988   1.238   4.611 -0.0230 -0.2468 -0.1354
   22MOL    H96 2658   1.025   1.176   4.530  0.2444  0.5855 -0.6514
   22MOL    H97 2659   0.880   1.247   4.598 -0.0441  0.2607  0.3693
   22MOL    C98 2660   1.000   1.165   4.746  0.5159  0.0156 -0.2273
   22MOL    F99 2661   0.953   1.247   4.833  0.3404  0.3659  0.0988
   22MOL   F100 2662   0.914   1.062   4.739  0.0829 -0.0982  0.0743
   22MOL   C101 2663   1.147   1.119   4.770  0.5428 -0.0355  0.0735
   22MOL   H102 2664   1.234   1.179   4.741  0.7516  0.7899  2.3119
   22MOL   H103 2665   1.140   1.031   4.706  0.4409  1.6494 -2.3217
   22MOL   C104 2666   1.159   1.071   4.912  0.0069  0.4402 -0.8021
   22MOL   F105 2667   1.041   1.015   4.945  0.0681  0.4460 -0.3734
   22MOL   F106 2668   1.248   0.963   4.920 -0.2310  0.0579 -0.3464
   22MOL   C107 2669   1.199   1.185   5.007  0.2552 -0.3326 -0.7553
   22MOL   H108 2670   1.118   1.256   5.021 -0.8911 -1.8673  0.6514
   22MOL   H109 2671   1.281   1.240   4.962  0.4180  1.6247  1.8232
   22MOL   C110 2672   1.245   1.143   5.150  0.0390  0.2149  0.1398
   22MOL   F111 2673   1.148   1.068   5.200 -0.1486  0.2140 -0.5585
   22MOL   F112 2674   1.350   1.060   5.135  0.6473 -0.2250  0.3751
   22MOL   C113 2675   1.283   1.266   5.242 -0.3022 -0.5775  0.2492
   22MOL   H114 2676   1.196   1.332   5.235  0.7268  0.7350 -0.3985
   22MOL   H115 2677   1.363   1.324   5.197 -2.1270 -0.0049 -2.4094
   22MOL   C116 2678   1.328   1.216   5.382 -0.1107  0.2699  0.6007
   22MOL   F117 2679   1.350   1.318   5.469 -0.0054  0.3927 -0.3443
   22MOL   F118 2680   1.244   1.131   5.434 -0.1049 -0.1701 -0.0391
   22MOL   C119 2681   1.464   1.135   5.384 -0.1542 -0.0430  0.3257
   22MOL   H120 2682   1.528   1.177   5.307  0.1482  0.6025  0.9315
   22MOL   H121 2683   1.451   1.027   5.370  0.3874  0.0844 -1.3904
   22MOL   H122 2684   1.514   1.136   5.480  1.0529 -0.1536 -0.2959
   23MOL     C1 2685   6.315   4.851   6.618  0.5228  0.3811 -0.3816
   23MOL     F2 2686   6.446   4.845   6.593  0.0796 -0.1264  0.5273
   23MOL     F3 2687   6.255   4.940   6.546 -0.0679 -0.2912 -0.0889
   23MOL     C4 2688   6.285   4.865   6.771 -0.0274 -0.0840  0.2595
   23MOL     H5 2689   6.332   4.779   6.818  0.6428  1.3725  2.3234
   23MOL     H6 2690   6.179   4.858   6.792 -0.3886  0.4141 -1.3044
   23MOL     H7 2691   6.283   4.753   6.584 -2.4579  0.2818  2.4644
   23MOL     C8 2692   6.325   5.004   6.828 -0.0166 -0.3264 -0.2948
   23MOL     F9 2693   6.452   5.032   6.804  0.0596  0.4330 -0.0884
   23MOL    F10 2694   6.251   5.092   6.765 -0.1222 -0.4689  0.2943
   23MOL    C11 2695   6.311   5.015   6.977 -1.1740 -0.5877 -0.3085
   23MOL    H12 2696   6.355   4.922   7.013 -0.7983  0.0601  0.9318
   23MOL    H13 2697   6.203   5.007   6.988 -1.2165  2.0958  1.6342
   23MOL    C14 2698   6.353   5.145   7.047  0.1435 -0.2552  0.0668
   23MOL    F15 2699   6.485   5.140   7.060  0.5176 -0.0967  0.6947
   23MOL    F16 2700   6.326   5.244   6.964 -0.3010 -0.0870  0.0791
   23MOL    C17 2701   6.287   5.175   7.187  0.0924  0.1815  0.0114
   23MOL    H18 2702   6.182   5.180   7.160  0.0688  0.4163  0.1474
   23MOL    H19 2703   6.318   5.268   7.235 -1.5219 -0.2587  1.9967
   23MOL    C20 2704   6.297   5.058   7.290  0.5595 -0.0996  0.0220
   23MOL    F21 2705   6.208   4.965   7.237 -0.2319 -0.3173 -0.1239
   23MOL    F22 2706   6.418   5.002   7.290 -0.3967 -0.1727  0.2111
   23MOL    C23 2707   6.242   5.084   7.435 -0.2733  0.9695 -0.0262
   23MOL    H24 2708   6.222   4.989   7.484 -1.4976  1.0056 -0.4208
   23MOL    H25 2709   6.151   5.145   7.431 -0.4396  0.7281  0.0728
   23MOL    C26 2710   6.345   5.171   7.513  0.3440  0.5349  0.0137
   23MOL    F27 2711   6.390   5.272   7.437  0.5355 -0.0254 -0.0080
   23MOL    F28 2712   6.271   5.211   7.618  0.1236  0.1392 -0.7895
   23MOL    C29 2713   6.480   5.114   7.567 -0.1287 -0.3567  0.6698
   23MOL    H30 2714   6.544   5.192   7.609 -1.9549  0.9254  1.1256
   23MOL    H31 2715   6.545   5.081   7.486 -0.5684  1.1615 -0.3271
   23MOL    C32 2716   6.471   5.006   7.680  0.5075  0.1062  0.4674
   23MOL    F33 2717   6.429   5.068   7.789 -0.3822 -0.5002  0.0985
   23MOL    F34 2718   6.377   4.919   7.643  0.2158  0.1916  0.6358
   23MOL    C35 2719   6.609   4.932   7.702  0.1355  0.0136  0.0738
   23MOL    H36 2720   6.616   4.887   7.801  2.4045 -0.3051 -0.2052
   23MOL    H37 2721   6.682   5.010   7.726  0.0327 -0.2737  1.3976
   23MOL    C38 2722   6.644   4.832   7.588  0.3141  0.1773 -0.4084
   23MOL    F39 2723   6.550   4.736   7.591 -0.0485 -0.2054  0.2939
   23MOL    F40 2724   6.629   4.882   7.470 -0.6931  0.2324 -0.2267
   23MOL    C41 2725   6.788   4.771   7.610 -0.3041 -0.7044 -0.2954
   23MOL    H42 2726   6.792   4.755   7.718 -1.2836  0.1826 -0.1163
   23MOL    H43 2727   6.862   4.850   7.599 -0.8740 -0.0716  0.2989
   23MOL    C44 2728   6.822   4.641   7.531  0.1166  0.0355 -0.0522
   23MOL    F45 2729   6.943   4.605   7.578 -0.6833  0.1583 -0.4586
   23MOL    F46 2730   6.738   4.539   7.551  0.2860  0.2074  0.5782
   23MOL    C47 2731   6.822   4.664   7.380  0.4218 -0.7303  0.3656
   23MOL    H48 2732   6.891   4.741   7.346 -0.9225 -0.1380 -1.0705
   23MOL    H49 2733   6.730   4.712   7.348  0.3638  1.1935  3.2755
   23MOL    C50 2734   6.850   4.542   7.285  0.3731 -0.6070  0.1165
   23MOL    F51 2735   6.953   4.478   7.331  0.1797 -0.5067  0.1667
   23MOL    F52 2736   6.746   4.459   7.292 -0.1259 -0.1601  0.5127
   23MOL    C53 2737   6.885   4.578   7.139 -0.2775  0.1146  0.0363
   23MOL    H54 2738   6.883   4.488   7.078  3.4968  0.3291 -0.4749
   23MOL    H55 2739   6.983   4.623   7.129 -0.6823  1.2566  0.9204
   23MOL    C56 2740   6.783   4.672   7.067  0.0951  0.2365 -0.5867
   23MOL    F57 2741   6.660   4.627   7.074 -0.4426 -0.4475  0.1199
   23MOL    F58 2742   6.786   4.789   7.125  0.8945 -0.6221 -0.1499
   23MOL    C59 2743   6.815   4.687   6.917  0.1259  0.8194 -0.2938
   23MOL    H60 2744   6.813   4.590   6.866 -0.5402  0.0950  1.0719
   23MOL    H61 2745   6.915   4.729   6.906 -1.1209  3.4358 -2.1999
   23MOL    C62 2746   6.719   4.785   6.840  0.1948 -0.2963 -0.3400
   23MOL    F63 2747   6.591   4.743   6.863  0.2041  0.0023 -0.1056
   23MOL    F64 2748   6.725   4.904   6.899  0.5705  0.0790 -0.7370
   23MOL    C65 2749   6.753   4.787   6.687 -0.0315  0.1411 -0.8108
   23MOL    H66 2750   6.689   4.858   6.634  0.6695  0.8652 -0.7069
   23MOL    H67 2751   6.716   4.695   6.642 -0.8775  1.1539 -2.2408
   23MOL    C68 2752   6.898   4.829   6.658  0.0991  0.0881 -0.0353
   23MOL    F69 2753   6.925   4.928   6.748 -0.8049  0.3429  0.0738
   23MOL    F70 2754   6.988   4.731   6.663  0.2197 -0.2034 -0.1461
   23MOL    C71 2755   6.917   4.883   6.509 -0.3097  0.0089  0.6144
   23MOL    H72 2756   7.019   4.915   6.489  0.3614 -1.5631  1.4758
   23MOL    H73 2757   6.865   4.978   6.498 -1.3032 -0.6506 -0.4544
   23MOL    C74 2758   6.862   4.792   6.400  0.1472 -0.0185  0.6466
   23MOL    F75 2759   6.729   4.781   6.414 -0.3383  0.6401  0.1035
   23MOL    F76 2760   6.899   4.848   6.285  0.0525  0.6151  0.1286
   23MOL    C77 2761   6.928   4.651   6.392 -0.0390  0.0099  0.8151
   23MOL    H78 2762   6.866   4.590   6.458  1.8853 -3.2095 -0.2926
   23MOL    H79 2763   7.028   4.657   6.434  0.7861 -0.1049 -1.1116
   23MOL    C80 2764   6.937   4.586   6.259 -0.0431  0.0382 -0.2710
   23MOL    F81 2765   7.024   4.654   6.185 -0.3461 -0.0233  0.2306
   23MOL    F82 2766   6.976   4.463   6.285  0.1710 -0.0576  0.7025
   23MOL    C83 2767   6.804   4.578   6.185  0.6321 -0.6292  0.7096
   23MOL    H84 2768   6.770   4.676   6.152  1.7193  0.6186  3.1496
   23MOL    H85 2769   6.723   4.542   6.248 -1.3384 -0.3368 -1.6236
   23MOL    C86 2770   6.808   4.494   6.050 -0.0488 -0.3323  0.3195
   23MOL    F87 2771   6.911   4.522   5.983  0.8567  0.3001  0.4471
   23MOL    F88 2772   6.826   4.371   6.093  0.6118  0.1343 -0.0232
   23MOL    C89 2773   6.685   4.503   5.967  0.8113  0.4042 -0.1354
   23MOL    H90 2774   6.695   4.438   5.880  0.6703 -2.7409  2.1247
   23MOL    H91 2775   6.686   4.610   5.946 -0.1930  0.6377  0.9459
   23MOL    C92 2776   6.553   4.451   6.030 -0.1771  0.2225  0.0249
   23MOL    F93 2777   6.528   4.514   6.147  0.2789 -0.4469  0.0216
   23MOL    F94 2778   6.450   4.491   5.950  0.0511 -0.3351  0.4485
   23MOL    C95 2779   6.542   4.296   6.040 -0.0641  0.4006 -0.3094
   23MOL    H96 2780   6.630   4.259   6.092  0.8508  1.0317 -1.3805
   23MOL    H97 2781   6.540   4.255   5.939  1.3362  1.4510 -0.7825
   23MOL    C98 2782   6.417   4.223   6.101  0.0391 -0.1340  0.4784
   23MOL    F99 2783   6.303   4.265   6.031 -0.0258  0.1007  0.2983
   23MOL   F100 2784   6.438   4.092   6.078 -0.3115  0.2086 -0.0569
   23MOL   C101 2785   6.399   4.246   6.254  0.1806 -0.7130 -0.0069
   23MOL   H102 2786   6.309   4.188   6.275 -0.9458  0.1308 -2.4133
   23MOL   H103 2787   6.372   4.350   6.275 -1.1019 -0.9051 -0.6450
   23MOL   C104 2788   6.518   4.203   6.348 -0.8063 -0.2373 -0.2528
   23MOL   F105 2789   6.549   4.074   6.315 -0.1464 -0.0405 -0.0749
   23MOL   F106 2790   6.630   4.278   6.323 -0.2302  0.0591 -0.0264
   23MOL   C107 2791   6.489   4.213   6.503 -0.0600 -0.6476 -0.0961
   23MOL   H108 2792   6.567   4.158   6.556 -2.0136 -1.6997  1.8193
   23MOL   H109 2793   6.399   4.157   6.531  0.4097 -0.6496  1.4606
   23MOL   C110 2794   6.483   4.359   6.557  0.3539  0.2667 -0.6767
   23MOL   F111 2795   6.607   4.404   6.552 -0.0797 -0.6471 -0.3144
   23MOL   F112 2796   6.391   4.434   6.498 -0.0188 -0.2683  0.1139
   23MOL   C113 2797   6.443   4.347   6.707 -0.2760 -0.0428  0.7270
   23MOL   H114 2798   6.336   4.331   6.707 -0.3234  0.2617 -0.3556
   23MOL   H115 2799   6.455   4.442   6.758  0.4748 -0.0623  0.5989
   23MOL   C116 2800   6.522   4.246   6.797  0.2342 -0.3642 -0.4544
   23MOL   F117 2801   6.504   4.123   6.766  0.5975 -0.2221  0.2487
   23MOL   F118 2802   6.651   4.270   6.788 -0.3925  0.2033  0.5905
   23MOL   C119 2803   6.492   4.260   6.949  0.8978  0.6017  0.1888
   23MOL   H120 2804   6.567   4.224   7.020  0.8321  2.1929  1.1009
   23MOL   H121 2805   6.393   4.229   6.984  0.8854  0.8113  0.3415
   23MOL   H122 2806   6.479   4.365   6.976 -1.7073  0.2591  0.4298
   24MOL     C1 2807   5.463   1.375   5.455 -0.8578  0.4071 -0.5138
   24MOL     F2 2808   5.457   1.489   5.390 -0.1339 -0.5573  0.3184
   24MOL     F3 2809   5.425   1.276   5.374  0.1506 -0.3275 -0.2015
   24MOL     C4 2810   5.367   1.382   5.568 -0.6145  0.1471 -0.1360
   24MOL     H5 2811   5.263   1.383   5.536  0.0383 -0.4971 -2.4376
   24MOL     H6 2812   5.388   1.477   5.617 -2.3114  0.3090  0.2936
   24MOL     H7 2813   5.566   1.358   5.487 -1.1036  0.7297  0.4806
   24MOL     C8 2814   5.372   1.259   5.670 -0.2882 -0.2977  0.0827
   24MOL     F9 2815   5.394   1.149   5.599  0.5133  0.3243  0.1910
   24MOL    F10 2816   5.475   1.279   5.753  0.1353  0.6294 -0.1919
   24MOL    C11 2817   5.244   1.234   5.761  0.2439  0.1602 -0.3442
   24MOL    H12 2818   5.157   1.236   5.695 -0.7623 -1.3256  0.9165
   24MOL    H13 2819   5.233   1.317   5.830 -0.9457  0.7079 -1.1738
   24MOL    C14 2820   5.250   1.098   5.845  0.1448  0.2537 -0.0477
   24MOL    F15 2821   5.236   0.994   5.768  0.3362  0.0106  0.0002
   24MOL    F16 2822   5.365   1.079   5.905 -0.6751  0.3410 -0.4751
   24MOL    C17 2823   5.142   1.094   5.943  0.1156 -0.5056  0.0043
   24MOL    H18 2824   5.150   1.171   6.020 -0.4377 -0.7548  0.3217
   24MOL    H19 2825   5.133   0.998   5.993 -0.6731 -0.1657  0.5318
   24MOL    C20 2826   5.000   1.111   5.878  0.3525 -0.1660 -0.1227
   24MOL    F21 2827   4.923   1.088   5.988 -0.0526 -0.1122  0.4313
   24MOL    F22 2828   4.976   1.240   5.845  0.2594  0.4274 -0.0099
   24MOL    C23 2829   4.968   1.007   5.760  0.1912  0.4158 -0.1001
   24MOL    H24 2830   5.007   0.909   5.786 -0.6449  0.5393  1.7514
   24MOL    H25 2831   5.013   1.036   5.665 -0.8813  0.2218 -0.6664
   24MOL    C26 2832   4.820   1.007   5.739 -0.3691 -0.4345 -0.0274
   24MOL    F27 2833   4.756   0.923   5.828  0.6345 -0.0302  0.6671
   24MOL    F28 2834   4.761   1.124   5.747  0.2336 -0.0563 -0.0917
   24MOL    C29 2835   4.785   0.959   5.595  0.4613 -0.0095 -0.0020
   24MOL    H30 2836   4.829   1.035   5.530 -1.5243 -0.5406 -2.0175
   24MOL    H31 2837   4.677   0.960   5.585  0.2929 -0.4450  1.6594
   24MOL    C32 2838   4.836   0.816   5.564 -0.5225  0.4948 -0.0446
   24MOL    F33 2839   4.969   0.808   5.563  0.3039  0.0380  0.1031
   24MOL    F34 2840   4.792   0.731   5.650 -0.3132  0.0854 -0.0352
   24MOL    C35 2841   4.795   0.780   5.421 -0.9907  0.0554 -0.5737
   24MOL    H36 2842   4.850   0.856   5.365  0.9914 -2.0386 -1.5574
   24MOL    H37 2843   4.689   0.803   5.417 -0.5434  2.9831  2.1603
   24MOL    C38 2844   4.836   0.636   5.380  0.3171  1.1308 -0.3879
   24MOL    F39 2845   4.971   0.611   5.399 -0.3871  0.5144 -0.1746
   24MOL    F40 2846   4.762   0.559   5.458  0.1499 -0.0612 -0.1586
   24MOL    C41 2847   4.785   0.603   5.242 -0.1554 -0.1944  0.7736
   24MOL    H42 2848   4.861   0.652   5.181  0.3260  0.2220  1.6958
   24MOL    H43 2849   4.691   0.659   5.239 -0.5607 -0.9214  0.1345
   24MOL    C44 2850   4.784   0.454   5.203 -0.7541  0.3704 -0.6775
   24MOL    F45 2851   4.702   0.381   5.273  0.0250  0.4588  0.1777
   24MOL    F46 2852   4.741   0.446   5.076  0.0322 -0.7309  0.4197
   24MOL    C47 2853   4.930   0.388   5.217 -0.1288 -0.2590 -0.2863
   24MOL    H48 2854   4.961   0.404   5.320 -3.7851 -3.5314  1.4607
   24MOL    H49 2855   4.985   0.444   5.142 -2.3152 -1.8641 -3.2255
   24MOL    C50 2856   4.958   0.242   5.196  0.2317 -0.5477  0.5964
   24MOL    F51 2857   4.948   0.226   5.064 -0.3749 -0.1216 -0.3729
   24MOL    F52 2858   5.084   0.226   5.231 -0.1443 -0.0952 -0.1245
   24MOL    C53 2859   4.860   0.140   5.273 -0.2858 -0.1381 -0.5734
   24MOL    H54 2860   4.754   0.159   5.260  0.2736  2.3596 -1.8406
   24MOL    H55 2861   4.885   0.153   5.378 -1.4897 -1.0389 -0.1682
   24MOL    C56 2862   4.881   8.335   5.249  0.1697 -0.2886 -0.4503
   24MOL    F57 2863   4.870   8.319   5.111  0.5367 -0.5216  0.4282
   24MOL    F58 2864   4.997   8.300   5.296 -0.6145  0.2270  0.1329
   24MOL    C59 2865   4.787   8.231   5.310  0.1206 -0.0595 -0.7057
   24MOL    H60 2866   4.821   8.135   5.270 -1.9121 -0.6055 -1.2122
   24MOL    H61 2867   4.685   8.242   5.272  0.5987 -0.0940 -2.0269
   24MOL    C62 2868   4.778   8.244   5.466 -0.2757 -0.0163  0.7000
   24MOL    F63 2869   4.900   8.273   5.510  0.4497 -0.2587 -0.1266
   24MOL    F64 2870   4.692   0.000   5.480 -0.0245  0.5457 -0.2911
   24MOL    C65 2871   4.707   8.122   5.540 -0.6526 -0.4192 -0.1037
   24MOL    H66 2872   4.607   8.104   5.500 -0.8711 -0.9913  0.6925
   24MOL    H67 2873   4.686   8.158   5.640 -0.4602 -0.8622  0.0959
   24MOL    C68 2874   4.775   7.987   5.546  1.1506 -0.1036 -0.2422
   24MOL    F69 2875   4.707   7.898   5.617 -0.0619 -0.0765  0.4595
   24MOL    F70 2876   4.774   7.932   5.420  0.1780  0.2408 -0.1284
   24MOL    C71 2877   4.912   7.995   5.609 -0.9448 -0.1021 -0.5362
   24MOL    H72 2878   4.896   8.029   5.711 -1.2914 -1.9284  0.0348
   24MOL    H73 2879   4.984   8.063   5.563 -0.0044 -1.5921 -1.3046
   24MOL    C74 2880   4.992   7.859   5.615  0.1729 -0.1528  0.9359
   24MOL    F75 2881   4.908   7.756   5.649 -0.1776  0.0257 -0.2748
   24MOL    F76 2882   5.038   7.839   5.494 -0.2472 -0.5531 -0.6124
   24MOL    C77 2883   5.105   7.873   5.715  0.0234  0.3932  0.2951
   24MOL    H78 2884   5.160   7.780   5.708  1.6390  1.3504 -0.1108
   24MOL    H79 2885   5.078   7.863   5.820 -1.0307 -0.5374 -0.0532
   24MOL    C80 2886   5.204   7.987   5.694 -0.7038  0.5359  0.4217
   24MOL    F81 2887   5.242   7.991   5.563  0.1096  0.5846  0.3558
   24MOL    F82 2888   5.152   8.102   5.719  0.1034  0.1972  0.3336
   24MOL    C83 2889   5.330   7.976   5.783  0.2189  0.7430  0.4906
   24MOL    H84 2890   5.364   7.873   5.771  0.6368  0.9029  0.2900
   24MOL    H85 2891   5.299   7.984   5.887  1.1733 -0.6432  0.8985
   24MOL    C86 2892   5.438   8.084   5.748  0.3305  0.0796 -0.2634
   24MOL    F87 2893   5.537   8.063   5.829  0.1644 -0.2349 -0.7159
   24MOL    F88 2894   5.489   8.065   5.621  0.2575 -0.1919 -0.2125
   24MOL    C89 2895   5.390   8.233   5.770 -0.0171  0.6450  0.5476
   24MOL    H90 2896   5.331   8.241   5.862 -0.7517  0.7009  0.0819
   24MOL    H91 2897   5.316   8.260   5.694 -1.1374 -1.5103  0.8303
   24MOL    C92 2898   5.508   8.334   5.759  0.6195  0.3689 -0.7846
   24MOL    F93 2899   5.464   0.106   5.768  0.0712 -0.2029  0.6296
   24MOL    F94 2900   5.599   8.313   5.853 -0.1352  0.1508  0.3765
   24MOL    C95 2901   5.565   8.325   5.622 -0.2335  0.1944 -0.2534
   24MOL    H96 2902   5.479   8.313   5.556 -1.9352  1.6332  1.6116
   24MOL    H97 2903   5.628   8.236   5.617  0.0149  0.2834  1.0620
   24MOL    C98 2904   5.645   0.091   5.568 -0.4073 -0.4626 -0.4965
   24MOL    F99 2905   5.680   0.074   5.446 -0.0958  0.3598  0.6604
   24MOL   F100 2906   5.580   0.210   5.579 -0.4105 -0.0736  0.4083
   24MOL   C101 2907   5.773   0.113   5.657 -0.5454 -0.8189 -0.4023
   24MOL   H102 2908   5.832   0.022   5.650 -0.0055 -0.4801 -0.3747
   24MOL   H103 2909   5.747   0.130   5.762  1.1659  0.6196 -0.1799
   24MOL   C104 2910   5.873   0.218   5.606 -0.0857  0.5228 -0.0111
   24MOL   F105 2911   5.913   0.192   5.485 -0.0640 -0.2632 -0.9738
   24MOL   F106 2912   5.802   0.326   5.607 -0.0081  0.3375  0.7063
   24MOL   C107 2913   5.982   0.231   5.721 -0.0517  0.2529 -0.0653
   24MOL   H108 2914   6.023   0.132   5.740  2.4267  0.9488 -1.5714
   24MOL   H109 2915   5.943   0.260   5.818 -1.0441  0.8744 -0.6313
   24MOL   C110 2916   6.102   0.332   5.684  1.2666  0.2684 -0.8720
   24MOL   F111 2917   6.206   0.312   5.766  0.1283 -0.2186  0.1591
   24MOL   F112 2918   6.153   0.303   5.561  0.3889  0.0952 -0.1317
   24MOL   C113 2919   6.068   0.481   5.689  0.5751  0.6902  0.6422
   24MOL   H114 2920   6.049   0.509   5.792  0.0843  0.0453  0.7275
   24MOL   H115 2921   5.981   0.498   5.626  0.5827  0.0354  0.4559
   24MOL   C116 2922   6.179   0.574   5.638 -0.1917 -0.4386 -0.1012
   24MOL   F117 2923   6.296   0.523   5.675 -0.4688 -0.2529  0.1476
   24MOL   F118 2924   6.171   0.579   5.509  0.0169 -0.2803  0.1532
   24MOL   C119 2925   6.168   0.712   5.707  0.8441  0.0942 -0.2928
   24MOL   H120 2926   6.241   0.786   5.674  1.0879 -0.0925 -0.1712
   24MOL   H121 2927   6.182   0.705   5.815  0.3915 -0.6241 -0.2823
   24MOL   H122 2928   6.070   0.755   5.685  1.2414  1.0560 -0.2239
   25MOL     C1 2929   7.215   7.964   4.386  0.9044  0.1771  0.2674
   25MOL     F2 2930   7.323   7.932   4.322  0.1560 -0.4453  0.1332
   25MOL     F3 2931   7.147   7.855   4.399 -0.0202 -0.1853 -0.7538
   25MOL     C4 2932   7.120   8.046   4.308 -0.3835 -0.7515  0.1994
   25MOL     H5 2933   7.083   7.990   4.223  1.8467 -1.5521 -0.2956
   25MOL     H6 2934   7.176   8.131   4.268 -1.4042 -1.3118 -2.4964
   25MOL     H7 2935   7.244   8.003   4.484 -0.2172 -1.1312  1.1421
   25MOL     C8 2936   6.989   8.093   4.383  0.6501  0.4208 -0.5522
   25MOL     F9 2937   6.915   7.995   4.426  0.3293  0.3848 -0.1351
   25MOL    F10 2938   7.027   8.165   4.485 -0.2589 -0.0014 -0.3603
   25MOL    C11 2939   6.887   8.173   4.299 -0.0112  0.4659 -0.2502
   25MOL    H12 2940   6.813   8.214   4.368  2.5755  0.4098  2.6826
   25MOL    H13 2941   6.824   8.102   4.246 -1.3589  1.3678  0.1056
   25MOL    C14 2942   6.949   8.279   4.208 -0.1926  0.0720  0.3914
   25MOL    F15 2943   7.040   0.009   4.269 -0.3948  0.2146 -0.5048
   25MOL    F16 2944   7.010   8.218   4.106  0.2187 -0.4503 -0.1594
   25MOL    C17 2945   6.841   0.020   4.141 -0.1834  0.2499  0.0219
   25MOL    H18 2946   6.901   0.097   4.093 -1.8713 -0.2106 -2.9148
   25MOL    H19 2947   6.787   0.058   4.228 -4.3969 -0.2753 -2.2595
   25MOL    C20 2948   6.746   8.299   4.046 -0.4191  0.2941  0.3301
   25MOL    F21 2949   6.682   8.210   4.116 -0.0007 -0.3830 -0.0019
   25MOL    F22 2950   6.660   0.043   4.004 -0.1165 -0.2692  0.2376
   25MOL    C23 2951   6.805   8.242   3.907  0.2075 -0.3843  0.3789
   25MOL    H24 2952   6.722   8.206   3.846  0.2161 -0.2287  0.2753
   25MOL    H25 2953   6.871   8.162   3.939  1.6669  1.3746  1.8755
   25MOL    C26 2954   6.883   8.346   3.822 -1.2673  0.0591 -0.0768
   25MOL    F27 2955   6.809   0.099   3.786  0.0793 -0.4288  0.5572
   25MOL    F28 2956   6.986   0.043   3.885  0.5499  0.0471  0.3569
   25MOL    C29 2957   6.927   8.272   3.693 -0.4933 -0.2563 -0.4044
   25MOL    H30 2958   6.831   8.252   3.645 -0.5562 -0.0730 -0.3532
   25MOL    H31 2959   6.967   8.174   3.718  0.4257  0.3377  0.4991
   25MOL    C32 2960   7.018   0.001   3.588  0.6159 -0.1434 -0.3221
   25MOL    F33 2961   6.947   0.110   3.551 -0.4943  0.5468 -0.0486
   25MOL    F34 2962   7.126   0.038   3.655  0.0325 -0.0198  0.3520
   25MOL    C35 2963   7.060   8.265   3.467 -0.5297  0.6181 -0.4125
   25MOL    H36 2964   6.979   8.207   3.424 -0.0593 -2.1475  2.1987
   25MOL    H37 2965   7.132   8.191   3.503 -0.8115  1.0857  1.1808
   25MOL    C38 2966   7.132   8.349   3.357 -0.6358  0.0282 -0.2733
   25MOL    F39 2967   7.045   0.067   3.283  0.1006  0.1127  0.3657
   25MOL    F40 2968   7.218   0.080   3.425 -0.0793  0.2661  0.4113
   25MOL    C41 2969   7.227   8.279   3.265 -0.6280  0.2921  0.3446
   25MOL    H42 2970   7.289   8.215   3.328 -1.9279 -0.9558  0.3672
   25MOL    H43 2971   7.289   0.007   3.219 -1.0764 -0.0496 -0.8575
   25MOL    C44 2972   7.170   8.205   3.145 -0.8084  0.8891  0.4325
   25MOL    F45 2973   7.068   8.138   3.192  0.0571  0.5821  0.6953
   25MOL    F46 2974   7.129   8.288   3.048  0.4289 -0.1428  0.2719
   25MOL    C47 2975   7.267   8.094   3.085 -0.3993 -0.3497 -0.0609
   25MOL    H48 2976   7.287   8.025   3.167  0.2585 -2.6296 -2.0794
   25MOL    H49 2977   7.360   8.140   3.053 -0.7629 -0.4842 -1.3204
   25MOL    C50 2978   7.209   8.011   2.964 -0.0827  0.1489  0.6448
   25MOL    F51 2979   7.176   8.088   2.861  0.2742  0.4747  0.1835
   25MOL    F52 2980   7.312   7.931   2.923  0.1842 -0.1391  0.0991
   25MOL    C53 2981   7.090   7.910   3.001  0.0601  0.3196 -0.5418
   25MOL    H54 2982   7.008   7.980   3.017  1.2098  1.3357  0.9898
   25MOL    H55 2983   7.099   7.861   3.098 -3.2959  0.6649  0.0038
   25MOL    C56 2984   7.047   7.795   2.903 -0.0901 -0.2271  0.7307
   25MOL    F57 2985   7.060   7.845   2.781 -0.0394  0.0825 -0.1180
   25MOL    F58 2986   7.133   7.694   2.925 -0.0796 -0.3173  0.4643
   25MOL    C59 2987   6.901   7.747   2.920 -0.2045  0.1356  0.0828
   25MOL    H60 2988   6.826   7.821   2.892  0.2010  0.4503 -0.1972
   25MOL    H61 2989   6.870   7.740   3.024  0.8869  0.0931  0.4150
   25MOL    C62 2990   6.859   7.608   2.842  0.0797 -0.1296  0.0381
   25MOL    F63 2991   6.904   7.606   2.715  0.3419  0.0758  0.0206
   25MOL    F64 2992   6.913   7.505   2.906  0.1953  0.3711  0.1114
   25MOL    C65 2993   6.710   7.595   2.842  0.1031  0.4739  0.2752
   25MOL    H66 2994   6.659   7.672   2.783  0.1541  0.9090  0.7900
   25MOL    H67 2995   6.681   7.614   2.946  0.9202  0.2965  0.5374
   25MOL    C68 2996   6.647   7.461   2.787  0.3365  0.3886 -0.7433
   25MOL    F69 2997   6.689   7.375   2.878 -0.1455  0.1872 -0.2869
   25MOL    F70 2998   6.516   7.467   2.797 -0.0756  0.5809 -0.0468
   25MOL    C71 2999   6.690   7.423   2.642  0.0491  0.9836  0.2866
   25MOL    H72 3000   6.796   7.396   2.642 -0.1237  0.2186 -2.0303
   25MOL    H73 3001   6.682   7.512   2.580  0.1296  1.5575  1.0892
   25MOL    C74 3002   6.606   7.306   2.564 -0.5200  0.3285 -0.0298
   25MOL    F75 3003   6.659   7.289   2.448  0.2288 -0.0693  0.4752
   25MOL    F76 3004   6.623   7.190   2.636  0.3011  0.4121  0.2392
   25MOL    C77 3005   6.449   7.323   2.553  0.0445 -0.2533  0.1822
   25MOL    H78 3006   6.424   7.297   2.656  2.0364  0.3742  0.8374
   25MOL    H79 3007   6.399   7.249   2.490  1.4696 -0.3051 -0.9044
   25MOL    C80 3008   6.390   7.462   2.506 -0.9600  0.3297  0.1045
   25MOL    F81 3009   6.437   7.567   2.571 -0.0731 -0.0029 -0.4069
   25MOL    F82 3010   6.421   7.482   2.378  0.2641  0.1901 -0.0209
   25MOL    C83 3011   6.230   7.468   2.509 -0.5520  0.4018  0.3341
   25MOL    H84 3012   6.193   7.373   2.472 -0.8361  1.2359 -1.6051
   25MOL    H85 3013   6.200   7.535   2.429  0.3435  0.6768  0.2184
   25MOL    C86 3014   6.183   7.510   2.653  0.2207 -0.7638 -0.3742
   25MOL    F87 3015   6.251   7.432   2.731 -0.4567  0.0724 -0.0015
   25MOL    F88 3016   6.213   7.629   2.692 -0.2718 -0.3696  0.2816
   25MOL    C89 3017   6.033   7.478   2.683 -0.1558  0.1059 -0.6005
   25MOL    H90 3018   6.021   7.513   2.785 -0.6668  1.2839 -1.0501
   25MOL    H91 3019   6.017   7.371   2.696 -2.1522  0.7096  2.1635
   25MOL    C92 3020   5.927   7.539   2.593 -0.3090 -0.5227  0.2110
   25MOL    F93 3021   5.942   7.674   2.602  0.1189  0.2238  0.2071
   25MOL    F94 3022   5.947   7.508   2.462  0.2864 -0.1754 -0.0283
   25MOL    C95 3023   5.779   7.502   2.639 -1.0067  0.1300 -0.2508
   25MOL    H96 3024   5.778   7.537   2.742  0.6962  3.5523 -1.3347
   25MOL    H97 3025   5.779   7.393   2.640  0.0226  0.1324  0.4973
   25MOL    C98 3026   5.665   7.564   2.562 -0.6560  0.1393  0.3310
   25MOL    F99 3027   5.691   7.687   2.534  0.1325 -0.0150 -0.1109
   25MOL   F100 3028   5.666   7.493   2.448 -0.3809  0.0441  0.0558
   25MOL   C101 3029   5.525   7.558   2.620  0.4675 -0.3920 -0.4757
   25MOL   H102 3030   5.453   7.613   2.559  0.6058  0.7353  0.3610
   25MOL   H103 3031   5.530   7.598   2.722  0.8087 -1.9482  0.1285
   25MOL   C104 3032   5.469   7.416   2.633  0.3034 -0.0871  0.3478
   25MOL   F105 3033   5.551   7.338   2.702  0.4590  0.1471 -0.0984
   25MOL   F106 3034   5.355   7.423   2.704  0.3613 -0.2818 -0.1327
   25MOL   C107 3035   5.437   7.358   2.500 -0.5491  0.1819 -0.0281
   25MOL   H108 3036   5.522   7.319   2.444  0.3219  2.3130 -0.2608
   25MOL   H109 3037   5.387   7.427   2.433  1.3814 -0.1272 -1.8204
   25MOL   C110 3038   5.334   7.239   2.507 -0.7527 -1.0531 -0.4759
   25MOL   F111 3039   5.361   7.159   2.606  0.2702  0.1981  0.6266
   25MOL   F112 3040   5.221   7.303   2.533  0.0603  0.0921 -0.0237
   25MOL   C113 3041   5.321   7.149   2.385  0.2656  0.1011 -0.0405
   25MOL   H114 3042   5.238   7.080   2.398 -0.5651  1.0545 -0.2256
   25MOL   H115 3043   5.420   7.105   2.371  0.0036 -0.0363 -1.5506
   25MOL   C116 3044   5.284   7.224   2.254 -0.5345  0.0071 -0.2416
   25MOL   F117 3045   5.178   7.290   2.273  0.2539 -0.2382  0.1894
   25MOL   F118 3046   5.376   7.320   2.233  0.0078  0.2283 -0.1524
   25MOL   C119 3047   5.279   7.129   2.129  0.4617  0.2093  0.6296
   25MOL   H120 3048   5.358   7.054   2.134 -1.9038 -2.2383  3.1894
   25MOL   H121 3049   5.299   7.189   2.041 -1.1022  0.7081  0.5877
   25MOL   H122 3050   5.179   7.084   2.126  0.2214  0.5213  2.7405
   26MOL     C1 3051   2.790   3.813   0.956  1.0118  0.2339 -0.1552
   26MOL     F2 3052   2.771   3.745   0.838  0.6025 -0.0683  0.2266
   26MOL     F3 3053   2.835   3.943   0.939 -0.1467 -0.6493  0.6293
   26MOL     C4 3054   2.898   3.746   1.035  0.2826  0.6316  0.3903
   26MOL     H5 3055   2.988   3.763   0.976 -0.4897 -0.6297 -1.2044
   26MOL     H6 3056   2.880   3.638   1.037  1.1166  0.4625 -0.5972
   26MOL     H7 3057   2.692   3.816   1.004  1.5386 -0.4323  0.9704
   26MOL     C8 3058   2.909   3.796   1.177  0.3200  0.3487  0.0927
   26MOL     F9 3059   2.938   3.929   1.186 -0.1669 -0.3912 -0.0907
   26MOL    F10 3060   2.799   3.762   1.245  0.0158 -0.5755 -0.2318
   26MOL    C11 3061   3.025   3.742   1.251 -0.0070 -0.4632  0.2973
   26MOL    H12 3062   3.118   3.740   1.195  0.4342  0.7682  0.9781
   26MOL    H13 3063   2.999   3.637   1.260 -2.9641  0.2676  0.8048
   26MOL    C14 3064   3.063   3.803   1.392  0.6804 -0.2181  0.6365
   26MOL    F15 3065   3.155   3.714   1.440  0.0198 -0.1721 -0.0388
   26MOL    F16 3066   3.131   3.914   1.366  0.1709  0.2299 -0.1268
   26MOL    C17 3067   2.945   3.811   1.494  0.5945 -0.4960 -0.8573
   26MOL    H18 3068   2.901   3.712   1.499 -3.1234  1.0793 -0.5003
   26MOL    H19 3069   2.866   3.874   1.454 -1.6134  1.0785  5.3603
   26MOL    C20 3070   2.993   3.850   1.638  0.1890 -0.1420 -0.1332
   26MOL    F21 3071   2.892   3.834   1.729 -0.2738 -0.1680  0.0129
   26MOL    F22 3072   3.080   3.758   1.676 -0.1069  0.2493 -0.2856
   26MOL    C23 3073   3.065   3.988   1.649  0.1105 -0.2639 -0.5244
   26MOL    H24 3074   3.151   3.990   1.582  0.0611  3.0661 -0.5515
   26MOL    H25 3075   3.112   3.976   1.747 -0.5409 -1.0559 -0.3033
   26MOL    C26 3076   2.982   4.118   1.631 -0.4880 -0.3996  0.2509
   26MOL    F27 3077   2.952   4.119   1.500  0.6973 -0.4525  0.2735
   26MOL    F28 3078   2.873   4.098   1.698 -0.2103  0.3269  0.1532
   26MOL    C29 3079   3.067   4.238   1.680 -0.6195  0.4009 -0.4269
   26MOL    H30 3080   3.162   4.257   1.631 -0.3659  1.4012  0.4363
   26MOL    H31 3081   3.083   4.217   1.785 -2.7258  0.9572  0.0445
   26MOL    C32 3082   3.002   4.381   1.665 -0.2121  0.3075  0.3120
   26MOL    F33 3083   2.878   4.375   1.722 -0.2522  0.0815  0.2993
   26MOL    F34 3084   3.066   4.476   1.730 -0.7907 -0.2728  0.2910
   26MOL    C35 3085   2.959   4.430   1.524 -0.0350  0.4599 -0.6830
   26MOL    H36 3086   2.924   4.352   1.455  1.6198 -2.2687  1.4761
   26MOL    H37 3087   3.057   4.449   1.481  1.4812 -3.5117  0.8070
   26MOL    C38 3088   2.891   4.565   1.515 -0.1530  0.2770  0.2040
   26MOL    F39 3089   2.943   4.654   1.609 -0.2858 -0.3085  0.3163
   26MOL    F40 3090   2.910   4.613   1.387 -0.2729 -0.1077 -0.1944
   26MOL    C41 3091   2.735   4.555   1.527  0.1975  0.1364  0.2479
   26MOL    H42 3092   2.721   4.532   1.633 -2.4943 -1.5946 -0.4445
   26MOL    H43 3093   2.710   4.457   1.487 -2.0799  1.6042 -2.0213
   26MOL    C44 3094   2.640   4.670   1.475 -0.3928  0.1734 -0.1136
   26MOL    F45 3095   2.662   4.700   1.351 -0.4443 -0.1774 -0.0178
   26MOL    F46 3096   2.514   4.627   1.496 -0.0799 -0.5057 -0.1276
   26MOL    C47 3097   2.663   4.801   1.557 -0.1056  0.3950 -0.3945
   26MOL    H48 3098   2.768   4.829   1.547  0.6239 -2.2891 -0.5035
   26MOL    H49 3099   2.658   4.767   1.661  0.9425 -0.1683 -0.5183
   26MOL    C50 3100   2.557   4.915   1.527 -0.0360 -0.0947  0.0370
   26MOL    F51 3101   2.546   4.944   1.396  0.2545 -0.3036  0.7199
   26MOL    F52 3102   2.436   4.869   1.567  0.1248 -0.2078  0.3951
   26MOL    C53 3103   2.596   5.052   1.587  0.3105  0.0416 -0.0677
   26MOL    H54 3104   2.535   5.135   1.551 -1.8238 -0.9271  1.1884
   26MOL    H55 3105   2.691   5.086   1.548  0.2495 -1.2428 -1.3499
   26MOL    C56 3106   2.607   5.059   1.741 -0.4798  0.1206  0.2734
   26MOL    F57 3107   2.494   5.018   1.797 -0.1909 -0.1639  0.1788
   26MOL    F58 3108   2.700   4.985   1.781 -0.0330  0.0670  0.2672
   26MOL    C59 3109   2.652   5.193   1.798  0.4711 -0.7439 -0.4272
   26MOL    H60 3110   2.621   5.269   1.725 -0.8319 -0.6582  0.1978
   26MOL    H61 3111   2.761   5.193   1.801  0.4891 -2.1028 -1.1163
   26MOL    C62 3112   2.586   5.251   1.927  0.1420  0.6035  0.2315
   26MOL    F63 3113   2.450   5.267   1.898 -0.2016 -0.5078 -0.1961
   26MOL    F64 3114   2.591   5.158   2.021 -0.1191  0.5395  0.0658
   26MOL    C65 3115   2.650   5.382   1.985  0.1580  0.2967  0.0306
   26MOL    H66 3116   2.651   5.457   1.906 -2.0491 -3.6737 -3.9765
   26MOL    H67 3117   2.758   5.377   2.000  0.1113  1.7691  0.9772
   26MOL    C68 3118   2.580   5.434   2.121 -0.0351 -0.0387 -0.7165
   26MOL    F69 3119   2.606   5.353   2.226  0.2725 -0.2031  0.0566
   26MOL    F70 3120   2.659   5.542   2.150 -0.0011  0.4742  0.0438
   26MOL    C71 3121   2.429   5.479   2.104  0.1410 -0.0237  0.4310
   26MOL    H72 3122   2.361   5.398   2.078  2.3472 -1.5493 -0.6950
   26MOL    H73 3123   2.419   5.537   2.012  2.9429 -1.9944 -1.1807
   26MOL    C74 3124   2.377   5.560   2.224 -0.1127  0.0063  0.5608
   26MOL    F75 3125   2.447   5.676   2.228 -0.3785  0.1274  0.3421
   26MOL    F76 3126   2.258   5.597   2.182  0.2197 -0.5912  0.0946
   26MOL    C77 3127   2.368   5.484   2.360  0.7326  0.3743  0.7671
   26MOL    H78 3128   2.470   5.456   2.387  1.8134 -0.2030 -3.5561
   26MOL    H79 3129   2.315   5.390   2.341 -0.1820  0.2856  3.4272
   26MOL    C80 3130   2.295   5.564   2.472  0.0849 -0.0353 -0.1252
   26MOL    F81 3131   2.317   5.492   2.583  0.3923 -0.1337  0.1420
   26MOL    F82 3132   2.355   5.689   2.484 -0.1236 -0.0763  0.3124
   26MOL    C83 3133   2.144   5.587   2.460  0.6666 -0.1968 -0.5786
   26MOL    H84 3134   2.096   5.524   2.385  0.0546  0.0881 -0.4297
   26MOL    H85 3135   2.147   5.680   2.404  3.3851 -0.2159 -0.5449
   26MOL    C86 3136   2.054   5.605   2.577  0.0492  0.1933 -0.9329
   26MOL    F87 3137   1.933   5.638   2.532  0.3541  0.4609  0.1735
   26MOL    F88 3138   2.032   5.481   2.636  0.2158  0.0109 -0.4153
   26MOL    C89 3139   2.108   5.709   2.679 -0.5568  0.2581  0.0082
   26MOL    H90 3140   2.169   5.787   2.634 -0.7346 -1.1003 -2.6692
   26MOL    H91 3141   2.182   5.662   2.745  1.2855  1.9837 -0.7730
   26MOL    C92 3142   2.009   5.774   2.769 -0.3844 -0.6095  0.6615
   26MOL    F93 3143   2.091   5.841   2.846 -0.9688 -0.0592 -0.0209
   26MOL    F94 3144   1.932   5.857   2.700  0.2932  0.2173 -0.2988
   26MOL    C95 3145   1.931   5.661   2.845 -0.4488 -0.2138 -0.4480
   26MOL    H96 3146   2.009   5.588   2.867  0.5337  0.6296 -1.1276
   26MOL    H97 3147   1.861   5.609   2.779 -1.9647  0.9067  0.2596
   26MOL    C98 3148   1.867   5.701   2.981 -0.8198  0.1028  0.4054
   26MOL    F99 3149   1.965   5.735   3.067  0.1549  0.2267  0.2230
   26MOL   F100 3150   1.798   5.812   2.952  0.2570 -0.1675  0.5155
   26MOL   C101 3151   1.767   5.600   3.037  0.4639 -0.2948  0.5952
   26MOL   H102 3152   1.689   5.594   2.962 -0.1677  3.2204  0.8815
   26MOL   H103 3153   1.707   5.648   3.114 -0.8979 -0.1113 -0.5648
   26MOL   C104 3154   1.827   5.466   3.083 -0.4032  0.0691 -0.8896
   26MOL   F105 3155   1.902   5.407   2.988  0.5894 -0.3176 -0.1136
   26MOL   F106 3156   1.910   5.502   3.189 -0.5534  0.3565  0.2474
   26MOL   C107 3157   1.723   5.358   3.127 -0.3293  0.4305  0.5240
   26MOL   H108 3158   1.786   5.292   3.187 -0.2215 -2.0721 -2.2562
   26MOL   H109 3159   1.687   5.307   3.038  0.2570 -1.9193  1.5950
   26MOL   C110 3160   1.607   5.404   3.219  0.4474  0.5814  0.5377
   26MOL   F111 3161   1.636   5.512   3.294 -0.2258 -0.7293 -0.1864
   26MOL   F112 3162   1.521   5.436   3.132 -0.1708 -0.1072 -0.1786
   26MOL   C113 3163   1.545   5.289   3.305  0.7378  0.0091 -0.7178
   26MOL   H114 3164   1.601   5.274   3.396 -1.2334 -0.6314  0.4230
   26MOL   H115 3165   1.550   5.192   3.256 -0.1056 -1.2776  1.6842
   26MOL   C116 3166   1.396   5.305   3.344  0.2837 -0.8798 -0.5107
   26MOL   F117 3167   1.317   5.300   3.235 -0.2098 -0.0090 -0.0589
   26MOL   F118 3168   1.369   5.203   3.420  0.1465  0.0298  0.1867
   26MOL   C119 3169   1.365   5.430   3.422  0.2771  0.2352  0.3496
   26MOL   H120 3170   1.430   5.430   3.509  1.1216 -0.2311 -0.2661
   26MOL   H121 3171   1.260   5.435   3.452 -0.1126 -0.5557 -0.8226
   26MOL   H122 3172   1.369   5.522   3.363  1.2841  0.7711  1.2505
   27MOL     C1 3173   4.172   8.273   6.646 -0.5013 -0.4929  0.2225
   27MOL     F2 3174   4.094   8.199   6.560  0.5032  0.0590 -0.7991
   27MOL     F3 3175   4.291   8.265   6.598  0.2850  0.3677  0.0306
   27MOL     C4 3176   4.166   8.232   6.795  0.0674 -0.5556 -0.3694
   27MOL     H5 3177   4.227   8.142   6.806 -0.0777 -0.8933 -2.1297
   27MOL     H6 3178   4.064   8.206   6.825  0.1398  0.5994  0.9144
   27MOL     H7 3179   4.148   0.027   6.625 -0.5083 -0.5347  0.0282
   27MOL     C8 3180   4.208   0.004   6.882 -0.4107 -0.5313  0.4626
   27MOL     F9 3181   4.334   0.049   6.862  0.0315  0.7844 -0.5945
   27MOL    F10 3182   4.121   0.100   6.856  0.0833  0.0727 -0.3004
   27MOL    C11 3183   4.189   8.330   7.035  0.2029  0.1086  0.0359
   27MOL    H12 3184   4.096   8.278   7.057  2.3860 -5.7032 -3.3528
   27MOL    H13 3185   4.207   0.073   7.089  1.0596  0.2078 -0.4193
   27MOL    C14 3186   4.286   8.227   7.090  0.3280 -0.2243 -0.2975
   27MOL    F15 3187   4.257   8.108   7.061 -0.4543  0.1697 -0.1003
   27MOL    F16 3188   4.412   8.262   7.054  0.1067 -0.8059 -0.3084
   27MOL    C17 3189   4.293   8.236   7.246  0.0238  0.3219  0.1237
   27MOL    H18 3190   4.333   8.335   7.269  1.3678 -0.0591 -0.5116
   27MOL    H19 3191   4.378   8.172   7.266  1.3926  2.5110  1.5455
   27MOL    C20 3192   4.172   8.191   7.330  0.1025  0.0563  0.3059
   27MOL    F21 3193   4.066   8.279   7.320 -0.4311  0.0485 -0.2261
   27MOL    F22 3194   4.136   8.077   7.267 -0.4504 -0.3072 -0.0308
   27MOL    C23 3195   4.190   8.173   7.483  0.1821  0.2183  0.0973
   27MOL    H24 3196   4.246   8.257   7.524  2.8418 -1.2351 -0.4054
   27MOL    H25 3197   4.267   8.096   7.491  1.8089  1.7303 -0.5171
   27MOL    C26 3198   4.067   8.122   7.563 -0.1167  0.4135 -0.5460
   27MOL    F27 3199   3.965   8.205   7.558 -0.1665 -0.2126  0.0112
   27MOL    F28 3200   4.044   7.992   7.523  0.2258 -0.5953 -0.2162
   27MOL    C29 3201   4.104   8.116   7.713 -0.2036  0.2904  0.6241
   27MOL    H30 3202   4.130   8.217   7.745 -0.5256 -0.6873  4.1598
   27MOL    H31 3203   4.192   8.052   7.721 -3.2064 -3.8959  1.8726
   27MOL    C32 3204   4.002   8.056   7.808 -0.5988 -0.5158 -0.4635
   27MOL    F33 3205   3.897   8.130   7.818 -0.3976 -0.4852  0.4771
   27MOL    F34 3206   3.966   7.934   7.769  0.0648  0.1527  0.0470
   27MOL    C35 3207   4.047   8.043   7.957  0.8195 -0.5889 -0.6239
   27MOL    H36 3208   4.088   8.127   8.014 -1.2540  0.1143 -0.1218
   27MOL    H37 3209   4.134   7.977   7.958  1.5170  0.3063 -0.9640
   27MOL    C38 3210   3.945   7.971   8.053 -0.6069  0.5011 -0.1967
   27MOL    F39 3211   3.911   7.857   7.999  0.0072  0.2430  0.4774
   27MOL    F40 3212   4.011   7.953   8.164 -0.1141  0.7835 -0.1803
   27MOL    C41 3213   3.821   8.049   8.097  0.0204 -0.2722  0.1361
   27MOL    H42 3214   3.772   7.996   8.179  2.1748 -0.3001  1.4518
   27MOL    H43 3215   3.757   8.062   8.010  0.7896  2.4628 -0.0566
   27MOL    C44 3216   3.850   8.196   8.149  0.5745 -0.9368 -0.4572
   27MOL    F45 3217   3.955   8.195   8.231  0.1765  0.8642  0.5030
   27MOL    F46 3218   3.874   8.275   8.046  0.6576  0.9186 -0.0322
   27MOL    C47 3219   3.734   8.270   8.225  0.8326 -0.2346  0.5928
   27MOL    H48 3220   3.755   0.026   8.208 -0.9753  0.1048  0.2663
   27MOL    H49 3221   3.734   8.242   8.330 -1.7023 -1.9719  0.1754
   27MOL    C50 3222   3.595   8.235   8.188  0.7380  0.2823  0.5998
   27MOL    F51 3223   3.583   8.245   8.062 -0.1444 -0.1599 -0.4125
   27MOL    F52 3224   3.579   8.110   8.208 -0.0245 -0.2661 -0.2616
   27MOL    C53 3225   3.499   8.314   8.257 -0.0064  0.0756 -0.1137
   27MOL    H54 3226   3.492   8.282   0.011 -3.3430 -0.2171 -0.3888
   27MOL    H55 3227   3.402   8.283   8.219  0.3916  0.7500 -1.7296
   27MOL    C56 3228   3.501   0.122   8.239  0.0593 -0.6782 -0.4117
   27MOL    F57 3229   3.611   0.169   8.295  0.4789 -0.6134  0.4032
   27MOL    F58 3230   3.499   0.148   8.101 -0.5315  0.1130 -0.2107
   27MOL    C59 3231   3.375   0.196   8.306 -0.0763  0.5669  0.4419
   27MOL    H60 3232   3.352   0.171   0.060  0.9426  1.6286  0.9364
   27MOL    H61 3233   3.296   0.146   8.250  1.6277 -1.2235 -0.4188
   27MOL    C62 3234   3.373   0.350   8.295 -0.0046 -0.0796  0.3969
   27MOL    F63 3235   3.439   0.394   8.185 -0.2888  0.1625  0.2851
   27MOL    F64 3236   3.242   0.371   8.278 -0.3705  0.1794  0.1157
   27MOL    C65 3237   3.426   0.440   0.062  0.7157  1.0247 -0.5208
   27MOL    H66 3238   3.405   0.545   0.039 -1.2162  0.2945 -2.1951
   27MOL    H67 3239   3.533   0.419   0.068  0.7120  0.5046 -2.1052
   27MOL    C68 3240   3.367   0.415   0.201 -0.5437 -0.6845  0.6217
   27MOL    F69 3241   3.237   0.408   0.197  0.1251 -0.5452  0.5395
   27MOL    F70 3242   3.414   0.297   0.237  0.5866 -0.0065  0.4197
   27MOL    C71 3243   3.410   0.502   0.317 -0.3088  0.3626  0.1064
   27MOL    H72 3244   3.369   0.472   0.413  0.6194  1.3808  0.8359
   27MOL    H73 3245   3.360   0.599   0.307  0.7187  0.7491 -1.6233
   27MOL    C74 3246   3.557   0.529   0.330 -0.5003 -0.1440 -0.6199
   27MOL    F75 3247   3.621   0.424   0.290 -0.3344  0.1304 -0.4023
   27MOL    F76 3248   3.595   0.632   0.250 -0.0424  0.0271  0.1193
   27MOL    C77 3249   3.604   0.544   0.476  0.4848  0.5714  0.1136
   27MOL    H78 3250   3.713   0.547   0.484  0.4345 -2.2961  2.7777
   27MOL    H79 3251   3.572   0.454   0.529  2.2460  0.4866  1.0444
   27MOL    C80 3252   3.548   0.663   0.553 -0.1923 -0.8681  0.1906
   27MOL    F81 3253   3.609   0.773   0.504 -0.0745 -0.0819 -0.1459
   27MOL    F82 3254   3.413   0.679   0.547 -0.0229 -0.0639  0.2568
   27MOL    C83 3255   3.585   0.648   0.704  0.5528  0.4630  0.0640
   27MOL    H84 3256   3.682   0.603   0.727 -0.4088 -1.0029  1.3580
   27MOL    H85 3257   3.512   0.579   0.746 -0.5884  0.9198 -1.1218
   27MOL    C86 3258   3.578   0.780   0.780  0.0958 -0.1706 -1.0805
   27MOL    F87 3259   3.675   0.863   0.760  0.0382 -0.0780 -0.1789
   27MOL    F88 3260   3.464   0.844   0.753  0.2971 -0.3421  0.0942
   27MOL    C89 3261   3.570   0.766   0.933  0.6471 -0.8257  0.1298
   27MOL    H90 3262   3.476   0.717   0.956 -1.4637  2.2417 -1.6060
   27MOL    H91 3263   3.566   0.868   0.970 -2.5716 -1.2472  1.0462
   27MOL    C92 3264   3.670   0.678   1.012  0.1737 -0.2154 -0.4872
   27MOL    F93 3265   3.664   0.553   0.965  0.3482  0.4525 -0.1648
   27MOL    F94 3266   3.791   0.722   0.992 -0.1540 -0.2782 -0.5748
   27MOL    C95 3267   3.645   0.679   1.164 -0.0975 -0.1783 -0.0256
   27MOL    H96 3268   3.554   0.622   1.184 -1.4410  2.2592  1.0631
   27MOL    H97 3269   3.621   0.783   1.187  2.6043  0.2324  1.0476
   27MOL    C98 3270   3.768   0.630   1.252  0.2453  0.6713 -0.2201
   27MOL    F99 3271   3.859   0.720   1.245 -0.1357  0.2282 -0.1282
   27MOL   F100 3272   3.725   0.631   1.382 -0.0042  0.2752  0.2443
   27MOL   C101 3273   3.827   0.487   1.217 -0.2971 -0.0658  0.2137
   27MOL   H102 3274   3.869   0.487   1.117 -1.0944 -0.2249 -0.1295
   27MOL   H103 3275   3.741   0.419   1.213 -0.3277  0.0513 -1.1549
   27MOL   C104 3276   3.929   0.433   1.325 -0.0474  0.5143  0.1789
   27MOL   F105 3277   4.017   0.522   1.347  0.0513 -0.4417 -0.4695
   27MOL   F106 3278   3.868   0.408   1.442  0.0034 -0.4276 -0.3691
   27MOL   C107 3279   3.998   0.307   1.274 -0.2915 -0.4280  0.1824
   27MOL   H108 3280   4.043   0.331   1.177 -3.0577 -0.5714 -1.1858
   27MOL   H109 3281   3.917   0.240   1.243 -1.5892  0.4628  1.5653
   27MOL   C110 3282   4.107   0.231   1.347  0.5245 -0.4810  0.1814
   27MOL   F111 3283   4.151   0.142   1.254 -0.0777 -0.0151 -0.4018
   27MOL   F112 3284   4.211   0.321   1.360 -0.5044  0.2523 -0.3595
   27MOL   C113 3285   4.077   0.158   1.481 -0.1379  0.7478 -0.3223
   27MOL   H114 3286   3.999   0.084   1.464  2.2650 -2.2136  1.0005
   27MOL   H115 3287   4.027   0.218   1.556  2.1339  2.1859  0.0838
   27MOL   C116 3288   4.203   0.091   1.553 -0.2225 -0.0638 -0.0614
   27MOL   F117 3289   4.292   0.183   1.603  0.1793  0.2915  0.3622
   27MOL   F118 3290   4.166   0.034   1.666 -0.2009 -0.3676  0.2406
   27MOL   C119 3291   4.282   8.340   1.469  0.4144 -0.1850 -0.0635
   27MOL   H120 3292   4.358   8.299   1.535 -0.8633 -0.7118  1.1185
   27MOL   H121 3293   4.349   0.045   1.402  1.8066  0.5309  1.8633
   27MOL   H122 3294   4.215   8.282   1.407 -0.5704 -1.3783  2.0721
   28MOL     C1 3295   0.551   4.009   0.884  0.2946  0.3766 -1.2224
   28MOL     F2 3296   0.485   3.897   0.901 -0.7222  0.2655  0.2219
   28MOL     F3 3297   0.656   3.997   0.807 -0.0373 -0.3987  0.5217
   28MOL     C4 3298   0.610   4.063   1.012  0.2679 -0.3493  0.5308
   28MOL     H5 3299   0.680   4.143   0.989 -0.3874  0.0331 -0.1509
   28MOL     H6 3300   0.660   3.978   1.059 -0.0028  0.8932  3.1639
   28MOL     H7 3301   0.489   4.089   0.843  0.5841 -0.3257 -3.0768
   28MOL     C8 3302   0.511   4.118   1.119  0.0189 -0.2045  0.8881
   28MOL     F9 3303   0.584   4.191   1.203  0.2535 -0.6329  0.3223
   28MOL    F10 3304   0.421   4.201   1.058  0.3092  0.1040 -0.0516
   28MOL    C11 3305   0.460   4.007   1.206  1.0704  0.0433  0.2980
   28MOL    H12 3306   0.547   3.951   1.242 -1.3588 -1.9413  3.3284
   28MOL    H13 3307   0.408   3.928   1.152  0.3316 -0.6775  2.0335
   28MOL    C14 3308   0.365   4.054   1.320 -0.4739 -0.2832 -0.8528
   28MOL    F15 3309   0.440   4.131   1.401 -0.3497 -0.2613  0.4073
   28MOL    F16 3310   0.259   4.120   1.276 -0.0683  0.1826  0.2611
   28MOL    C17 3311   0.323   3.928   1.404 -0.2265  0.3114 -0.5603
   28MOL    H18 3312   0.408   3.882   1.453 -0.7188  2.7834  2.8645
   28MOL    H19 3313   0.283   3.850   1.339  3.9146 -0.6433 -2.0718
   28MOL    C20 3314   0.231   3.947   1.528  0.3325  0.0619 -0.1325
   28MOL    F21 3315   0.214   3.835   1.596 -0.3882  0.3308  0.0933
   28MOL    F22 3316   0.293   4.032   1.615 -0.2882 -0.1963 -0.1451
   28MOL    C23 3317   0.091   4.004   1.494  0.3213 -0.0946 -0.3496
   28MOL    H24 3318   0.104   4.096   1.438 -0.7224 -0.4603 -1.2042
   28MOL    H25 3319   0.042   4.041   1.584  1.5976 -1.2056  0.8421
   28MOL    C26 3320   8.340   3.924   1.403 -0.8916 -0.8586  0.3689
   28MOL    F27 3321   8.233   3.997   1.395  0.2073 -0.3259  0.4513
   28MOL    F28 3322   0.043   3.909   1.286  0.1946 -0.0694 -0.8006
   28MOL    C29 3323   8.299   3.786   1.458  0.3011  0.0323 -0.3835
   28MOL    H30 3324   8.295   3.810   1.565 -1.4968  0.3474 -0.5058
   28MOL    H31 3325   0.028   3.710   1.457  0.8436  0.5942 -1.0647
   28MOL    C32 3326   8.168   3.720   1.403  0.5890 -0.0961 -0.3632
   28MOL    F33 3327   8.159   3.598   1.456 -0.3751 -0.3662  0.3371
   28MOL    F34 3328   8.066   3.782   1.453 -0.0984 -0.2066  0.2047
   28MOL    C35 3329   8.147   3.708   1.251 -0.4119  0.4544  0.2426
   28MOL    H36 3330   8.144   3.809   1.212 -1.1023 -0.7455 -3.0321
   28MOL    H37 3331   8.050   3.658   1.239 -0.1992 -0.1224  0.8926
   28MOL    C38 3332   8.246   3.627   1.163 -0.2035 -0.0584 -1.1085
   28MOL    F39 3333   0.020   3.664   1.185 -0.5273  0.1450  0.5000
   28MOL    F40 3334   8.229   3.501   1.185  0.3087 -0.4779  0.1837
   28MOL    C41 3335   8.219   3.656   1.009 -0.2138  0.3069  0.8213
   28MOL    H42 3336   8.291   3.594   0.957 -2.8477 -2.1267 -0.0739
   28MOL    H43 3337   8.238   3.763   0.995  0.9524  0.0640  0.5188
   28MOL    C44 3338   8.080   3.613   0.958  0.1013  0.0410 -0.9201
   28MOL    F45 3339   8.058   3.496   1.006  0.3930 -0.1637 -0.4539
   28MOL    F46 3340   7.988   3.699   1.011  0.3995  0.0794  0.2638
   28MOL    C47 3341   8.063   3.608   0.805  0.6998 -0.6051  0.3141
   28MOL    H48 3342   8.145   3.549   0.763 -0.7650 -1.1216 -1.9047
   28MOL    H49 3343   8.087   3.706   0.766  0.6387 -0.1567  1.3756
   28MOL    C50 3344   7.943   3.537   0.748 -0.5400  0.6655  0.2133
   28MOL    F51 3345   7.946   3.539   0.615  0.4338  0.0240 -0.2534
   28MOL    F52 3346   7.960   3.408   0.785  0.5861  0.3628 -0.1699
   28MOL    C53 3347   7.812   3.590   0.797  0.0425  0.2326  0.2799
   28MOL    H54 3348   7.806   3.683   0.739 -1.6871  0.3867  0.6689
   28MOL    H55 3349   7.816   3.612   0.903  0.4927 -0.4341  0.3993
   28MOL    C56 3350   7.677   3.515   0.784 -0.4514 -0.4077 -0.1555
   28MOL    F57 3351   7.658   3.502   0.649  0.4784  0.2550  0.2272
   28MOL    F58 3352   7.693   3.400   0.853  0.0077 -0.3467 -0.0854
   28MOL    C59 3353   7.552   3.600   0.834 -0.4827  0.1397  0.1286
   28MOL    H60 3354   7.530   3.686   0.771  1.4392 -0.7483 -1.8341
   28MOL    H61 3355   7.573   3.649   0.929 -0.8382  0.9711 -0.2187
   28MOL    C62 3356   7.422   3.520   0.851  0.6063 -0.1737  0.0377
   28MOL    F63 3357   7.387   3.447   0.739 -0.2901 -0.6702  0.3250
   28MOL    F64 3358   7.443   3.439   0.955 -0.1321 -0.0528  0.0031
   28MOL    C65 3359   7.300   3.605   0.894  0.0237  0.9868  0.5116
   28MOL    H66 3360   7.211   3.542   0.885  0.7587  0.3872 -3.4798
   28MOL    H67 3361   7.284   3.678   0.814  2.3351  0.5787 -0.3396
   28MOL    C68 3362   7.302   3.697   1.023  0.3085 -0.0023  0.3715
   28MOL    F69 3363   7.313   3.609   1.125  0.1663  0.5048  0.3367
   28MOL    F70 3364   7.413   3.773   1.028 -0.1819  0.3744  0.2785
   28MOL    C71 3365   7.174   3.772   1.053  0.9726 -0.6251 -0.0156
   28MOL    H72 3366   7.196   3.813   1.151 -0.3590  3.4370 -1.2975
   28MOL    H73 3367   7.089   3.706   1.074 -0.3077  0.4944 -1.5219
   28MOL    C74 3368   7.135   3.888   0.952 -0.3796  0.1995  0.1570
   28MOL    F75 3369   7.231   3.976   0.937 -0.6157  0.3426 -0.3453
   28MOL    F76 3370   7.110   3.835   0.834  0.1319  0.0699  0.0165
   28MOL    C77 3371   7.005   3.960   0.996 -0.6682  0.0200 -0.3425
   28MOL    H78 3372   6.932   3.884   1.024 -0.9225  0.6113  0.6306
   28MOL    H79 3373   6.969   4.015   0.909 -2.1643  0.1661  0.3461
   28MOL    C80 3374   7.007   4.048   1.122 -0.1521  0.1362  0.9019
   28MOL    F81 3375   7.036   3.979   1.231 -0.0949 -0.1281 -0.2600
   28MOL    F82 3376   7.094   4.147   1.105 -0.1663  0.0048 -0.6585
   28MOL    C83 3377   6.872   4.112   1.144 -0.2179  0.8328  0.2778
   28MOL    H84 3378   6.817   4.039   1.203  2.7986  1.0313  3.5080
   28MOL    H85 3379   6.823   4.118   1.047 -1.3887  0.9849  0.8769
   28MOL    C86 3380   6.867   4.248   1.222 -0.6176 -0.0375  0.5710
   28MOL    F87 3381   6.918   4.251   1.346 -0.0971  0.2009 -0.0889
   28MOL    F88 3382   6.934   4.324   1.140  0.3815 -0.1883  0.0647
   28MOL    C89 3383   6.723   4.310   1.243  0.0413  0.1607  0.1366
   28MOL    H90 3384   6.673   4.314   1.146  0.6257  3.0348 -0.0982
   28MOL    H91 3385   6.750   4.411   1.273  2.4953 -0.5051  0.3193
   28MOL    C92 3386   6.618   4.238   1.330  1.0465 -0.0765  0.9906
   28MOL    F93 3387   6.505   4.304   1.303  0.4202  0.2301  0.0732
   28MOL    F94 3388   6.595   4.116   1.281  0.1102 -0.5694  0.2241
   28MOL    C95 3389   6.653   4.242   1.480  0.5437  0.2269 -0.0140
   28MOL    H96 3390   6.692   4.333   1.527 -0.7354  0.1774  1.1884
   28MOL    H97 3391   6.744   4.182   1.490  0.3989 -0.2520 -1.5145
   28MOL    C98 3392   6.544   4.176   1.566  0.2539 -0.2690 -0.2920
   28MOL    F99 3393   6.594   4.177   1.688  0.1261 -0.0490  0.0625
   28MOL   F100 3394   6.430   4.248   1.575  0.2405 -0.4409  0.2363
   28MOL   C101 3395   6.522   4.028   1.531 -0.2086  0.6611  0.1165
   28MOL   H102 3396   6.614   3.973   1.513 -0.7020 -0.9418  2.2463
   28MOL   H103 3397   6.456   4.024   1.445 -2.4119  1.1142  1.7383
   28MOL   C104 3398   6.452   3.950   1.642  0.5388  0.9975 -0.1795
   28MOL   F105 3399   6.455   3.820   1.604  0.3772  0.4422 -0.0366
   28MOL   F106 3400   6.531   3.952   1.746 -0.1750 -0.1938  0.0487
   28MOL   C107 3401   6.313   4.002   1.690  0.4963  0.4351 -0.5117
   28MOL   H108 3402   6.324   4.107   1.718 -0.3647  0.8261 -1.5975
   28MOL   H109 3403   6.295   3.948   1.783  1.1348 -0.6104 -0.9821
   28MOL   C110 3404   6.205   3.984   1.591 -0.0775 -0.2283  0.4100
   28MOL   F111 3405   6.242   4.036   1.473  0.2836  0.1730  0.2124
   28MOL   F112 3406   6.197   3.854   1.564 -0.2500  0.1992  0.3082
   28MOL   C113 3407   6.072   4.039   1.634  0.1898 -0.1965 -0.8206
   28MOL   H114 3408   5.992   4.005   1.568 -0.0016  1.3546 -1.4058
   28MOL   H115 3409   6.070   4.148   1.626 -0.3096 -0.2737 -1.7341
   28MOL   C116 3410   6.034   4.009   1.784 -0.2180 -0.2893  0.8549
   28MOL   F117 3411   6.068   3.883   1.800 -0.2585  0.8500  0.0306
   28MOL   F118 3412   6.107   4.082   1.863 -0.2144  0.0410  0.1080
   28MOL   C119 3413   5.891   4.029   1.820  0.5178  0.1322  0.9272
   28MOL   H120 3414   5.850   4.008   1.919 -0.5693  1.7172  0.8373
   28MOL   H121 3415   5.837   3.964   1.751 -0.0122  1.0544  0.4590
   28MOL   H122 3416   5.865   4.133   1.798 -2.1723 -0.2602  2.0235
   29MOL     C1 3417   3.999   6.209   2.941  0.1697 -0.5722 -0.5484
   29MOL     F2 3418   4.067   6.098   2.929 -0.6197 -0.1001 -0.9231
   29MOL     F3 3419   4.075   6.311   2.968  0.4344  0.3617  0.4201
   29MOL     C4 3420   3.876   6.207   3.041  0.1502 -0.4522 -0.6195
   29MOL     H5 3421   3.793   6.150   3.000 -2.3837  2.1615  0.7431
   29MOL     H6 3422   3.829   6.303   3.025  0.6449 -0.0838  0.1060
   29MOL     H7 3423   3.950   6.242   2.850  0.8796  1.5788 -0.1909
   29MOL     C8 3424   3.908   6.183   3.191 -0.2612 -0.1160  0.3900
   29MOL     F9 3425   3.980   6.074   3.193 -0.2118  0.4072 -0.5138
   29MOL    F10 3426   3.985   6.288   3.227  0.4550  0.4535 -0.2056
   29MOL    C11 3427   3.777   6.179   3.271  0.6918  0.2663  0.0307
   29MOL    H12 3428   3.726   6.274   3.257 -0.5997 -0.8081 -3.0730
   29MOL    H13 3429   3.805   6.182   3.376  0.9875  0.1281 -0.0447
   29MOL    C14 3430   3.670   6.065   3.233 -0.3389 -0.0483 -0.6159
   29MOL    F15 3431   3.610   6.078   3.115  0.0220 -0.7844  0.4003
   29MOL    F16 3432   3.741   5.948   3.233 -0.2534  0.3042 -0.1362
   29MOL    C17 3433   3.567   6.052   3.349  0.2276  0.1381 -0.1854
   29MOL    H18 3434   3.498   6.136   3.362  0.0193  0.0078 -0.4451
   29MOL    H19 3435   3.633   6.060   3.435  1.7694  1.7773 -1.4636
   29MOL    C20 3436   3.480   5.926   3.359  0.2075 -0.0847  0.5346
   29MOL    F21 3437   3.548   5.818   3.381 -0.1484 -0.2990 -0.0172
   29MOL    F22 3438   3.399   5.952   3.457  0.2378  0.3535  0.3177
   29MOL    C23 3439   3.398   5.896   3.224 -0.1767  0.1240 -0.2654
   29MOL    H24 3440   3.471   5.887   3.144  3.2531  2.8396  2.3767
   29MOL    H25 3441   3.331   5.982   3.215 -2.4550 -1.5946 -0.2827
   29MOL    C26 3442   3.312   5.770   3.237 -0.0108  0.6309 -0.3917
   29MOL    F27 3443   3.391   5.665   3.252  0.1337 -0.0316 -0.0588
   29MOL    F28 3444   3.252   5.778   3.354 -0.4649 -0.0216  0.0307
   29MOL    C29 3445   3.215   5.738   3.126  0.8786 -0.1191  0.1462
   29MOL    H30 3446   3.130   5.807   3.128  1.2866  0.3801  0.8737
   29MOL    H31 3447   3.172   5.639   3.137  2.3118 -0.6484  1.1775
   29MOL    C32 3448   3.263   5.738   2.978 -0.2641 -0.4146  0.1127
   29MOL    F33 3449   3.154   5.728   2.906 -0.5360  0.0152 -0.5178
   29MOL    F34 3450   3.325   5.856   2.947 -0.2313 -0.0139 -0.7061
   29MOL    C35 3451   3.368   5.626   2.951 -0.1912  0.2658  0.7600
   29MOL    H36 3452   3.342   5.537   3.008  0.7081 -0.9165 -0.6393
   29MOL    H37 3453   3.460   5.665   2.994  0.9836 -3.8329  2.2675
   29MOL    C38 3454   3.393   5.596   2.802 -0.4205  0.5132  0.4338
   29MOL    F39 3455   3.453   5.707   2.749 -0.1048  0.1079  0.4704
   29MOL    F40 3456   3.484   5.502   2.799 -0.0461  0.3657  0.1065
   29MOL    C41 3457   3.275   5.545   2.719 -0.0625 -0.4122  0.0329
   29MOL    H42 3458   3.308   5.546   2.615  1.1767  0.0534  0.4255
   29MOL    H43 3459   3.204   5.627   2.706  1.4383  0.4748 -2.8246
   29MOL    C44 3460   3.215   5.408   2.759  0.1973 -0.0617 -0.3854
   29MOL    F45 3461   3.289   5.299   2.733  0.2585  0.1050 -0.0150
   29MOL    F46 3462   3.185   5.419   2.892 -0.2416 -0.4144  0.1101
   29MOL    C47 3463   3.082   5.381   2.677 -0.1478 -0.6503 -0.0059
   29MOL    H48 3464   3.107   5.354   2.575  2.2390 -0.3285  0.4616
   29MOL    H49 3465   3.031   5.476   2.661 -1.1617 -1.2761 -0.5256
   29MOL    C50 3466   2.986   5.291   2.748 -0.0964  0.7580  0.0095
   29MOL    F51 3467   3.062   5.180   2.776  0.4805  0.1276  0.0181
   29MOL    F52 3468   2.947   5.348   2.864 -0.0288  0.1564 -0.4314
   29MOL    C53 3469   2.850   5.273   2.670  0.0620  0.0870  0.2153
   29MOL    H54 3470   2.882   5.224   2.577  0.6883 -1.5306  1.2634
   29MOL    H55 3471   2.812   5.372   2.646  0.1312  0.5514  1.9911
   29MOL    C56 3472   2.754   5.176   2.735  0.1108 -0.0814 -0.0625
   29MOL    F57 3473   2.730   5.207   2.862  0.2203 -0.2349  0.2214
   29MOL    F58 3474   2.641   5.180   2.668 -0.1088 -0.0233 -0.0486
   29MOL    C59 3475   2.794   5.023   2.742 -0.2004  0.5155  0.5720
   29MOL    H60 3476   2.709   4.956   2.760  0.1227 -0.1076 -0.1769
   29MOL    H61 3477   2.863   5.006   2.825 -0.0362 -1.6080  0.0297
   29MOL    C62 3478   2.857   4.963   2.613  0.9046  0.0177 -0.3167
   29MOL    F63 3479   2.780   4.975   2.507 -0.0819  0.6879  0.2085
   29MOL    F64 3480   2.975   5.019   2.585 -0.3062 -0.0751 -0.1661
   29MOL    C65 3481   2.875   4.806   2.630  0.4671  0.2782 -0.2705
   29MOL    H66 3482   2.935   4.779   2.543  2.4476 -0.3948  1.2631
   29MOL    H67 3483   2.783   4.749   2.637  1.4201 -1.2470  0.0638
   29MOL    C68 3484   2.939   4.769   2.768 -0.0249  0.7156  0.1305
   29MOL    F69 3485   3.043   4.847   2.789  0.1357 -0.3384 -0.3807
   29MOL    F70 3486   2.860   4.787   2.874  0.0914 -0.0342  0.0866
   29MOL    C71 3487   2.998   4.632   2.774 -0.0035  0.1021 -0.8145
   29MOL    H72 3488   3.062   4.624   2.862  0.8438  1.0061 -1.3320
   29MOL    H73 3489   3.069   4.602   2.697  1.1120 -0.8258  0.5408
   29MOL    C74 3490   2.900   4.513   2.765 -0.2194  0.7868 -0.1345
   29MOL    F75 3491   2.835   4.512   2.650  0.6142 -0.7123 -0.3201
   29MOL    F76 3492   2.972   4.401   2.772 -0.0352  0.2116  0.3760
   29MOL    C77 3493   2.796   4.497   2.874 -0.5269  0.4907 -0.2390
   29MOL    H78 3494   2.725   4.418   2.849 -0.2760 -0.3700  1.7099
   29MOL    H79 3495   2.731   4.585   2.870 -2.3982 -0.8234  0.1922
   29MOL    C80 3496   2.846   4.473   3.021 -0.0073 -1.2033  0.2850
   29MOL    F81 3497   2.945   4.558   3.053  0.0142  0.4776 -0.0343
   29MOL    F82 3498   2.742   4.515   3.099  0.4320  0.1753  0.0062
   29MOL    C83 3499   2.893   4.330   3.055 -0.1565 -0.8538  0.1245
   29MOL    H84 3500   2.980   4.308   2.992 -0.1331 -1.6652  0.4341
   29MOL    H85 3501   2.827   4.255   3.011  2.0417 -2.3674 -0.6952
   29MOL    C86 3502   2.913   4.302   3.210 -0.1577 -0.5236 -0.3739
   29MOL    F87 3503   3.006   4.392   3.253 -0.0696  0.0231  0.4201
   29MOL    F88 3504   2.797   4.338   3.268 -0.2293 -0.4851  0.5346
   29MOL    C89 3505   2.946   4.156   3.237 -0.1714  0.5012 -0.5579
   29MOL    H90 3506   3.052   4.145   3.214  0.3918  3.0080  0.6901
   29MOL    H91 3507   2.902   4.082   3.170 -0.6197  0.5604 -0.3326
   29MOL    C92 3508   2.941   4.098   3.385  0.2236  0.2462  0.4938
   29MOL    F93 3509   2.813   4.083   3.421 -0.2409  0.1744 -0.2519
   29MOL    F94 3510   2.999   3.977   3.397 -0.1256 -0.4029 -0.1238
   29MOL    C95 3511   3.005   4.195   3.493  0.2781  0.5067 -0.7043
   29MOL    H96 3512   2.958   4.167   3.587 -0.6999  3.1068 -0.3962
   29MOL    H97 3513   2.974   4.298   3.476 -0.2887 -0.1644 -3.9371
   29MOL    C98 3514   3.155   4.190   3.509  0.7897 -0.2158 -0.3296
   29MOL    F99 3515   3.195   4.064   3.547  0.0634 -0.3791 -0.0675
   29MOL   F100 3516   3.209   4.209   3.391 -0.3181  0.0830  0.2867
   29MOL   C101 3517   3.195   4.309   3.600 -0.5780 -0.4384 -0.6868
   29MOL   H102 3518   3.153   4.292   3.699 -1.4792  2.2506 -0.5815
   29MOL   H103 3519   3.144   4.397   3.561 -0.0480  0.0124 -0.3696
   29MOL   C104 3520   3.345   4.348   3.615 -0.1863 -0.1796 -0.0555
   29MOL   F105 3521   3.379   4.382   3.491 -0.0477 -0.0533 -0.6163
   29MOL   F106 3522   3.363   4.452   3.697  0.1134  0.2933 -0.0904
   29MOL   C107 3523   3.434   4.239   3.659 -0.5102 -0.6945 -0.6817
   29MOL   H108 3524   3.403   4.160   3.592 -1.8278  1.0452 -2.1686
   29MOL   H109 3525   3.404   4.218   3.762  2.2558  0.6054  0.4630
   29MOL   C110 3526   3.583   4.256   3.638 -0.5003 -0.2171 -0.2357
   29MOL   F111 3527   3.609   4.279   3.507 -0.0057  0.0485  0.2351
   29MOL   F112 3528   3.615   4.366   3.690 -0.0691  0.2297 -0.1911
   29MOL   C113 3529   3.661   4.144   3.692  0.1480 -0.5765 -0.6895
   29MOL   H114 3530   3.633   4.145   3.798 -1.2934 -2.1457 -1.0249
   29MOL   H115 3531   3.764   4.173   3.711 -0.1354  0.4379 -0.6746
   29MOL   C116 3532   3.646   4.001   3.630 -0.4454  0.1533 -0.7842
   29MOL   F117 3533   3.532   3.944   3.678 -0.1619 -0.1862  0.3518
   29MOL   F118 3534   3.644   3.994   3.495  1.0576 -0.1856 -0.3413
   29MOL   C119 3535   3.758   3.906   3.669  0.2506 -0.5911 -0.0330
   29MOL   H120 3536   3.751   3.807   3.623 -3.7755 -0.4267  0.0529
   29MOL   H121 3537   3.773   3.873   3.772 -0.0150 -0.5251  0.0272
   29MOL   H122 3538   3.847   3.959   3.636 -0.3319  1.4213  1.5351
   30MOL     C1 3539   5.565   2.278   0.070 -0.0324  0.0474  0.1599
   30MOL     F2 3540   5.601   2.220   8.304  0.1066  0.1954 -0.3896
   30MOL     F3 3541   5.470   2.201   0.127 -0.1992  0.4830 -0.4328
   30MOL     C4 3542   5.523   2.423   0.046  0.1340  0.1820  0.5570
   30MOL     H5 3543   5.609   2.486   0.024 -1.1900  2.0252  0.5141
   30MOL     H6 3544   5.478   2.468   0.135 -1.1590  0.4778 -0.2263
   30MOL     H7 3545   5.652   2.287   0.135  0.0395  2.2971 -0.2276
   30MOL     C8 3546   5.432   2.429   8.274 -0.1211 -0.3872  0.3115
   30MOL     F9 3547   5.384   2.553   8.266 -0.2903 -0.7067  0.3150
   30MOL    F10 3548   5.495   2.408   8.159  0.2955  0.2916  0.0471
   30MOL    C11 3549   5.309   2.328   8.288 -0.0481  0.3366  0.4260
   30MOL    H12 3550   5.271   2.325   0.040 -0.0311 -0.1916  0.4177
   30MOL    H13 3551   5.348   2.228   8.272 -1.4530 -0.5210  2.2523
   30MOL    C14 3552   5.198   2.356   8.188 -0.6678  0.0129 -0.8222
   30MOL    F15 3553   5.152   2.486   8.197  0.4920  0.3382 -0.3495
   30MOL    F16 3554   5.254   2.343   8.066  0.3810  0.0820  0.3771
   30MOL    C17 3555   5.089   2.248   8.211 -0.2846 -0.8390 -1.1454
   30MOL    H18 3556   5.048   2.269   8.310  1.1829  0.5523 -0.8139
   30MOL    H19 3557   5.143   2.153   8.215  1.0630 -0.0203  0.8962
   30MOL    C20 3558   4.961   2.239   8.117 -0.7278 -0.0115  0.0517
   30MOL    F21 3559   4.875   2.136   8.159  0.4190 -0.5704  0.2680
   30MOL    F22 3560   4.895   2.354   8.128 -0.0865 -0.2873 -0.3739
   30MOL    C23 3561   4.996   2.208   7.968 -0.0057 -0.6326  0.2948
   30MOL    H24 3562   5.048   2.294   7.926 -0.8519 -1.1430 -1.8569
   30MOL    H25 3563   4.909   2.210   7.903 -0.4706  2.1781  0.9180
   30MOL    C26 3564   5.065   2.076   7.936 -0.6621  0.2574 -0.1112
   30MOL    F27 3565   5.182   2.070   7.997  0.0784 -0.3189 -0.3964
   30MOL    F28 3566   4.984   1.980   7.985 -0.0132  0.4497  0.4336
   30MOL    C29 3567   5.085   2.031   7.794 -0.0416 -0.1268 -0.2794
   30MOL    H30 3568   4.988   2.022   7.745  0.4725  0.1571 -1.3682
   30MOL    H31 3569   5.132   1.932   7.795 -0.2641 -0.2228  0.3306
   30MOL    C32 3570   5.171   2.126   7.700  0.5394 -0.9374  0.4369
   30MOL    F33 3571   5.175   2.071   7.581 -0.3010  0.5556 -0.2507
   30MOL    F34 3572   5.106   2.241   7.685 -0.1850  0.2639  0.0267
   30MOL    C35 3573   5.311   2.158   7.736  0.4352  0.0740 -0.0771
   30MOL    H36 3574   5.302   2.214   7.829  1.9763 -0.9926  0.7369
   30MOL    H37 3575   5.364   2.222   7.665  0.0985 -0.8401 -1.1677
   30MOL    C38 3576   5.408   2.038   7.758  0.2745 -0.1791 -0.2925
   30MOL    F39 3577   5.376   1.954   7.856 -0.2359 -0.1268  0.2680
   30MOL    F40 3578   5.400   1.967   7.646 -0.2110  0.5409  0.1964
   30MOL    C41 3579   5.555   2.086   7.782  0.6556  0.6470 -0.3909
   30MOL    H42 3580   5.551   2.147   7.872 -1.3970  1.1072 -0.7517
   30MOL    H43 3581   5.583   2.153   7.701 -0.6878 -0.3369 -1.7113
   30MOL    C44 3582   5.656   1.979   7.793 -0.0673 -0.6879  0.5093
   30MOL    F45 3583   5.625   1.897   7.895 -0.6078 -0.5656 -0.5244
   30MOL    F46 3584   5.664   1.906   7.681 -0.1157  0.2784  0.2618
   30MOL    C47 3585   5.796   2.033   7.817 -0.3711 -0.1744  0.4668
   30MOL    H48 3586   5.801   2.089   7.911  0.7213  1.8010 -0.7479
   30MOL    H49 3587   5.831   2.096   7.736  0.8681 -1.0536  0.3031
   30MOL    C50 3588   5.906   1.918   7.830 -0.5582 -0.2209  0.6087
   30MOL    F51 3589   5.876   1.848   7.937 -0.3872  0.3159  0.9708
   30MOL    F52 3590   5.912   1.847   7.717  0.2737 -0.7573 -0.1165
   30MOL    C53 3591   6.043   1.977   7.860 -0.3697 -0.0581 -0.4002
   30MOL    H54 3592   6.036   2.051   7.940  2.5661 -0.0333 -0.1087
   30MOL    H55 3593   6.069   2.038   7.774 -0.6073  1.4560  0.5764
   30MOL    C56 3594   6.162   1.877   7.885 -0.2874  0.5247 -0.9620
   30MOL    F57 3595   6.131   1.800   7.994  0.2198 -0.0490  0.6877
   30MOL    F58 3596   6.181   1.804   7.773  0.0594  0.1870  0.3135
   30MOL    C59 3597   6.293   1.949   7.921 -0.1423 -0.1486  0.3674
   30MOL    H60 3598   6.273   2.003   8.013  0.2612  0.7926 -0.0916
   30MOL    H61 3599   6.312   2.027   7.847 -1.6663  1.3665  1.5251
   30MOL    C62 3600   6.414   1.853   7.947  0.4885 -0.4948  0.0448
   30MOL    F63 3601   6.393   1.774   8.053  0.1957 -0.2749  0.4920
   30MOL    F64 3602   6.427   1.774   7.838 -0.3093 -0.5154  0.5715
   30MOL    C65 3603   6.542   1.933   7.977  0.4363 -0.7003 -0.0888
   30MOL    H66 3604   6.622   1.864   8.001  1.0892  0.4685  1.1439
   30MOL    H67 3605   6.528   1.989   8.069  1.9725  0.7655 -0.7212
   30MOL    C68 3606   6.602   2.029   7.872 -0.1532 -0.1131  1.0930
   30MOL    F69 3607   6.604   1.969   7.752  0.0776 -0.6760  0.5204
   30MOL    F70 3608   6.517   2.132   7.865 -0.2826  0.0347  0.4291
   30MOL    C71 3609   6.744   2.073   7.897 -0.6299 -1.1299 -0.2911
   30MOL    H72 3610   6.760   2.132   7.806  1.6941  0.9531  1.3719
   30MOL    H73 3611   6.814   1.989   7.891  0.2068 -0.5178  0.7059
   30MOL    C74 3612   6.779   2.176   8.001 -0.1148 -0.6673 -0.6692
   30MOL    F75 3613   6.727   2.299   7.978  0.2059 -0.2885  0.0250
   30MOL    F76 3614   6.728   2.130   8.112  0.0099  0.2653  0.3848
   30MOL    C77 3615   6.936   2.181   8.038 -0.0919  0.2191 -0.0164
   30MOL    H78 3616   6.964   2.077   8.059  1.5776  0.7885  0.6381
   30MOL    H79 3617   6.948   2.224   8.137 -0.0724 -2.1317  1.0595
   30MOL    C80 3618   7.035   2.232   7.934  0.3426  1.4377 -0.0452
   30MOL    F81 3619   7.154   2.238   7.996  0.5505  0.4608  0.4307
   30MOL    F82 3620   7.048   2.143   7.838  0.2637 -0.0914  0.2938
   30MOL    C83 3621   7.011   2.371   7.866  0.7918 -0.3484  0.5427
   30MOL    H84 3622   6.922   2.367   7.803  0.6987 -2.4379  0.7860
   30MOL    H85 3623   7.084   2.379   7.785  0.9993 -0.0203  0.7621
   30MOL    C86 3624   7.000   2.500   7.950 -0.2781 -0.5624  0.1234
   30MOL    F87 3625   6.903   2.502   8.036  0.2636 -0.0209 -0.2524
   30MOL    F88 3626   7.113   2.511   8.019 -0.1354 -0.6275  0.1645
   30MOL    C89 3627   6.979   2.631   7.867 -0.3962  0.2579 -0.4080
   30MOL    H90 3628   6.881   2.622   7.820 -0.1834  0.9349 -0.9832
   30MOL    H91 3629   7.043   2.641   7.780 -1.4254  0.7742 -1.1144
   30MOL    C92 3630   6.986   2.766   7.941 -0.4161 -0.4350 -0.2004
   30MOL    F93 3631   6.940   2.869   7.859 -0.2970 -0.1535 -0.1489
   30MOL    F94 3632   6.889   2.767   8.041  0.1870  0.1246 -0.2580
   30MOL    C95 3633   7.124   2.806   8.000  0.8209 -0.6975 -0.1140
   30MOL    H96 3634   7.147   2.741   8.084  1.1601 -2.7352 -1.7517
   30MOL    H97 3635   7.099   2.902   8.046 -0.2536 -0.4888 -1.0879
   30MOL    C98 3636   7.239   2.815   7.907  0.1689 -0.2747 -0.3558
   30MOL    F99 3637   7.261   2.690   7.863 -0.2193 -0.5140 -0.2373
   30MOL   F100 3638   7.201   2.893   7.804 -0.2149 -0.3236  0.0724
   30MOL   C101 3639   7.363   2.872   7.974 -0.4240  0.0125 -0.1002
   30MOL   H102 3640   7.381   2.802   8.056 -0.0647 -0.5433 -0.6519
   30MOL   H103 3641   7.333   2.971   8.007 -0.3873  0.6151 -1.8365
   30MOL   C104 3642   7.488   2.879   7.879 -0.3196  0.1872 -0.6598
   30MOL   F105 3643   7.522   2.760   7.832 -0.4419  0.2174  0.2048
   30MOL   F106 3644   7.448   2.959   7.785 -0.4337 -0.1507  0.3790
   30MOL   C107 3645   7.603   2.937   7.957 -0.4425  0.1573  0.2522
   30MOL   H108 3646   7.626   2.863   8.034 -1.3288  0.7834  1.1237
   30MOL   H109 3647   7.578   3.034   8.000  0.5156  0.8249 -0.6884
   30MOL   C110 3648   7.739   2.948   7.884 -0.3490 -0.4466  0.0635
   30MOL   F111 3649   7.825   2.998   7.963 -0.3197 -0.8340  0.5169
   30MOL   F112 3650   7.786   2.826   7.850  0.0021  0.0904 -0.8333
   30MOL   C113 3651   7.741   3.036   7.753  0.6791 -0.3861  0.5460
   30MOL   H114 3652   7.704   3.135   7.778 -1.4591 -0.6914 -1.1626
   30MOL   H115 3653   7.668   2.991   7.685  1.4706  0.0901 -0.6445
   30MOL   C116 3654   7.880   3.043   7.674 -0.2793  1.0184  0.2548
   30MOL   F117 3655   7.976   3.087   7.749  0.5947  0.1815 -0.5142
   30MOL   F118 3656   7.900   2.911   7.634  0.1448 -0.1276 -0.0447
   30MOL   C119 3657   7.883   3.117   7.539  0.4218 -0.7367  0.5818
   30MOL   H120 3658   7.979   3.119   7.486  0.4393  2.5253  0.6082
   30MOL   H121 3659   7.843   3.218   7.534  4.7337  1.0654  0.3030
   30MOL   H122 3660   7.824   3.066   7.462 -0.5756 -1.6755  1.9551
   31MOL     C1 3661   4.528   6.746   2.228 -0.0565  0.4736  0.9627
   31MOL     F2 3662   4.543   6.811   2.348  0.2079  0.2740  0.2275
   31MOL     F3 3663   4.651   6.744   2.168 -0.1940  0.0023  0.6639
   31MOL     C4 3664   4.432   6.808   2.131  0.1439  0.6188 -0.4147
   31MOL     H5 3665   4.436   6.757   2.034  1.5033  2.6499 -1.4759
   31MOL     H6 3666   4.453   6.912   2.107 -2.6654  1.1326 -0.8320
   31MOL     H7 3667   4.507   6.641   2.249  2.8326  0.0514  2.0891
   31MOL     C8 3668   4.282   6.800   2.188 -0.4776  0.1060  0.4835
   31MOL     F9 3669   4.266   6.675   2.217 -0.3655 -0.4443 -0.0409
   31MOL    F10 3670   4.267   6.875   2.295  0.5646 -0.1320  0.2392
   31MOL    C11 3671   4.172   6.843   2.091 -0.0539 -0.1127 -0.1141
   31MOL    H12 3672   4.199   6.795   1.996  1.4852  1.4385 -0.4948
   31MOL    H13 3673   4.180   6.951   2.083  0.8640 -0.1984 -0.5423
   31MOL    C14 3674   4.033   6.801   2.144 -0.2353  0.4209 -0.0455
   31MOL    F15 3675   4.014   6.670   2.151 -0.3298  0.5028 -0.2217
   31MOL    F16 3676   4.009   6.845   2.268  0.2075  0.0620 -0.0311
   31MOL    C17 3677   3.914   6.861   2.067  0.1992 -0.6718  0.3413
   31MOL    H18 3678   3.929   6.969   2.065  0.4926 -0.7269 -0.7679
   31MOL    H19 3679   3.822   6.840   2.121  1.0668  0.0957  2.1731
   31MOL    C20 3680   3.905   6.807   1.919  0.3644 -0.0303 -0.0011
   31MOL    F21 3681   3.997   6.860   1.843 -0.2697 -0.0824 -0.0130
   31MOL    F22 3682   3.909   6.673   1.920 -0.1884  0.4114  0.1714
   31MOL    C23 3683   3.766   6.849   1.860  0.1086 -0.1553 -0.4020
   31MOL    H24 3684   3.775   6.950   1.821  1.0063 -1.0175 -2.5317
   31MOL    H25 3685   3.700   6.850   1.947  1.6110  0.8568  0.7474
   31MOL    C26 3686   3.705   6.748   1.761 -0.6940  0.2114  0.3415
   31MOL    F27 3687   3.691   6.632   1.830  0.1970 -0.0662 -0.9162
   31MOL    F28 3688   3.580   6.787   1.727 -0.3343  0.5057  0.0626
   31MOL    C29 3689   3.789   6.738   1.635 -0.3759  0.0374 -0.3048
   31MOL    H30 3690   3.889   6.702   1.660 -0.0547  0.3386 -1.1310
   31MOL    H31 3691   3.806   6.843   1.612 -1.3407  1.2454  4.0365
   31MOL    C32 3692   3.727   6.662   1.512  0.2609  0.0424 -0.1537
   31MOL    F33 3693   3.629   6.746   1.478  0.0655  0.5383 -0.3054
   31MOL    F34 3694   3.820   6.641   1.417  0.0280 -0.1355 -0.1300
   31MOL    C35 3695   3.668   6.523   1.552 -0.4870 -0.9160  0.1913
   31MOL    H36 3696   3.589   6.485   1.487 -0.0987 -0.4277 -0.5693
   31MOL    H37 3697   3.607   6.537   1.641  1.6396  2.5820  1.1829
   31MOL    C38 3698   3.770   6.411   1.571 -0.1299 -0.1693  0.1070
   31MOL    F39 3699   3.805   6.375   1.452 -0.2666  0.0830 -0.0689
   31MOL    F40 3700   3.873   6.467   1.633  0.2975  0.0214 -0.2059
   31MOL    C41 3701   3.727   6.275   1.638 -0.2572 -0.6865  0.5104
   31MOL    H42 3702   3.702   6.282   1.744 -1.1595 -0.0448  0.2601
   31MOL    H43 3703   3.817   6.213   1.636  1.1903  1.4163 -1.7819
   31MOL    C44 3704   3.609   6.200   1.579 -0.1578  0.1318  0.0612
   31MOL    F45 3705   3.484   6.248   1.598 -0.0700 -0.1560 -0.0574
   31MOL    F46 3706   3.636   6.185   1.446  0.5529 -0.0379 -0.3114
   31MOL    C47 3707   3.603   6.057   1.646 -0.0756 -0.0624  0.1020
   31MOL    H48 3708   3.550   6.068   1.740 -1.8240  0.0606 -0.8720
   31MOL    H49 3709   3.703   6.019   1.665 -0.8305 -1.5149  1.2824
   31MOL    C50 3710   3.534   5.938   1.564  0.1701  0.2951  0.3153
   31MOL    F51 3711   3.415   5.966   1.530 -0.1065 -0.2927  0.0530
   31MOL    F52 3712   3.610   5.911   1.462 -0.1526  0.8447  0.8504
   31MOL    C53 3713   3.511   5.806   1.644 -0.5385 -0.3271 -0.5330
   31MOL    H54 3714   3.476   5.730   1.574  0.2309  0.7802 -2.1581
   31MOL    H55 3715   3.432   5.813   1.719 -0.1342 -0.1926 -0.1200
   31MOL    C56 3716   3.644   5.748   1.696  0.1644 -0.4036  0.2564
   31MOL    F57 3717   3.739   5.765   1.609  0.0481 -0.5595  0.1612
   31MOL    F58 3718   3.679   5.818   1.800 -0.5583  0.1181 -0.0250
   31MOL    C59 3719   3.637   5.603   1.746 -0.0538  0.0509 -0.5599
   31MOL    H60 3720   3.566   5.600   1.829  1.0704  2.3471  0.5193
   31MOL    H61 3721   3.732   5.590   1.797 -0.8229 -1.3299  0.5617
   31MOL    C62 3722   3.604   5.505   1.631  0.0461  0.1005 -0.3678
   31MOL    F63 3723   3.475   5.498   1.596 -0.5936 -0.0513 -0.2945
   31MOL    F64 3724   3.662   5.559   1.526  0.0819  0.2657 -0.3320
   31MOL    C65 3725   3.646   5.362   1.633  0.3562 -0.0311 -0.2525
   31MOL    H66 3726   3.743   5.348   1.682 -0.5649 -1.4064  1.2395
   31MOL    H67 3727   3.650   5.332   1.528 -1.9336  1.6768 -0.8563
   31MOL    C68 3728   3.551   5.279   1.726 -0.4216  0.1967  0.1082
   31MOL    F69 3729   3.499   5.358   1.821 -0.5704  0.3507 -0.3000
   31MOL    F70 3730   3.449   5.237   1.654  0.0909 -0.0719 -0.2278
   31MOL    C71 3731   3.620   5.159   1.804 -0.7709  0.0058 -0.0583
   31MOL    H72 3732   3.554   5.121   1.882  0.2699  0.1154  0.8837
   31MOL    H73 3733   3.711   5.198   1.851  0.0347  0.3715 -1.8739
   31MOL    C74 3734   3.674   5.049   1.711 -0.3776 -0.4821 -0.8382
   31MOL    F75 3735   3.584   5.011   1.619 -0.3222 -0.1062 -0.1610
   31MOL    F76 3736   3.787   5.086   1.646 -0.1466  0.8226  0.0703
   31MOL    C77 3737   3.711   4.924   1.797  0.0067  0.6532 -0.5693
   31MOL    H78 3738   3.639   4.900   1.875  0.1380  0.3442 -0.5423
   31MOL    H79 3739   3.807   4.958   1.836 -0.8621 -0.0838  2.3258
   31MOL    C80 3740   3.756   4.783   1.728 -0.5705 -0.7520  0.0597
   31MOL    F81 3741   3.810   4.704   1.821 -0.5141  0.0703  0.6555
   31MOL    F82 3742   3.640   4.729   1.691  0.1788  0.1888  0.2674
   31MOL    C83 3743   3.838   4.790   1.596  0.0829  0.1713  0.1620
   31MOL    H84 3744   3.798   4.856   1.519 -0.8864  1.1977  1.5313
   31MOL    H85 3745   3.831   4.695   1.543  0.8826  1.7110 -2.8137
   31MOL    C86 3746   3.987   4.824   1.604  0.3047 -0.2366 -0.6299
   31MOL    F87 3747   3.993   4.940   1.667 -0.5856 -0.2435 -0.3962
   31MOL    F88 3748   4.048   4.738   1.685 -0.9080  0.3332  0.3913
   31MOL    C89 3749   4.055   4.826   1.466 -0.3588 -0.7704 -0.1427
   31MOL    H90 3750   4.161   4.842   1.485 -0.8982  0.5000  1.8387
   31MOL    H91 3751   4.026   4.917   1.414 -0.4708  0.7259  2.4616
   31MOL    C92 3752   4.052   4.705   1.375 -0.4010 -0.0263  0.3555
   31MOL    F93 3753   4.087   4.594   1.442 -0.0088 -0.3242  0.0994
   31MOL    F94 3754   3.932   4.686   1.314  0.7379  0.0729  0.2595
   31MOL    C95 3755   4.161   4.721   1.262  0.0538  0.8171 -0.6821
   31MOL    H96 3756   4.257   4.727   1.313  0.0235  0.0357 -0.5274
   31MOL    H97 3757   4.155   4.817   1.211 -0.6175  1.4625  0.5984
   31MOL    C98 3758   4.166   4.607   1.161 -0.0696 -0.0706 -0.8813
   31MOL    F99 3759   4.204   4.488   1.210  0.0219  0.2743 -0.1504
   31MOL   F100 3760   4.041   4.585   1.111  0.8930 -0.8500 -0.2263
   31MOL   C101 3761   4.250   4.638   1.033 -1.0218 -0.4152 -0.3584
   31MOL   H102 3762   4.221   4.740   1.008 -1.5534 -0.0659  1.5853
   31MOL   H103 3763   4.220   4.579   0.946 -0.5688 -2.7837  1.0603
   31MOL   C104 3764   4.397   4.644   1.055 -0.5547  0.3399 -0.4130
   31MOL   F105 3765   4.420   4.738   1.144 -0.8522  0.0649  0.3420
   31MOL   F106 3766   4.435   4.527   1.106 -0.2700  0.2167 -0.4057
   31MOL   C107 3767   4.470   4.676   0.930  0.3896 -0.3633 -0.1238
   31MOL   H108 3768   4.418   4.731   0.852 -1.4336 -0.2868  1.1231
   31MOL   H109 3769   4.485   4.575   0.892 -1.2678 -1.8612  3.0090
   31MOL   C110 3770   4.617   4.733   0.949 -0.2929 -0.7230  0.1834
   31MOL   F111 3771   4.688   4.659   1.031  0.2871  0.0495 -0.0610
   31MOL   F112 3772   4.667   4.704   0.824 -0.0143 -0.4550 -0.0384
   31MOL   C113 3773   4.632   4.883   0.974 -0.6614 -0.8640 -0.0980
   31MOL   H114 3774   4.734   4.907   0.943 -0.3421 -0.1930  1.4491
   31MOL   H115 3775   4.630   4.904   1.081 -1.2913 -0.9741 -0.0866
   31MOL   C116 3776   4.530   4.985   0.907  0.2083  0.3199 -0.3148
   31MOL   F117 3777   4.408   4.952   0.941  0.0344  0.3067  0.7348
   31MOL   F118 3778   4.553   5.105   0.962 -0.2103  0.0305 -0.0388
   31MOL   C119 3779   4.543   4.994   0.752  0.0270  0.0152 -0.4058
   31MOL   H120 3780   4.634   5.043   0.720 -0.3940  0.5178 -0.8457
   31MOL   H121 3781   4.467   5.064   0.717  0.5067 -0.4381 -2.4040
   31MOL   H122 3782   4.526   4.897   0.705  1.7612  0.6130 -2.2952
   32MOL     C1 3783   3.576   4.824   7.709  0.3941 -0.3202  0.4737
   32MOL     F2 3784   3.616   4.902   7.610  0.2331  0.2275 -0.4221
   32MOL     F3 3785   3.445   4.829   7.702 -0.0742  0.6264 -0.0260
   32MOL     C4 3786   3.642   4.880   7.832  0.4084 -0.9351 -0.5397
   32MOL     H5 3787   3.619   4.986   7.841 -1.3061 -1.4767  1.8888
   32MOL     H6 3788   3.750   4.870   7.821  0.4130 -0.6280 -0.7890
   32MOL     H7 3789   3.610   4.722   7.689  0.2244 -0.7085  2.0940
   32MOL     C8 3790   3.593   4.804   7.958 -0.6409  0.3065  0.5959
   32MOL     F9 3791   3.467   4.779   7.961 -0.4178 -0.2877  0.1864
   32MOL    F10 3792   3.662   4.687   7.962  0.5618  0.4143  0.0457
   32MOL    C11 3793   3.624   4.872   8.095  0.0649  0.4459  0.4404
   32MOL    H12 3794   3.584   4.973   8.094  1.7762  1.1483  1.0764
   32MOL    H13 3795   3.732   4.885   8.096 -0.0911  2.0409 -0.9461
   32MOL    C14 3796   3.576   4.797   8.219  0.2172  0.6095 -0.0693
   32MOL    F15 3797   3.445   4.772   8.207  0.1200  0.3024 -0.4389
   32MOL    F16 3798   3.638   4.672   8.215 -0.2563  0.1163  0.1740
   32MOL    C17 3799   3.592   4.871   0.004  0.0658 -0.0563  0.0385
   32MOL    H18 3800   3.574   4.798   0.083 -0.2552 -0.8131 -0.7267
   32MOL    H19 3801   3.512   4.944   0.003  1.3413  1.3750 -0.8225
   32MOL    C20 3802   3.729   4.941   0.030 -0.2697  0.6337 -0.5240
   32MOL    F21 3803   3.825   4.855   8.342  0.6558 -0.3460  0.4122
   32MOL    F22 3804   3.715   5.046   8.297  0.0915 -0.0290  0.0939
   32MOL    C23 3805   3.757   4.985   0.174 -0.1156  0.3610 -0.1826
   32MOL    H24 3806   3.747   4.904   0.246  0.2093  0.3129 -0.1901
   32MOL    H25 3807   3.682   5.058   0.204  0.5035  0.8322  0.2254
   32MOL    C26 3808   3.898   5.053   0.188 -0.6229 -0.1401  0.6759
   32MOL    F27 3809   3.914   5.158   0.106  0.9296  0.5242  0.3190
   32MOL    F28 3810   3.909   5.083   0.315  0.0466  0.2873 -0.0370
   32MOL    C29 3811   4.018   4.958   0.161  0.5343 -0.3261 -0.2647
   32MOL    H30 3812   4.018   4.942   0.053 -0.8980  0.7065 -0.4314
   32MOL    H31 3813   4.015   4.861   0.211  0.5595  0.9366  2.2510
   32MOL    C32 3814   4.157   5.013   0.203  0.2823 -0.3549 -0.4614
   32MOL    F33 3815   4.177   5.125   0.136 -0.5626  0.5025  0.1857
   32MOL    F34 3816   4.158   5.046   0.332  0.3097  0.1531  0.5649
   32MOL    C35 3817   4.262   4.904   0.181 -1.1738  0.0552 -0.5356
   32MOL    H36 3818   4.238   4.851   0.089 -1.9681  1.5680 -1.2179
   32MOL    H37 3819   4.235   4.823   0.248 -2.7798  1.6127  0.7663
   32MOL    C38 3820   4.413   4.942   0.184 -0.4021 -0.2013  0.3004
   32MOL    F39 3821   4.446   5.039   0.099 -0.2531 -0.3576 -0.4521
   32MOL    F40 3822   4.427   4.986   0.313  0.2535  0.3377 -0.1616
   32MOL    C41 3823   4.500   4.816   0.164 -0.2751 -0.6984 -0.3070
   32MOL    H42 3824   4.454   4.737   0.224 -0.8392  0.2190  0.4808
   32MOL    H43 3825   4.588   4.831   0.228 -1.3062  2.1676  0.5346
   32MOL    C44 3826   4.541   4.779   0.011  0.9093 -0.5394 -0.1893
   32MOL    F45 3827   4.595   4.659   0.009 -0.1416  0.0103  0.0773
   32MOL    F46 3828   4.431   4.771   8.287  0.0340  0.1714  0.4074
   32MOL    C47 3829   4.645   4.880   8.300  0.5562 -0.0889 -0.2317
   32MOL    H48 3830   4.600   4.977   8.278 -0.2861 -0.7770 -1.5757
   32MOL    H49 3831   4.681   4.836   8.208  0.7939 -0.4142  0.0176
   32MOL    C50 3832   4.766   4.920   0.039  0.1294 -0.2662 -0.2641
   32MOL    F51 3833   4.742   4.989   0.148  0.4334  0.0528 -0.0544
   32MOL    F52 3834   4.825   4.806   0.071  0.2254  0.5810  0.7149
   32MOL    C53 3835   4.876   4.993   8.301 -0.2644  1.2710 -0.0907
   32MOL    H54 3836   4.903   4.928   8.218  1.5492 -0.8449  2.1033
   32MOL    H55 3837   4.962   5.001   0.017  0.4805  1.4631 -1.0804
   32MOL    C56 3838   4.839   5.132   8.241 -0.6613  0.3546 -0.0082
   32MOL    F57 3839   4.937   5.155   8.156  0.2280 -0.2222 -0.0806
   32MOL    F58 3840   4.719   5.134   8.174 -0.3012  0.0999  0.1193
   32MOL    C59 3841   4.847   5.242   8.347 -0.4140 -0.9124  0.3088
   32MOL    H60 3842   4.943   5.243   0.049 -1.2639  1.2730  1.8981
   32MOL    H61 3843   4.772   5.224   0.074 -1.2761 -0.3781 -0.4083
   32MOL    C62 3844   4.835   5.386   8.297 -0.3385  0.2765 -0.2792
   32MOL    F63 3845   4.932   5.400   8.200 -0.2270  0.2102 -0.3493
   32MOL    F64 3846   4.722   5.409   8.233  0.0746  0.0675  0.3582
   32MOL    C65 3847   4.861   5.500   0.052  0.3936 -0.0785 -0.8422
   32MOL    H66 3848   4.860   5.593   8.344 -0.6772 -0.1734 -0.9756
   32MOL    H67 3849   4.968   5.489   0.071  1.3688  3.6682 -3.5320
   32MOL    C68 3850   4.764   5.499   0.182  0.4195  0.2572  0.1022
   32MOL    F69 3851   4.789   5.396   0.261 -0.2818  0.3052  0.1221
   32MOL    F70 3852   4.793   5.611   0.251  0.0085  0.0908 -0.7754
   32MOL    C71 3853   4.614   5.482   0.143  0.1963  0.2698  0.0257
   32MOL    H72 3854   4.600   5.386   0.092  0.1675 -0.5458  1.5297
   32MOL    H73 3855   4.593   5.551   0.062  1.9248 -0.4291 -1.0421
   32MOL    C74 3856   4.508   5.497   0.259 -0.4772 -0.5657  0.4830
   32MOL    F75 3857   4.514   5.610   0.323 -0.5989 -0.4074  0.1523
   32MOL    F76 3858   4.397   5.481   0.188 -0.4124  0.6480  0.3711
   32MOL    C77 3859   4.520   5.391   0.373 -0.2220  0.4747 -0.0113
   32MOL    H78 3860   4.620   5.404   0.415 -0.7457  2.1837  0.7770
   32MOL    H79 3861   4.516   5.294   0.325 -0.2288  0.5354 -0.1338
   32MOL    C80 3862   4.423   5.401   0.495 -0.1787  0.4838 -0.0135
   32MOL    F81 3863   4.475   5.309   0.574  0.1296 -0.0737  0.1172
   32MOL    F82 3864   4.444   5.523   0.549 -0.2112  0.0128  0.0000
   32MOL    C83 3865   4.276   5.368   0.462  0.1481 -0.7411  0.4903
   32MOL    H84 3866   4.270   5.277   0.403 -0.7005 -1.3106  1.4342
   32MOL    H85 3867   4.229   5.446   0.402  1.4698 -0.4450 -0.1859
   32MOL    C86 3868   4.189   5.356   0.584 -0.0855 -0.8439 -0.3673
   32MOL    F87 3869   4.223   5.246   0.655  0.4808  0.3681 -0.1069
   32MOL    F88 3870   4.212   5.464   0.654 -0.1884 -0.1097 -0.3368
   32MOL    C89 3871   4.037   5.348   0.545  0.3231 -0.2943 -0.1280
   32MOL    H90 3872   4.018   5.266   0.476  0.6619 -0.7472  0.3069
   32MOL    H91 3873   4.009   5.448   0.512  0.8845 -0.1851 -0.2859
   32MOL    C92 3874   3.939   5.310   0.670  0.0942 -0.2838  0.1131
   32MOL    F93 3875   3.808   5.312   0.629  0.1671  0.0440 -0.0123
   32MOL    F94 3876   3.973   5.187   0.707 -0.4458 -0.4650 -0.2700
   32MOL    C95 3877   3.965   5.392   0.796 -0.9535  0.0454 -0.2805
   32MOL    H96 3878   4.074   5.403   0.800 -0.9478  0.3592 -1.1122
   32MOL    H97 3879   3.926   5.339   0.882  1.9272  0.3297  1.2854
   32MOL    C98 3880   3.920   5.536   0.795  0.3111 -0.4762 -0.3660
   32MOL    F99 3881   3.989   5.603   0.700  0.5517  0.1856 -0.1471
   32MOL   F100 3882   3.787   5.535   0.775  0.1762  0.3257 -0.1520
   32MOL   C101 3883   3.946   5.612   0.930  0.5179  0.9688  0.0669
   32MOL   H102 3884   4.052   5.628   0.950  0.6380  1.8580 -1.2241
   32MOL   H103 3885   3.910   5.551   1.013  1.9130 -1.4602 -1.0596
   32MOL   C104 3886   3.876   5.747   0.934  0.6611  0.5999 -0.0789
   32MOL   F105 3887   3.899   5.806   0.819 -0.3877  0.1489  0.9972
   32MOL   F106 3888   3.744   5.717   0.949  0.4226 -0.7789  0.3389
   32MOL   C107 3889   3.926   5.841   1.044 -0.6065  0.1092  0.1303
   32MOL   H108 3890   3.877   5.937   1.031 -2.1640 -0.9969 -2.9130
   32MOL   H109 3891   4.032   5.859   1.025 -1.0064  1.0277 -1.3187
   32MOL   C110 3892   3.900   5.792   1.186  0.5022  0.6975 -0.7926
   32MOL   F111 3893   3.772   5.771   1.204 -0.3257 -0.0353 -0.3348
   32MOL   F112 3894   3.965   5.685   1.227 -0.9106  0.1011 -1.0404
   32MOL   C113 3895   3.939   5.905   1.286  0.2184  0.3265 -0.0618
   32MOL   H114 3896   3.904   5.865   1.381 -2.5283 -1.2582 -1.6983
   32MOL   H115 3897   3.868   5.985   1.265 -1.4300 -0.9804  0.4952
   32MOL   C116 3898   4.083   5.964   1.288  0.1948  0.2969  0.1392
   32MOL   F117 3899   4.121   6.017   1.178 -0.0125  0.3462 -0.6962
   32MOL   F118 3900   4.078   6.055   1.387  0.4641 -0.1635  0.2401
   32MOL   C119 3901   4.192   5.857   1.327  0.9498  0.8257  0.1708
   32MOL   H120 3902   4.183   5.828   1.432 -1.1962  3.4755  0.7811
   32MOL   H121 3903   4.291   5.903   1.327  1.9784 -1.2339  2.8557
   32MOL   H122 3904   4.188   5.767   1.266 -0.0563  0.1761  1.1637
   33MOL     C1 3905   2.694   4.254   6.641 -0.1269  0.8809 -0.4819
   33MOL     F2 3906   2.758   4.154   6.712  0.0219 -0.3819 -0.2544
   33MOL     F3 3907   2.668   4.345   6.731  0.0159 -0.4394 -0.3065
   33MOL     C4 3908   2.568   4.204   6.566 -0.1008  0.2822 -0.0412
   33MOL     H5 3909   2.593   4.113   6.511  1.3309  1.0604 -0.7078
   33MOL     H6 3910   2.526   4.275   6.494 -2.0139 -1.0889 -0.2969
   33MOL     H7 3911   2.771   4.295   6.574  1.5628 -2.0285 -0.4145
   33MOL     C8 3912   2.461   4.150   6.663 -0.0314 -0.6195  0.2017
   33MOL     F9 3913   2.525   4.067   6.745  0.6726  0.7884  0.1190
   33MOL    F10 3914   2.417   4.256   6.730  0.0547  0.4182 -0.3945
   33MOL    C11 3915   2.339   4.084   6.589  0.3001 -0.6142 -0.1084
   33MOL    H12 3916   2.371   3.991   6.542  2.3576 -0.1296  0.2951
   33MOL    H13 3917   2.302   4.156   6.516 -0.7832  1.1406  2.1164
   33MOL    C14 3918   2.214   4.059   6.677 -0.0782 -0.2860 -0.0136
   33MOL    F15 3919   2.263   4.013   6.791  0.1694 -0.0098 -0.3825
   33MOL    F16 3920   2.145   4.170   6.694 -0.1715 -0.1443 -0.2118
   33MOL    C17 3921   2.110   3.947   6.638  0.5303  0.0757 -0.0356
   33MOL    H18 3922   2.025   3.944   6.706 -1.6924 -4.2172 -2.7553
   33MOL    H19 3923   2.155   3.847   6.632 -0.0656 -0.2021  0.0739
   33MOL    C20 3924   2.046   3.972   6.498  0.2103  0.8756 -0.3793
   33MOL    F21 3925   2.002   4.098   6.500 -0.3577 -0.6316 -0.5248
   33MOL    F22 3926   2.143   3.972   6.403 -0.0335 -0.0578  0.2224
   33MOL    C23 3927   1.931   3.867   6.458 -0.1762  0.1453 -0.4165
   33MOL    H24 3928   1.887   3.902   6.364  1.6567  0.5901 -1.1118
   33MOL    H25 3929   1.850   3.881   6.530  1.2204  1.0487  1.0239
   33MOL    C26 3930   1.970   3.715   6.440  0.0084 -0.2014 -0.4928
   33MOL    F27 3931   1.992   3.664   6.562  0.4041 -0.1774 -0.4615
   33MOL    F28 3932   1.858   3.659   6.399  0.3045 -0.3204 -0.2155
   33MOL    C29 3933   2.091   3.686   6.347 -0.8581  0.3764 -0.4937
   33MOL    H30 3934   2.174   3.756   6.356 -0.6650 -0.1083  1.7158
   33MOL    H31 3935   2.050   3.705   6.247 -1.9566 -2.4599 -0.6334
   33MOL    C32 3936   2.138   3.540   6.351 -0.2012 -0.7547  0.8104
   33MOL    F33 3937   2.190   3.517   6.469  0.1512 -0.1557 -0.0133
   33MOL    F34 3938   2.024   3.474   6.335 -0.2759  0.4434 -0.5386
   33MOL    C35 3939   2.236   3.516   6.228  0.9612  0.2571  0.4298
   33MOL    H36 3940   2.323   3.581   6.229  0.2569  1.1966  0.8601
   33MOL    H37 3941   2.175   3.539   6.140  0.6998 -0.2633  0.4694
   33MOL    C38 3942   2.264   3.364   6.196  0.1136 -0.2516 -0.8468
   33MOL    F39 3943   2.143   3.306   6.198  0.5363  0.0161 -0.0985
   33MOL    F40 3944   2.323   3.354   6.077 -0.4691 -0.0367  0.2390
   33MOL    C41 3945   2.357   3.307   6.300  0.6936 -0.1063 -0.8139
   33MOL    H42 3946   2.292   3.322   6.386  0.2823 -0.7635 -1.0084
   33MOL    H43 3947   2.446   3.368   6.316  0.8346 -0.9710  2.0241
   33MOL    C44 3948   2.382   3.156   6.282 -0.5964 -0.9855  0.4741
   33MOL    F45 3949   2.283   3.076   6.299 -0.2490  0.3058 -0.3077
   33MOL    F46 3950   2.424   3.147   6.158  0.3654 -0.1303 -0.1454
   33MOL    C47 3951   2.497   3.110   6.383 -0.1086  0.5404 -0.0248
   33MOL    H48 3952   2.592   3.160   6.366  0.5427 -0.5223  0.3979
   33MOL    H49 3953   2.523   3.007   6.356  0.3506  0.1205  1.9208
   33MOL    C50 3954   2.462   3.121   6.534  0.2291 -0.0523  0.3680
   33MOL    F51 3955   2.447   3.245   6.571  0.6198  0.2419 -0.5577
   33MOL    F52 3956   2.361   3.052   6.572 -0.0190  0.2662 -0.5357
   33MOL    C53 3957   2.575   3.058   6.624  0.3755 -0.5271  0.5735
   33MOL    H54 3958   2.579   2.951   6.603 -3.0167 -0.7771  0.9730
   33MOL    H55 3959   2.529   3.076   6.721 -1.3380  0.5972 -0.4071
   33MOL    C56 3960   2.714   3.123   6.614  0.2350  0.8446  0.6561
   33MOL    F57 3961   2.775   3.101   6.496  0.7975 -0.0630 -0.5887
   33MOL    F58 3962   2.705   3.252   6.640  0.4489  0.0754  0.4451
   33MOL    C59 3963   2.818   3.072   6.709 -0.2657 -0.7022 -0.1636
   33MOL    H60 3964   2.910   3.121   6.678  0.1570 -0.5356  1.3279
   33MOL    H61 3965   2.850   2.970   6.687 -0.5198 -0.6196 -0.9304
   33MOL    C62 3966   2.801   3.086   6.863 -0.4471  0.4075  0.0226
   33MOL    F63 3967   2.727   2.986   6.910  0.4778 -0.0161 -0.0925
   33MOL    F64 3968   2.925   3.080   6.920 -0.4398 -0.2471 -0.0555
   33MOL    C65 3969   2.732   3.219   6.914 -0.0482 -0.5389  0.4757
   33MOL    H66 3970   2.643   3.246   6.857  0.6210  1.9796  0.5613
   33MOL    H67 3971   2.806   3.298   6.900 -1.0109  0.0855 -1.3280
   33MOL    C68 3972   2.699   3.226   7.070 -0.2545  0.7209 -0.4490
   33MOL    F69 3973   2.659   3.350   7.094  0.2803  0.1010 -0.3584
   33MOL    F70 3974   2.608   3.133   7.100 -0.1789  0.1890  0.3282
   33MOL    C71 3975   2.825   3.188   7.150 -0.5626  0.1347 -0.0103
   33MOL    H72 3976   2.914   3.232   7.106 -1.6466  1.0486 -1.3258
   33MOL    H73 3977   2.843   3.081   7.136 -0.4266 -0.2385  2.7570
   33MOL    C74 3978   2.828   3.243   7.293 -0.5299  0.1642 -0.3416
   33MOL    F75 3979   2.937   3.210   7.352 -0.0402 -0.3769  0.2524
   33MOL    F76 3980   2.837   3.376   7.290 -0.4032  0.2223  0.2290
   33MOL    C77 3981   2.703   3.198   7.374  0.2526 -0.1235  0.6498
   33MOL    H78 3982   2.676   3.093   7.363 -2.2752  0.5019  0.5591
   33MOL    H79 3983   2.618   3.253   7.332  0.3421  0.1869  0.8672
   33MOL    C80 3984   2.714   3.213   7.528 -0.2956 -0.2927  0.1199
   33MOL    F81 3985   2.604   3.149   7.574 -0.4387 -0.1345 -0.3886
   33MOL    F82 3986   2.825   3.144   7.565  0.3150 -0.2028 -0.3401
   33MOL    C83 3987   2.727   3.358   7.581 -0.0128  0.0014 -0.4177
   33MOL    H84 3988   2.633   3.409   7.557 -0.3200  0.5299  1.8015
   33MOL    H85 3989   2.797   3.414   7.519  2.7698 -1.1143  1.6149
   33MOL    C86 3990   2.745   3.365   7.738  0.1228 -0.1643 -0.7833
   33MOL    F87 3991   2.646   3.295   7.799 -0.0818  0.2103 -0.0689
   33MOL    F88 3992   2.855   3.293   7.761  0.0934 -0.2476  0.0804
   33MOL    C89 3993   2.753   3.501   7.798 -0.3379  0.2651 -0.6960
   33MOL    H90 3994   2.846   3.534   7.751 -0.2689 -0.2405 -0.9199
   33MOL    H91 3995   2.774   3.488   7.904 -1.6186  0.5763 -0.3993
   33MOL    C92 3996   2.639   3.599   7.765 -0.8843  0.2311 -0.6115
   33MOL    F93 3997   2.659   3.662   7.652  0.7329  0.1795  0.1703
   33MOL    F94 3998   2.525   3.535   7.749 -0.0004  0.4357  0.6044
   33MOL    C95 3999   2.606   3.692   7.877 -0.5034  0.3761 -0.1555
   33MOL    H96 4000   2.700   3.735   7.910 -0.0432 -0.3964 -0.4435
   33MOL    H97 4001   2.584   3.619   7.956 -4.0040  0.6379 -0.7952
   33MOL    C98 4002   2.493   3.794   7.862 -0.0838  0.0348  0.0307
   33MOL    F99 4003   2.538   3.894   7.795 -0.4688  0.4985  0.4076
   33MOL   F100 4004   2.387   3.743   7.808 -0.1220  0.2567  0.5399
   33MOL   C101 4005   2.447   3.846   7.994  0.8884  0.1077 -0.6296
   33MOL   H102 4006   2.372   3.924   7.979 -1.7124 -2.0175  0.7775
   33MOL   H103 4007   2.529   3.882   8.056 -0.0916 -2.3423  2.2485
   33MOL   C104 4008   2.361   3.757   8.093 -0.5721  0.2928 -0.8876
   33MOL   F105 4009   2.268   3.675   8.032 -0.1293 -0.2097 -0.1168
   33MOL   F106 4010   2.446   3.682   8.160  0.1871  0.7835 -0.0406
   33MOL   C107 4011   2.290   3.836   8.203  0.1176 -0.5385 -0.2331
   33MOL   H108 4012   2.267   3.761   8.278 -1.4443  0.1764  0.0372
   33MOL   H109 4013   2.197   3.880   8.165  0.2797 -0.2630 -0.3158
   33MOL   C110 4014   2.368   3.942   8.281  0.3453  0.3718  0.7523
   33MOL   F111 4015   2.492   3.893   8.300  0.2831  0.0407  0.1423
   33MOL   F112 4016   2.369   4.059   8.218  0.1078 -0.4727  0.8000
   33MOL   C113 4017   2.310   3.971   0.073  0.6501 -0.1530  0.2351
   33MOL   H114 4018   2.370   4.055   0.107  1.4162 -0.3358 -0.6196
   33MOL   H115 4019   2.335   3.890   0.141  1.3783 -0.2961 -0.1946
   33MOL   C116 4020   2.161   4.008   0.077 -0.3135  0.0784 -0.2410
   33MOL   F117 4021   2.079   3.903   0.038  0.5245  0.0543  0.1998
   33MOL   F118 4022   2.131   4.043   0.204 -0.0236  0.0340 -0.3383
   33MOL   C119 4023   2.120   4.121   8.338 -0.0452 -0.4594  0.2790
   33MOL   H120 4024   2.145   4.107   8.233  1.0423  0.6366  0.3790
   33MOL   H121 4025   2.177   4.210   0.014  0.1258 -0.3742 -0.3790
   33MOL   H122 4026   2.014   4.144   8.341 -0.0606 -0.5244  0.2029
   34MOL     C1 4027   0.475   5.448   7.423  0.0754 -0.4044 -0.6932
   34MOL     F2 4028   0.531   5.523   7.514  0.4256 -0.3029  0.2427
   34MOL     F3 4029   0.558   5.356   7.357  0.0256 -0.4604 -0.3840
   34MOL     C4 4030   0.405   5.531   7.316 -0.1500 -0.0854 -0.6041
   34MOL     H5 4031   0.400   5.474   7.223 -0.5051 -0.0917 -0.5806
   34MOL     H6 4032   0.475   5.613   7.296 -1.0203  0.9741  0.6369
   34MOL     H7 4033   0.394   5.394   7.473 -0.7922  1.4738 -0.0327
   34MOL     C8 4034   0.268   5.598   7.359  0.4173  0.7245 -0.2732
   34MOL     F9 4035   0.180   5.504   7.389  0.0301  0.4334  0.4086
   34MOL    F10 4036   0.283   5.680   7.460 -0.0976 -0.2601 -0.5931
   34MOL    C11 4037   0.211   5.682   7.236  0.5891  0.3562  0.1797
   34MOL    H12 4038   0.220   5.614   7.152 -1.5169  0.1450  0.1139
   34MOL    H13 4039   0.285   5.759   7.213  0.7784  0.0025 -0.3804
   34MOL    C14 4040   0.062   5.722   7.234 -0.3567  0.4072  0.9356
   34MOL    F15 4041   0.035   5.781   7.125  0.2579  0.6587 -0.0881
   34MOL    F16 4042   8.335   5.617   7.242 -0.3373 -0.3284  0.2684
   34MOL    C17 4043   0.019   5.807   7.361  0.1158  0.0100  1.0135
   34MOL    H18 4044   0.091   5.888   7.362  0.0376  0.0993 -0.0903
   34MOL    H19 4045   0.046   5.745   7.447  0.8380  0.2766  0.9854
   34MOL    C20 4046   8.216   5.857   7.374  0.2113 -0.0059  0.2225
   34MOL    F21 4047   8.188   5.903   7.254  0.2635 -0.0408 -0.4278
   34MOL    F22 4048   8.136   5.752   7.398 -0.2036  0.0568 -0.2055
   34MOL    C23 4049   8.199   5.962   7.478 -0.0071  0.4052 -0.8124
   34MOL    H24 4050   8.281   6.033   7.461 -0.7553  1.7189  0.8274
   34MOL    H25 4051   8.227   5.922   7.576 -0.6300 -1.0167 -1.2083
   34MOL    C26 4052   8.067   6.048   7.471 -0.6661  0.0374 -0.0100
   34MOL    F27 4053   8.068   6.124   7.579  0.3281  0.3598 -0.2667
   34MOL    F28 4054   8.078   6.132   7.372 -0.6977 -0.1243  0.2913
   34MOL    C29 4055   7.941   5.965   7.449 -0.0424  0.1050  0.1976
   34MOL    H30 4056   7.930   5.890   7.526  0.4891  0.9311  1.0956
   34MOL    H31 4057   7.949   5.915   7.352 -1.6921 -0.5835  0.4057
   34MOL    C32 4058   7.806   6.037   7.433  0.4618  0.2778 -0.3712
   34MOL    F33 4059   7.800   6.108   7.542  0.1636 -0.3571 -0.7024
   34MOL    F34 4060   7.801   6.122   7.338  0.0880 -0.6327  0.2364
   34MOL    C35 4061   7.691   5.930   7.425  0.5629  0.3512 -0.1908
   34MOL    H36 4062   7.705   5.837   7.481  0.7318  0.2114 -0.4612
   34MOL    H37 4063   7.691   5.888   7.324  1.9372 -1.5330  0.5624
   34MOL    C38 4064   7.553   5.983   7.454 -0.7238 -0.5978  0.1877
   34MOL    F39 4065   7.461   5.885   7.455 -0.3017  0.3779 -0.3391
   34MOL    F40 4066   7.564   6.035   7.575  0.0762  0.0955 -0.0066
   34MOL    C41 4067   7.491   6.101   7.370 -0.3846 -0.0993  0.8031
   34MOL    H42 4068   7.503   6.073   7.265 -2.4271  0.3168  0.4356
   34MOL    H43 4069   7.549   6.191   7.393 -0.7385  0.1648  0.6700
   34MOL    C44 4070   7.341   6.142   7.406  0.1221  0.0176 -0.1721
   34MOL    F45 4071   7.296   6.245   7.335  0.1236  0.1634 -0.3383
   34MOL    F46 4072   7.267   6.041   7.372  0.5150 -0.1534  0.6480
   34MOL    C47 4073   7.308   6.161   7.551 -0.0509 -0.0522 -0.3138
   34MOL    H48 4074   7.333   6.070   7.606  0.0376  0.0646 -0.1601
   34MOL    H49 4075   7.199   6.165   7.557 -0.0786 -1.6022  0.3495
   34MOL    C50 4076   7.358   6.286   7.627 -0.4846 -0.6167 -0.1795
   34MOL    F51 4077   7.292   6.314   7.741 -0.0173  0.0016 -0.1764
   34MOL    F52 4078   7.485   6.274   7.665 -0.0744  0.4643  0.4938
   34MOL    C53 4079   7.342   6.411   7.542  0.6080 -0.5548 -0.0339
   34MOL    H54 4080   7.243   6.428   7.501  1.0472  3.2423  0.2508
   34MOL    H55 4081   7.401   6.397   7.452  0.1788 -1.7957 -0.1213
   34MOL    C56 4082   7.392   6.550   7.601  0.0724  0.2719  0.3221
   34MOL    F57 4083   7.361   6.645   7.513 -0.0494 -0.1962  0.2018
   34MOL    F58 4084   7.332   6.579   7.717 -0.8515 -0.3343  0.5177
   34MOL    C59 4085   7.548   6.548   7.616  0.3623 -0.3157  0.7215
   34MOL    H60 4086   7.599   6.517   7.525 -0.5324  1.0235 -0.2561
   34MOL    H61 4087   7.583   6.481   7.695  1.0878 -0.2364  0.4647
   34MOL    C62 4088   7.599   6.687   7.662 -0.2734  0.0979 -1.0925
   34MOL    F63 4089   7.725   6.663   7.683 -0.1341  0.4052  0.4568
   34MOL    F64 4090   7.596   6.768   7.561  0.1597 -0.2680  0.2928
   34MOL    C65 4091   7.537   6.757   7.783 -0.7158 -0.4106  0.2526
   34MOL    H66 4092   7.529   6.689   7.868  0.1926  0.7956  1.3139
   34MOL    H67 4093   7.431   6.775   7.765 -1.3797 -3.2359  1.1311
   34MOL    C68 4094   7.619   6.876   7.835  0.4591  0.5405 -0.3902
   34MOL    F69 4095   7.743   6.854   7.876 -0.2021  0.0379  0.1593
   34MOL    F70 4096   7.614   6.958   7.737 -0.0129 -0.2408  0.4424
   34MOL    C71 4097   7.553   6.944   7.959 -0.7395 -0.5712 -0.3720
   34MOL    H72 4098   7.532   6.886   8.049  0.1326  1.4425  1.1671
   34MOL    H73 4099   7.453   6.979   7.935 -0.6181  0.3304  0.4245
   34MOL    C74 4100   7.614   7.078   8.005  0.5500 -0.6046  0.2899
   34MOL    F75 4101   7.608   7.158   7.898 -0.1379  0.1140 -0.1692
   34MOL    F76 4102   7.540   7.132   8.104  0.2920 -0.0032  0.1500
   34MOL    C77 4103   7.755   7.072   8.054  0.3432  0.2114 -0.2790
   34MOL    H78 4104   7.783   7.173   8.083  2.2908 -0.6862  1.0959
   34MOL    H79 4105   7.815   7.039   7.968 -1.2437  1.0538 -1.7416
   34MOL    C80 4106   7.783   6.995   8.187  1.3028  0.1405 -0.5268
   34MOL    F81 4107   7.694   7.034   8.284 -0.3053 -0.0810 -0.1852
   34MOL    F82 4108   7.749   6.870   8.158  0.2923  0.1745 -0.5002
   34MOL    C83 4109   7.929   7.004   8.226  0.0203 -0.4855  0.6029
   34MOL    H84 4110   7.952   7.110   8.238 -0.4920 -0.1636 -1.0469
   34MOL    H85 4111   7.995   6.963   8.150 -0.5808 -1.1448  0.4319
   34MOL    C86 4112   7.979   6.932   0.001 -0.0079  0.1450 -0.9120
   34MOL    F87 4113   7.945   6.806   8.331 -0.6606  0.1283  0.5271
   34MOL    F88 4114   8.112   6.939   0.004 -0.1865 -0.4130 -0.0097
   34MOL    C89 4115   7.927   6.993   0.133 -0.2566  0.3925  0.2612
   34MOL    H90 4116   7.978   6.937   0.211 -0.2621  0.3787  0.2547
   34MOL    H91 4117   7.822   6.967   0.151 -0.3032 -0.1746 -0.7849
   34MOL    C92 4118   7.943   7.140   0.154 -0.4190  0.1208 -0.3713
   34MOL    F93 4119   8.064   7.191   0.128 -0.1612 -0.3151 -0.5492
   34MOL    F94 4120   7.853   7.207   0.072 -0.3023  0.0334  0.5299
   34MOL    C95 4121   7.900   7.202   0.294  0.5298  0.2084 -0.0380
   34MOL    H96 4122   7.796   7.171   0.303  0.3050  0.7291 -0.8057
   34MOL    H97 4123   7.903   7.309   0.275 -1.1865 -0.1494 -2.7419
   34MOL    C98 4124   7.995   7.163   0.419 -0.0432 -0.5971  0.5084
   34MOL    F99 4125   8.020   7.029   0.431  0.1868 -0.2146  0.0937
   34MOL   F100 4126   8.111   7.222   0.395  0.2840  0.2851  0.1989
   34MOL   C101 4127   7.950   7.227   0.552 -0.8016 -0.3079  0.0066
   34MOL   H102 4128   7.947   7.334   0.532  2.2917 -0.6045 -2.3861
   34MOL   H103 4129   8.033   7.221   0.621  0.3120 -2.8557 -1.4799
   34MOL   C104 4130   7.824   7.171   0.625  0.5986 -0.6375 -0.3370
   34MOL   F105 4131   7.730   7.145   0.529 -0.0495  0.7375 -0.5504
   34MOL   F106 4132   7.842   7.062   0.694  0.0273  0.0770  0.7094
   34MOL   C107 4133   7.769   7.287   0.727  0.1421 -0.2245  0.0153
   34MOL   H108 4134   7.751   7.384   0.679  1.0118 -1.2803 -2.5741
   34MOL   H109 4135   7.843   7.297   0.807 -1.9183 -0.3001  1.9625
   34MOL   C110 4136   7.635   7.250   0.791 -0.5120 -0.2334 -0.4841
   34MOL   F111 4137   7.541   7.224   0.703 -0.4348  0.9317  0.3113
   34MOL   F112 4138   7.658   7.139   0.863 -0.5234 -0.1093  0.4472
   34MOL   C113 4139   7.573   7.352   0.888  0.2572  0.1332 -1.1368
   34MOL   H114 4140   7.489   7.307   0.943  1.9004 -1.0572  0.4741
   34MOL   H115 4141   7.539   7.433   0.825 -1.4659 -0.8933 -1.5708
   34MOL   C116 4142   7.680   7.410   0.989 -0.4450 -0.0910  0.2449
   34MOL   F117 4143   7.748   7.321   1.066  0.1805  0.4581 -0.1361
   34MOL   F118 4144   7.772   7.488   0.924 -0.4318  0.0216  0.3331
   34MOL   C119 4145   7.617   7.509   1.084  0.1463  0.0287  0.4437
   34MOL   H120 4146   7.693   7.566   1.137  2.2082  0.2631 -2.5789
   34MOL   H121 4147   7.558   7.452   1.156 -1.2639 -1.1463 -1.5862
   34MOL   H122 4148   7.546   7.574   1.032  0.5667  0.5940  0.5731
   35MOL     C1 4149   2.162   4.826   1.381 -0.8508 -0.1910  0.0240
   35MOL     F2 4150   2.280   4.846   1.322 -0.3999 -0.5962 -0.0767
   35MOL     F3 4151   2.095   4.737   1.318  0.5667 -0.4798  0.3010
   35MOL     C4 4152   2.083   4.955   1.388  0.2236  0.1437  0.0886
   35MOL     H5 4153   1.990   4.928   1.438  0.9384 -1.0626  0.7847
   35MOL     H6 4154   2.046   4.978   1.288  2.1248  1.0858 -0.4295
   35MOL     H7 4155   2.190   4.794   1.481  0.2228 -1.0738 -0.5457
   35MOL     C8 4156   2.156   5.071   1.462  0.0322  0.1876 -0.2329
   35MOL     F9 4157   2.156   5.033   1.587 -0.3159  0.0586  0.0639
   35MOL    F10 4158   2.280   5.088   1.410 -0.2385  0.4475 -0.5315
   35MOL    C11 4159   2.078   5.205   1.464 -0.4193  0.9402  0.0238
   35MOL    H12 4160   1.973   5.186   1.482 -0.4723  1.4082  0.2258
   35MOL    H13 4161   2.086   5.231   1.358 -0.3694 -0.5200 -0.3450
   35MOL    C14 4162   2.123   5.316   1.560  0.3117  0.3029 -0.2510
   35MOL    F15 4163   2.057   5.428   1.526  0.2725  0.0550  0.0675
   35MOL    F16 4164   2.083   5.278   1.674  0.2130 -0.4718  0.7851
   35MOL    C17 4165   2.278   5.333   1.555  0.8567  0.6473 -0.7168
   35MOL    H18 4166   2.319   5.354   1.456  0.3772  2.3021 -0.5872
   35MOL    H19 4167   2.324   5.246   1.601  1.5539  1.0235 -0.6942
   35MOL    C20 4168   2.328   5.447   1.649  0.0329  0.1619  0.5736
   35MOL    F21 4169   2.287   5.431   1.774 -0.3821 -0.2246 -0.1127
   35MOL    F22 4170   2.464   5.445   1.643  0.1831  0.3248 -0.3622
   35MOL    C23 4171   2.282   5.595   1.602 -0.1347 -0.7624 -0.4111
   35MOL    H24 4172   2.337   5.666   1.664 -0.1661  0.8862 -2.2319
   35MOL    H25 4173   2.179   5.623   1.623 -0.2863 -0.7727 -1.1389
   35MOL    C26 4174   2.308   5.632   1.453  0.5911  0.2174  0.2851
   35MOL    F27 4175   2.437   5.604   1.425 -0.0591  0.1693  0.2846
   35MOL    F28 4176   2.229   5.552   1.381 -0.3900  0.4469 -0.3584
   35MOL    C29 4177   2.278   5.781   1.420  0.3673  0.0960 -0.1437
   35MOL    H30 4178   2.352   5.846   1.465  0.9815 -1.3316  0.9367
   35MOL    H31 4179   2.182   5.804   1.467  0.6181  3.9975 -1.3865
   35MOL    C32 4180   2.262   5.818   1.276 -0.2563 -0.0365  0.5492
   35MOL    F33 4181   2.168   5.747   1.219  0.0499  0.4468 -0.0124
   35MOL    F34 4182   2.238   5.942   1.258  0.3382  0.4038 -0.1970
   35MOL    C35 4183   2.388   5.790   1.189 -0.5461 -0.1950 -0.6442
   35MOL    H36 4184   2.359   5.819   1.088  0.8423 -2.3663 -1.6892
   35MOL    H37 4185   2.407   5.683   1.194 -0.9598 -0.2746 -0.6953
   35MOL    C38 4186   2.518   5.861   1.221 -0.2133 -0.6475  0.1663
   35MOL    F39 4187   2.497   5.991   1.236 -0.0430  0.2260  0.0005
   35MOL    F40 4188   2.565   5.818   1.335 -0.4079 -0.0763 -0.1738
   35MOL    C41 4189   2.623   5.836   1.109  0.3768 -0.3339 -0.0265
   35MOL    H42 4190   2.621   5.737   1.063  3.8493  0.5906 -2.3605
   35MOL    H43 4191   2.722   5.843   1.155 -0.3193  0.5811  1.3803
   35MOL    C44 4192   2.627   5.941   0.990  0.6801 -0.8952  0.2389
   35MOL    F45 4193   2.502   5.949   0.949 -0.3186  0.1970 -0.3581
   35MOL    F46 4194   2.662   6.058   1.035  0.5180  0.0981 -0.3874
   35MOL    C47 4195   2.720   5.918   0.871  0.2794 -0.6005  0.2745
   35MOL    H48 4196   2.696   5.991   0.793 -0.5168 -2.9252 -1.7162
   35MOL    H49 4197   2.697   5.822   0.826 -1.0637 -0.6105  0.9511
   35MOL    C50 4198   2.871   5.926   0.906  0.6969 -0.5730 -0.0181
   35MOL    F51 4199   2.896   6.046   0.960  0.4227 -0.0335 -0.4340
   35MOL    F52 4200   2.896   5.835   0.998 -0.3521 -0.2510 -0.2137
   35MOL    C53 4201   2.968   5.913   0.781 -0.2896  0.1434 -0.2101
   35MOL    H54 4202   3.073   5.903   0.809 -0.4529  0.0354  0.3777
   35MOL    H55 4203   2.950   6.001   0.720 -1.1333 -0.0374 -0.2326
   35MOL    C56 4204   2.927   5.799   0.685  0.0316  0.2465 -0.0803
   35MOL    F57 4205   2.904   5.685   0.743 -0.1964 -0.2347  0.4953
   35MOL    F58 4206   2.823   5.836   0.606 -0.0519  0.2969 -0.3512
   35MOL    C59 4207   3.046   5.781   0.584 -0.1553  0.3734 -0.1846
   35MOL    H60 4208   3.022   5.684   0.541  0.7007 -0.1379  0.4907
   35MOL    H61 4209   3.139   5.763   0.637 -0.1636  0.0010 -0.2955
   35MOL    C62 4210   3.075   5.882   0.477  0.6173 -0.2316  0.1993
   35MOL    F63 4211   2.971   5.883   0.396  0.4681 -0.6974 -0.4060
   35MOL    F64 4212   3.084   5.998   0.539 -0.1583  0.4606  0.1268
   35MOL    C65 4213   3.205   5.850   0.391 -0.4131  0.0550 -0.2258
   35MOL    H66 4214   3.200   5.752   0.344 -2.1996 -0.0309  0.1189
   35MOL    H67 4215   3.285   5.852   0.465 -1.1984  0.4375  0.6205
   35MOL    C68 4216   3.229   5.950   0.288 -0.0687  0.2187 -0.3231
   35MOL    F69 4217   3.125   5.945   0.202 -0.2210 -0.5273  0.1496
   35MOL    F70 4218   3.245   6.067   0.353  0.2252  0.3281  0.2349
   35MOL    C71 4219   3.360   5.924   0.209  0.9506  0.0564  0.1857
   35MOL    H72 4220   3.440   5.887   0.273 -1.3190 -0.9525  2.4739
   35MOL    H73 4221   3.407   6.018   0.180 -0.9343  0.2845 -2.3087
   35MOL    C74 4222   3.345   5.845   0.080  0.2410  0.1262 -0.1298
   35MOL    F75 4223   3.248   5.755   0.103 -0.2103 -0.5036 -0.6593
   35MOL    F76 4224   3.304   5.932   8.335 -0.6620  0.5418  0.1355
   35MOL    C77 4225   3.470   5.773   0.022 -0.0184 -0.6033  0.3084
   35MOL    H78 4226   3.502   5.699   0.095 -0.2692  0.8909  1.9623
   35MOL    H79 4227   3.550   5.843   8.345 -1.2442  1.3030  1.4857
   35MOL    C80 4228   3.437   5.693   8.237 -0.2884 -0.4999  0.4937
   35MOL    F81 4229   3.324   5.622   8.235 -0.4753 -0.0161 -0.6655
   35MOL    F82 4230   3.427   5.795   8.146 -0.2389 -0.2185  0.9656
   35MOL    C83 4231   3.558   5.605   8.192 -0.2606 -0.2494  0.4151
   35MOL    H84 4232   3.636   5.681   8.186 -2.2884  1.8330 -0.4942
   35MOL    H85 4233   3.532   5.576   8.090 -0.4402 -0.9453  0.6631
   35MOL    C86 4234   3.597   5.481   8.270 -0.3044 -0.3009 -0.5230
   35MOL    F87 4235   3.626   5.511   0.044 -0.1621 -0.5370  0.2268
   35MOL    F88 4236   3.483   5.409   8.277  0.8612  0.2675  0.5593
   35MOL    C89 4237   3.708   5.399   8.203 -0.0085  0.7277 -0.6274
   35MOL    H90 4238   3.664   5.353   8.115  1.0251 -0.3188 -0.6212
   35MOL    H91 4239   3.739   5.318   8.269  2.8305  1.8806 -0.4726
   35MOL    C92 4240   3.837   5.473   8.167 -0.6275  0.4642 -0.2038
   35MOL    F93 4241   3.813   5.561   8.072 -0.5083 -0.3196 -0.0576
   35MOL    F94 4242   3.883   5.531   8.275  0.0359  0.1984 -0.4332
   35MOL    C95 4243   3.950   5.375   8.127  0.0465  0.1315  0.3135
   35MOL    H96 4244   3.970   5.315   8.216  3.8415 -1.9177 -1.7940
   35MOL    H97 4245   4.039   5.437   8.114  0.0089 -0.3347 -2.3628
   35MOL    C98 4246   3.925   5.275   8.010 -0.6074 -0.1571  1.0836
   35MOL    F99 4247   4.039   5.191   8.018  0.1922  0.3969  0.1017
   35MOL   F100 4248   3.826   5.191   8.042  0.0925 -0.1346 -0.1436
   35MOL   C101 4249   3.913   5.342   7.864 -0.0723 -0.4235  0.3710
   35MOL   H102 4250   4.002   5.400   7.839  2.1543 -3.2378  1.4696
   35MOL   H103 4251   3.834   5.418   7.871  0.1637 -0.1592  0.1926
   35MOL   C104 4252   3.883   5.242   7.751 -0.5588  0.5488 -0.7500
   35MOL   F105 4253   3.966   5.141   7.751 -0.4773 -0.3859 -0.0207
   35MOL   F106 4254   3.763   5.200   7.779 -0.1500 -0.3141  0.0800
   35MOL   C107 4255   3.870   5.289   7.608 -0.4408 -0.4610  0.3302
   35MOL   H108 4256   3.785   5.356   7.619  0.9536  1.2026  1.1499
   35MOL   H109 4257   3.843   5.194   7.560  1.0281 -1.3830  1.2960
   35MOL   C110 4258   4.000   5.349   7.543 -0.4181  0.1666 -0.3105
   35MOL   F111 4259   4.002   5.473   7.593  0.1663 -0.5929  0.1114
   35MOL   F112 4260   4.099   5.268   7.581 -0.4856  0.0873  0.0055
   35MOL   C113 4261   4.000   5.365   7.388  0.4087 -0.2165  0.7026
   35MOL   H114 4262   3.925   5.436   7.354  0.6618 -0.8527 -1.2817
   35MOL   H115 4263   3.965   5.269   7.349 -0.3170  0.6958 -0.9288
   35MOL   C116 4264   4.139   5.397   7.331  0.5020  0.0740  0.6313
   35MOL   F117 4265   4.224   5.294   7.349  0.0293  0.1300 -0.2663
   35MOL   F118 4266   4.117   5.423   7.200  0.1374  0.2307 -0.2862
   35MOL   C119 4267   4.199   5.526   7.381 -0.3132 -0.2341 -0.3224
   35MOL   H120 4268   4.124   5.603   7.371 -2.0106 -2.0164 -1.7432
   35MOL   H121 4269   4.292   5.551   7.329  1.2588 -0.3288  2.3494
   35MOL   H122 4270   4.232   5.524   7.485  0.2537  1.1575 -0.4620
   36MOL     C1 4271   6.871   7.538   3.907  0.1588 -0.8888 -0.9918
   36MOL     F2 4272   6.952   7.616   3.978 -0.2114  0.2064  0.2087
   36MOL     F3 4273   6.750   7.595   3.890  0.1035 -0.6677 -0.2468
   36MOL     C4 4274   6.863   7.389   3.967  0.2068 -0.0539 -0.2567
   36MOL     H5 4275   6.829   7.413   4.068  1.3877 -1.7803  0.5782
   36MOL     H6 4276   6.963   7.346   3.972 -1.7423 -4.8119  0.5710
   36MOL     H7 4277   6.921   7.536   3.810 -0.4596 -3.5227 -1.2861
   36MOL     C8 4278   6.770   7.297   3.888  0.6284 -0.0375 -0.2972
   36MOL     F9 4279   6.644   7.330   3.883 -0.3179 -0.3210 -0.1250
   36MOL    F10 4280   6.820   7.286   3.768 -0.2948  0.1693 -0.1100
   36MOL    C11 4281   6.766   7.149   3.950  0.3176 -0.2907 -0.4277
   36MOL    H12 4282   6.865   7.105   3.944 -0.2598 -1.4809 -1.3248
   36MOL    H13 4283   6.705   7.091   3.881  0.4575 -1.0317  0.0706
   36MOL    C14 4284   6.700   7.140   4.084 -0.0705  0.8189 -1.2641
   36MOL    F15 4285   6.759   7.226   4.170  0.0547  0.3930 -0.3216
   36MOL    F16 4286   6.575   7.164   4.071 -0.0488  0.8114 -0.3750
   36MOL    C17 4287   6.711   7.004   4.159 -0.0335 -0.0524  0.2836
   36MOL    H18 4288   6.818   6.987   4.148  0.1782  2.0444 -1.1803
   36MOL    H19 4289   6.665   6.925   4.100  1.5940 -1.3975  0.7702
   36MOL    C20 4290   6.668   6.992   4.307  0.7441 -0.0984 -0.3637
   36MOL    F21 4291   6.728   7.083   4.377 -0.3353  0.2124 -0.2135
   36MOL    F22 4292   6.536   7.004   4.316  0.2602  0.0204  0.2038
   36MOL    C23 4293   6.706   6.861   4.370  0.5328 -0.2252  0.2111
   36MOL    H24 4294   6.678   6.859   4.475 -0.1826 -0.0245  0.0277
   36MOL    H25 4295   6.815   6.861   4.375  0.4666 -0.9940  2.1518
   36MOL    C26 4296   6.662   6.736   4.298 -0.0984  0.3730 -0.5957
   36MOL    F27 4297   6.527   6.736   4.283 -0.2631  0.5570 -0.1634
   36MOL    F28 4298   6.718   6.727   4.176 -0.1394  0.6415 -0.9375
   36MOL    C29 4299   6.695   6.597   4.367  0.1957  0.1420  0.0114
   36MOL    H30 4300   6.646   6.525   4.301  0.3014  0.2411 -0.1737
   36MOL    H31 4301   6.634   6.565   4.451  2.0558 -1.1232  0.9201
   36MOL    C32 4302   6.851   6.578   4.396 -0.1240 -0.1580  0.4612
   36MOL    F33 4303   6.909   6.610   4.282 -0.2962  0.3624  0.0778
   36MOL    F34 4304   6.888   6.659   4.493 -0.3325 -0.0976 -0.6361
   36MOL    C35 4305   6.895   6.436   4.449 -0.2408 -0.5361  0.1886
   36MOL    H36 4306   6.845   6.427   4.545  0.9759  0.1146  0.8952
   36MOL    H37 4307   7.003   6.438   4.460 -0.4349  1.4915  1.9823
   36MOL    C38 4308   6.848   6.320   4.360 -0.3809 -0.5438 -0.0761
   36MOL    F39 4309   6.720   6.295   4.377 -0.5159  0.6230  0.3101
   36MOL    F40 4310   6.859   6.341   4.227 -0.0743  0.0103  0.7447
   36MOL    C41 4311   6.927   6.195   4.397 -0.1549 -0.4981  0.6870
   36MOL    H42 4312   6.905   6.175   4.502  1.1126 -0.0671  1.0435
   36MOL    H43 4313   7.033   6.220   4.391 -0.4300  1.1727  2.2725
   36MOL    C44 4314   6.895   6.066   4.315 -0.3878 -0.5942  1.0885
   36MOL    F45 4315   6.766   6.057   4.277  0.2599  0.6763 -0.0833
   36MOL    F46 4316   6.958   6.077   4.200 -0.4233  0.3228  0.2164
   36MOL    C47 4317   6.928   5.933   4.395  0.2820 -0.4727 -0.1098
   36MOL    H48 4318   7.007   5.964   4.463 -2.1316 -0.8270  2.9981
   36MOL    H49 4319   6.955   5.858   4.320 -3.2291  0.4182 -2.3758
   36MOL    C50 4320   6.817   5.874   4.489  0.5072 -0.0256  0.4817
   36MOL    F51 4321   6.765   5.978   4.549  0.1684 -0.4051 -0.3710
   36MOL    F52 4322   6.722   5.818   4.414 -0.3218 -0.0911  0.1522
   36MOL    C53 4323   6.858   5.763   4.588  0.4391 -0.0579 -0.2086
   36MOL    H54 4324   6.774   5.720   4.642 -0.6449  0.1457 -1.7235
   36MOL    H55 4325   6.924   5.809   4.662 -1.5646  1.8948  0.4081
   36MOL    C56 4326   6.935   5.638   4.519 -0.1822 -0.0622  0.2493
   36MOL    F57 4327   6.876   5.601   4.406  0.3627  0.0159  0.4214
   36MOL    F58 4328   7.051   5.699   4.492  0.5404  0.6961  0.0903
   36MOL    C59 4329   6.959   5.517   4.617  0.0834  0.8747 -0.0433
   36MOL    H60 4330   6.980   5.436   4.546 -4.4791 -0.3597 -0.1384
   36MOL    H61 4331   6.857   5.498   4.652 -0.6810  2.5890 -1.2696
   36MOL    C62 4332   7.063   5.521   4.724 -0.6810 -0.2008  0.0316
   36MOL    F63 4333   7.187   5.523   4.672  0.1661 -0.3676 -0.1254
   36MOL    F64 4334   7.033   5.622   4.798 -0.2396  0.0708 -0.4149
   36MOL    C65 4335   7.044   5.394   4.808  0.2899 -1.0405  0.6697
   36MOL    H66 4336   7.061   5.309   4.742 -0.6036 -0.3526 -0.4435
   36MOL    H67 4337   6.946   5.389   4.856  0.1544  0.5167  0.5543
   36MOL    C68 4338   7.135   5.377   4.936 -0.1882  0.2114  0.0328
   36MOL    F69 4339   7.122   5.260   4.998 -0.2443 -0.0545 -0.2180
   36MOL    F70 4340   7.261   5.379   4.894 -0.0462 -0.2476  0.2148
   36MOL    C71 4341   7.100   5.470   5.050 -0.0042 -0.1366 -0.1128
   36MOL    H72 4342   6.994   5.460   5.072  0.0485  0.8968  0.6581
   36MOL    H73 4343   7.115   5.572   5.017  3.1557 -0.9268 -1.3035
   36MOL    C74 4344   7.169   5.461   5.184  0.4666 -0.0367 -0.1174
   36MOL    F75 4345   7.156   5.339   5.235 -0.0145 -0.4309  0.5712
   36MOL    F76 4346   7.298   5.490   5.162 -0.5451 -0.0480  0.2474
   36MOL    C77 4347   7.107   5.555   5.284  0.2969  0.3246 -0.1298
   36MOL    H78 4348   7.134   5.660   5.276  0.6374  0.1532 -1.2780
   36MOL    H79 4349   7.157   5.537   5.379 -1.3025 -2.9368  0.1670
   36MOL    C80 4350   6.956   5.560   5.295 -0.4981 -0.2181  0.0499
   36MOL    F81 4351   6.897   5.618   5.185  0.0694 -0.0075 -0.6137
   36MOL    F82 4352   6.907   5.439   5.307  0.2221  0.6233  0.1222
   36MOL    C83 4353   6.905   5.653   5.417 -0.2998 -0.5903  0.2149
   36MOL    H84 4354   6.797   5.665   5.406 -0.2290  0.4346  0.5449
   36MOL    H85 4355   6.936   5.757   5.402  3.2111 -1.4211  1.1652
   36MOL    C86 4356   6.957   5.618   5.564  0.5481 -0.6474  0.5720
   36MOL    F87 4357   6.921   5.486   5.586 -0.2995  0.1515  0.0308
   36MOL    F88 4358   7.087   5.634   5.566  0.2873 -0.3050  0.5163
   36MOL    C89 4359   6.902   5.700   5.686 -0.2022 -0.1221 -0.3594
   36MOL    H90 4360   6.895   5.805   5.656  0.1652 -0.2334 -0.8549
   36MOL    H91 4361   6.975   5.690   5.766 -0.2437  1.3838 -0.1130
   36MOL    C92 4362   6.751   5.672   5.721 -0.0784  0.0676 -0.2199
   36MOL    F93 4363   6.713   5.761   5.810 -0.4836 -0.1594 -0.0910
   36MOL    F94 4364   6.669   5.673   5.615  0.1061 -0.1936  0.2961
   36MOL    C95 4365   6.725   5.537   5.799  0.6742 -0.3349  0.1119
   36MOL    H96 4366   6.719   5.460   5.722  0.4107 -1.5009  1.2737
   36MOL    H97 4367   6.631   5.545   5.854  1.8724 -1.3854  2.4071
   36MOL    C98 4368   6.823   5.500   5.920  0.3085 -0.6647  0.2158
   36MOL    F99 4369   6.954   5.489   5.891  0.3675 -0.1567  0.4056
   36MOL   F100 4370   6.823   5.607   5.999 -0.0167 -0.0368 -0.1871
   36MOL   C101 4371   6.786   5.377   6.010 -0.0782 -0.1647 -0.7715
   36MOL   H102 4372   6.872   5.343   6.069 -0.7737  1.2022  1.0837
   36MOL   H103 4373   6.767   5.286   5.952  1.3002 -0.4809 -0.7474
   36MOL   C104 4374   6.672   5.397   6.103  0.3981 -0.3406 -0.0085
   36MOL   F105 4375   6.705   5.489   6.193 -0.5196 -0.2919 -0.3085
   36MOL   F106 4376   6.559   5.421   6.042 -0.1754  0.2794  0.0038
   36MOL   C107 4377   6.637   5.269   6.184  0.0738 -1.0694  0.0572
   36MOL   H108 4378   6.542   5.292   6.233  0.3281 -1.4626  0.7344
   36MOL   H109 4379   6.705   5.256   6.268  0.2975  1.4112  0.2980
   36MOL   C110 4380   6.605   5.135   6.117 -0.2984 -0.6721 -0.3968
   36MOL   F111 4381   6.532   5.168   6.005 -0.2266  0.2370  0.3285
   36MOL   F112 4382   6.727   5.089   6.073  0.2660  1.0802  0.4959
   36MOL   C113 4383   6.537   5.033   6.207 -0.4245  0.6720 -0.3241
   36MOL   H114 4384   6.444   5.069   6.251 -1.4141 -1.0200 -0.9695
   36MOL   H115 4385   6.597   5.012   6.296  0.0748  0.6330 -0.6668
   36MOL   C116 4386   6.484   4.909   6.136  0.0922 -0.0292  0.5365
   36MOL   F117 4387   6.401   4.943   6.035 -0.2788  0.0627  0.2581
   36MOL   F118 4388   6.588   4.848   6.075  0.0298 -0.2779 -0.1403
   36MOL   C119 4389   6.402   4.816   6.228 -0.2247 -0.3959 -0.7497
   36MOL   H120 4390   6.359   4.728   6.182  0.7802 -2.2278  1.6916
   36MOL   H121 4391   6.313   4.865   6.270 -0.4517 -1.0426 -0.4697
   36MOL   H122 4392   6.466   4.785   6.311 -1.4282  1.2665  0.8397
   37MOL     C1 4393   4.054   7.605   7.578  0.2850 -0.0950 -0.4609
   37MOL     F2 4394   4.102   7.484   7.591  0.4439 -0.2584  0.3909
   37MOL     F3 4395   3.916   7.591   7.582  0.1595  0.3221 -0.1715
   37MOL     C4 4396   4.095   7.653   7.436 -0.4595 -0.2111  0.0834
   37MOL     H5 4397   4.043   7.747   7.419  0.1390  0.3256  1.1324
   37MOL     H6 4398   4.058   7.584   7.360 -1.8178  1.0331 -0.3966
   37MOL     H7 4399   4.103   7.669   7.651  2.1412 -0.8144 -1.0370
   37MOL     C8 4400   4.250   7.667   7.417 -0.3012  0.3131 -0.6072
   37MOL     F9 4401   4.286   7.759   7.507  0.4079 -0.0147 -0.5500
   37MOL    F10 4402   4.313   7.556   7.454  0.0536  0.4915  0.2518
   37MOL    C11 4403   4.294   7.720   7.279  0.6651 -0.2309  0.9120
   37MOL    H12 4404   4.400   7.745   7.271  1.0251 -1.6448  1.0268
   37MOL    H13 4405   4.248   7.816   7.257  0.3477 -0.9132 -1.5348
   37MOL    C14 4406   4.274   7.635   7.155  0.4227  0.0239  0.1238
   37MOL    F15 4407   4.330   7.515   7.181  0.6208  0.3488 -0.3217
   37MOL    F16 4408   4.146   7.612   7.148 -0.5216 -1.0772 -0.1006
   37MOL    C17 4409   4.316   7.698   7.025 -0.7277 -0.4809  0.2116
   37MOL    H18 4410   4.420   7.729   7.033 -0.7716 -0.7825  2.0246
   37MOL    H19 4411   4.254   7.786   7.004  1.0119  1.0191  1.2684
   37MOL    C20 4412   4.298   7.609   6.904  0.1938 -0.2571  0.0658
   37MOL    F21 4413   4.167   7.579   6.884  0.2819 -0.4179  0.0203
   37MOL    F22 4414   4.324   7.691   6.811  0.0747 -0.0445  0.0815
   37MOL    C23 4415   4.401   7.488   6.894  0.0136 -0.2242 -0.4889
   37MOL    H24 4416   4.365   7.414   6.966  1.7347 -1.1636 -0.5677
   37MOL    H25 4417   4.500   7.504   6.937 -0.1011 -2.0577  0.5096
   37MOL    C26 4418   4.404   7.419   6.756 -0.2527 -0.1079  0.4298
   37MOL    F27 4419   4.469   7.492   6.662  0.2169  0.0947  0.5685
   37MOL    F28 4420   4.489   7.315   6.774 -0.3754  0.4971  0.1034
   37MOL    C29 4421   4.271   7.355   6.688  0.0335  0.2968  0.6498
   37MOL    H30 4422   4.307   7.307   6.597  2.3669  0.3739  1.4828
   37MOL    H31 4423   4.205   7.430   6.644  1.6909  1.1074 -0.5294
   37MOL    C32 4424   4.198   7.255   6.781  0.2475 -0.4355  0.5150
   37MOL    F33 4425   4.139   7.322   6.882  0.8239 -0.0361 -0.1029
   37MOL    F34 4426   4.108   7.196   6.707  0.9440  0.7559 -0.3217
   37MOL    C35 4427   4.285   7.141   6.841  0.1326 -0.0249  0.4314
   37MOL    H36 4428   4.344   7.194   6.915 -0.4495  0.9669  0.1927
   37MOL    H37 4429   4.359   7.114   6.765 -2.8091 -2.2136 -1.7754
   37MOL    C38 4430   4.217   7.023   6.905 -0.2520 -0.7116  0.0954
   37MOL    F39 4431   4.165   6.958   6.805  0.0460 -0.8713 -0.1649
   37MOL    F40 4432   4.308   6.939   6.955 -0.1092  0.4525  0.0983
   37MOL    C41 4433   4.100   7.048   7.010  0.5016  0.8750  0.6262
   37MOL    H42 4434   4.049   6.953   7.018  1.3299  0.2998 -0.6718
   37MOL    H43 4435   4.023   7.109   6.962  0.9139 -1.1896 -2.8851
   37MOL    C44 4436   4.135   7.107   7.147  0.2210  0.7279  0.8606
   37MOL    F45 4437   4.207   7.020   7.221  0.1279 -0.3182  0.0804
   37MOL    F46 4438   4.216   7.210   7.124 -0.0034 -0.0491  0.5393
   37MOL    C47 4439   4.005   7.145   7.226 -0.3922 -0.1019  0.0461
   37MOL    H48 4440   3.941   7.058   7.244 -0.1635 -0.4691 -0.8695
   37MOL    H49 4441   3.940   7.209   7.167 -0.3768  0.8380  1.0392
   37MOL    C50 4442   4.026   7.231   7.349 -0.2378  0.1634 -0.3730
   37MOL    F51 4443   4.106   7.175   7.441  0.0043 -0.3793  0.2796
   37MOL    F52 4444   4.084   7.347   7.314  0.4782 -0.7463 -0.4105
   37MOL    C53 4445   3.892   7.280   7.410  0.2571  0.0771  0.3045
   37MOL    H54 4446   3.831   7.339   7.341  2.0481  0.1356 -1.2617
   37MOL    H55 4447   3.922   7.338   7.497  0.6628  0.0592  0.1751
   37MOL    C56 4448   3.804   7.162   7.463 -0.0505 -0.3333  0.2198
   37MOL    F57 4449   3.759   7.082   7.367  0.2076  0.0156 -0.6442
   37MOL    F58 4450   3.888   7.090   7.537  0.0761 -0.6964  0.0329
   37MOL    C59 4451   3.674   7.197   7.540  0.5653  0.5112  0.4593
   37MOL    H60 4452   3.714   7.254   7.624 -2.0881  1.4917  1.1222
   37MOL    H61 4453   3.633   7.110   7.593  2.1180  1.0656  2.6594
   37MOL    C62 4454   3.558   7.285   7.483  0.7610  0.1630  0.3021
   37MOL    F63 4455   3.612   7.405   7.476  0.3672 -0.1078  0.2309
   37MOL    F64 4456   3.524   7.226   7.367 -0.3442 -0.2117 -0.4841
   37MOL    C65 4457   3.426   7.290   7.568 -0.0222  0.3387 -0.0690
   37MOL    H66 4458   3.464   7.305   7.669  1.6221  1.4155 -0.8232
   37MOL    H67 4459   3.379   7.193   7.581  0.4216  0.1074 -0.1641
   37MOL    C68 4460   3.325   7.401   7.527  0.2646 -0.9349  0.9338
   37MOL    F69 4461   3.383   7.521   7.526  0.5092  0.1667 -0.4697
   37MOL    F70 4462   3.288   7.376   7.406 -0.1103  0.2755 -0.3197
   37MOL    C71 4463   3.202   7.425   7.617 -0.6374 -0.0596 -1.0294
   37MOL    H72 4464   3.141   7.509   7.583  1.5508  2.3086  0.7438
   37MOL    H73 4465   3.243   7.442   7.716 -0.2478 -1.2116 -0.9853
   37MOL    C74 4466   3.096   7.305   7.625  0.4293 -0.1997 -0.0702
   37MOL    F75 4467   3.048   7.279   7.500  0.2208 -0.3551 -0.0849
   37MOL    F76 4468   3.145   7.189   7.667 -0.7329 -0.1878  0.2426
   37MOL    C77 4469   2.992   7.327   7.728  0.0727 -0.1911 -0.3183
   37MOL    H78 4470   3.043   7.318   7.824 -1.5105  2.1452  0.7798
   37MOL    H79 4471   2.929   7.238   7.734 -0.7249  0.4434  0.7860
   37MOL    C80 4472   2.887   7.441   7.702  0.2457  0.0860  0.4269
   37MOL    F81 4473   2.936   7.563   7.710 -0.1702 -0.3255  0.1859
   37MOL    F82 4474   2.848   7.419   7.580  0.3267 -0.3430  0.3065
   37MOL    C83 4475   2.773   7.443   7.802  0.5326  0.8014 -0.0442
   37MOL    H84 4476   2.726   7.344   7.804 -0.3331  1.2139  0.2855
   37MOL    H85 4477   2.695   7.513   7.773 -0.1022 -0.2136 -0.8306
   37MOL    C86 4478   2.808   7.466   7.947  0.0932  0.5661 -0.8508
   37MOL    F87 4479   2.887   7.365   7.988  0.4506 -0.1306 -0.3075
   37MOL    F88 4480   2.876   7.580   7.959 -0.6602  0.0226  0.1912
   37MOL    C89 4481   2.687   7.459   8.038  0.1650  0.2239 -0.2551
   37MOL    H90 4482   2.666   7.354   8.058  0.6961  0.1152 -0.2706
   37MOL    H91 4483   2.612   7.513   7.980 -1.7792  0.4370  2.3698
   37MOL    C92 4484   2.705   7.544   8.171  0.5785 -0.3309 -0.0853
   37MOL    F93 4485   2.723   7.673   8.140  0.3962 -0.1156  0.1429
   37MOL    F94 4486   2.586   7.541   8.231  0.2628  0.1001  0.6083
   37MOL    C95 4487   2.820   7.506   8.268 -0.4433  0.0841 -0.5115
   37MOL    H96 4488   2.810   7.586   8.341  3.3346 -0.1626  0.3927
   37MOL    H97 4489   2.915   7.525   8.218  0.1950 -1.2094  0.1725
   37MOL    C98 4490   2.820   7.374   8.338  0.2362 -0.0015  0.3435
   37MOL    F99 4491   2.703   7.356   0.051 -0.7205  0.0084  0.0919
   37MOL   F100 4492   2.843   7.282   8.250 -0.6071 -0.6540 -0.0736
   37MOL   C101 4493   2.936   7.368   0.091 -0.1412  0.4769 -0.9831
   37MOL   H102 4494   2.947   7.459   0.151 -0.6277 -0.3765  0.4281
   37MOL   H103 4495   3.031   7.355   0.040  0.0858 -1.3552 -0.1312
   37MOL   C104 4496   2.923   7.255   0.202 -0.2409 -0.3151  0.7040
   37MOL   F105 4497   3.010   7.264   0.303 -0.5807 -0.1516  0.5485
   37MOL   F106 4498   2.807   7.273   0.257  0.5236 -0.4246 -0.2764
   37MOL   C107 4499   2.926   7.109   0.143  0.6682 -0.0945 -0.2750
   37MOL   H108 4500   2.849   7.121   0.067  0.4740  1.5248  0.1624
   37MOL   H109 4501   2.890   7.036   0.215  0.6164  0.6804  0.4948
   37MOL   C110 4502   3.058   7.064   0.089 -0.2001  0.7343 -0.8792
   37MOL   F111 4503   3.110   7.146   8.344 -0.7579 -0.1945  0.6887
   37MOL   F112 4504   3.159   7.045   0.178 -0.2172 -0.0389  0.2168
   37MOL   C113 4505   3.041   6.938   0.008 -0.3512  0.3967  0.2471
   37MOL   H114 4506   3.135   6.903   8.316 -0.4588  1.8898 -1.3502
   37MOL   H115 4507   2.992   6.968   8.265 -2.4819 -1.6553  0.6713
   37MOL   C116 4508   2.986   6.811   0.069  0.7526 -0.0242 -0.8676
   37MOL   F117 4509   2.861   6.833   0.113  0.1817 -0.2950  0.1641
   37MOL   F118 4510   2.984   6.713   8.327 -0.7039  0.4957 -0.1661
   37MOL   C119 4511   3.071   6.766   0.193 -0.0147 -0.5227  0.7487
   37MOL   H120 4512   3.179   6.765   0.173 -0.0286  2.7923  0.1577
   37MOL   H121 4513   3.044   6.668   0.230 -1.0319  0.5703  2.9713
   37MOL   H122 4514   3.067   6.835   0.277  1.3122  1.7437 -0.9557
   38MOL     C1 4515   3.759   2.292   4.994  0.0589 -0.4151 -0.0474
   38MOL     F2 4516   3.886   2.293   4.964  0.1823  0.0858 -0.4059
   38MOL     F3 4517   3.708   2.171   4.973 -0.6118 -0.1303 -0.2647
   38MOL     C4 4518   3.684   2.399   4.908  0.5614  0.0348 -0.7453
   38MOL     H5 4519   3.685   2.373   4.802 -1.6635 -0.7680 -0.5800
   38MOL     H6 4520   3.743   2.490   4.914 -0.8130  0.8939 -0.2350
   38MOL     H7 4521   3.753   2.315   5.100 -1.8047 -3.0752  0.4781
   38MOL     C8 4522   3.540   2.434   4.954  0.3612  0.0155  0.4580
   38MOL     F9 4523   3.556   2.498   5.063 -0.1802 -0.6889  0.4211
   38MOL    F10 4524   3.477   2.522   4.870  0.0543  0.4142 -0.0820
   38MOL    C11 4525   3.443   2.322   4.979  0.1800  0.0515 -0.2498
   38MOL    H12 4526   3.348   2.362   5.015  0.6425  1.4526 -0.5582
   38MOL    H13 4527   3.489   2.262   5.058 -1.4111 -0.8525  0.0120
   38MOL    C14 4528   3.414   2.223   4.859  0.7639  0.3768  0.1691
   38MOL    F15 4529   3.363   2.295   4.755  0.2337 -0.4682  0.0938
   38MOL    F16 4530   3.517   2.162   4.812  0.1034  0.5627  0.5023
   38MOL    C17 4531   3.303   2.116   4.888 -0.0193  0.0337  0.8527
   38MOL    H18 4532   3.319   2.046   4.807  2.5077 -0.4324  1.7012
   38MOL    H19 4533   3.204   2.161   4.886 -0.6150 -1.3160 -0.7671
   38MOL    C20 4534   3.317   2.034   5.018 -0.8616 -0.1875  0.9343
   38MOL    F21 4535   3.309   2.105   5.134 -0.2754 -0.0623  0.3038
   38MOL    F22 4536   3.217   1.953   5.017 -0.1404 -0.8027 -0.6309
   38MOL    C23 4537   3.442   1.942   5.036  0.0894  0.3948  0.5019
   38MOL    H24 4538   3.434   1.897   5.134 -0.0109  2.1052  1.3021
   38MOL    H25 4539   3.527   2.010   5.044  0.0696  0.8784 -2.6376
   38MOL    C26 4540   3.478   1.835   4.936 -0.6896  0.1761 -0.4915
   38MOL    F27 4541   3.374   1.756   4.927  0.2187 -0.2314 -0.2604
   38MOL    F28 4542   3.502   1.890   4.823  0.7557  0.0569  0.1485
   38MOL    C29 4543   3.599   1.747   4.979  0.0241  0.1005  0.5131
   38MOL    H30 4544   3.590   1.713   5.082  1.7196  0.0184  0.6413
   38MOL    H31 4545   3.686   1.811   4.989  1.4357 -1.6295 -0.4932
   38MOL    C32 4546   3.635   1.626   4.886 -0.3640  0.4918  0.2170
   38MOL    F33 4547   3.733   1.560   4.945  0.0018 -0.2316 -0.2642
   38MOL    F34 4548   3.530   1.540   4.892  0.2285  0.0934  0.9856
   38MOL    C35 4549   3.680   1.641   4.737  0.6594 -0.3749  0.0475
   38MOL    H36 4550   3.597   1.690   4.686  1.6078  0.9684 -0.2395
   38MOL    H37 4551   3.696   1.546   4.685 -2.7371 -1.8225  1.5101
   38MOL    C38 4552   3.813   1.720   4.700 -0.1032  0.2380  0.2852
   38MOL    F39 4553   3.798   1.737   4.570 -0.3070 -0.4274  0.2382
   38MOL    F40 4554   3.809   1.830   4.769 -0.4649  0.1563 -0.2036
   38MOL    C41 4555   3.944   1.636   4.721  0.3696  0.4810  0.2410
   38MOL    H42 4556   3.937   1.553   4.650 -1.2176 -1.3107  2.3987
   38MOL    H43 4557   3.960   1.602   4.824  2.2175  0.1168 -0.1550
   38MOL    C44 4558   4.080   1.690   4.684  0.0654  0.1564  0.9122
   38MOL    F45 4559   4.168   1.585   4.699 -0.1686 -0.2667  0.2422
   38MOL    F46 4560   4.083   1.734   4.555  0.1595  0.2125 -0.1329
   38MOL    C47 4561   4.130   1.797   4.778 -0.6008 -0.7869 -0.2085
   38MOL    H48 4562   4.118   1.755   4.877  1.8203  0.0206  0.4790
   38MOL    H49 4563   4.075   1.891   4.778  1.5312  0.4963  1.4017
   38MOL    C50 4564   4.280   1.851   4.756  0.5858 -0.6044 -0.4363
   38MOL    F51 4565   4.319   1.860   4.623  0.3548  0.1593 -0.3062
   38MOL    F52 4566   4.283   1.974   4.807 -0.3325  0.6325 -0.6611
   38MOL    C53 4567   4.375   1.757   4.833 -0.3471 -0.3168 -0.1248
   38MOL    H54 4568   4.365   1.659   4.787  0.3835 -0.6582  0.4479
   38MOL    H55 4569   4.341   1.745   4.936 -2.2588  0.6606 -0.6213
   38MOL    C56 4570   4.520   1.801   4.839  0.4808 -0.1494  1.2053
   38MOL    F57 4571   4.564   1.819   4.716  0.2527 -0.2002  0.1452
   38MOL    F58 4572   4.535   1.918   4.904  0.4302  0.3908  0.3534
   38MOL    C59 4573   4.601   1.697   4.911 -0.0795 -0.0332 -0.0120
   38MOL    H60 4574   4.705   1.714   4.885  0.2017 -0.7193  0.6564
   38MOL    H61 4575   4.576   1.601   4.866  0.8072  0.4348 -1.5399
   38MOL    C62 4576   4.597   1.685   5.068  0.5994  0.8600 -0.4808
   38MOL    F63 4577   4.685   1.770   5.117 -0.0158  0.4763  0.3455
   38MOL    F64 4578   4.475   1.704   5.114  0.4450 -0.1833  0.4290
   38MOL    C65 4579   4.633   1.546   5.116 -0.0497 -0.2159  0.8487
   38MOL    H66 4580   4.640   1.550   5.224  3.3373  0.2680  0.6693
   38MOL    H67 4581   4.726   1.523   5.063 -0.7520  1.6931 -1.3171
   38MOL    C68 4582   4.535   1.423   5.083  1.1457 -0.3256  0.0913
   38MOL    F69 4583   4.430   1.468   5.145  0.0915  0.1509 -0.6518
   38MOL    F70 4584   4.492   1.398   4.955 -0.4585 -0.8236  0.4225
   38MOL    C71 4585   4.573   1.294   5.152  0.0359  0.5011  0.0099
   38MOL    H72 4586   4.485   1.238   5.183 -0.0953  0.4467 -0.4558
   38MOL    H73 4587   4.625   1.310   5.247  1.3402 -0.6205 -0.4950
   38MOL    C74 4588   4.673   1.202   5.075  0.4898 -0.6603  0.1460
   38MOL    F75 4589   4.779   1.266   5.028  0.1336 -0.2495 -0.0998
   38MOL    F76 4590   4.719   1.123   5.165 -0.0715 -0.1285  0.2154
   38MOL    C77 4591   4.603   1.111   4.969  0.3965  0.5368  0.3871
   38MOL    H78 4592   4.596   1.169   4.877 -0.0441 -0.0176  0.0645
   38MOL    H79 4593   4.504   1.079   5.001  1.3476 -0.0359  2.8411
   38MOL    C80 4594   4.667   0.978   4.929  0.3964  0.2937  0.1783
   38MOL    F81 4595   4.659   0.895   5.029  0.0791  0.0593  0.2727
   38MOL    F82 4596   4.597   0.925   4.830 -0.4206  0.0480 -0.0187
   38MOL    C83 4597   4.815   0.995   4.882 -0.1887  0.3671  0.3672
   38MOL    H84 4598   4.874   1.018   4.971  0.3277 -3.4694  1.1094
   38MOL    H85 4599   4.829   1.079   4.814 -0.6322  0.0688 -0.0951
   38MOL    C86 4600   4.869   0.861   4.828  0.1474  0.6569 -0.1412
   38MOL    F87 4601   4.852   0.763   4.923 -0.0925 -0.1644 -0.0660
   38MOL    F88 4602   4.806   0.830   4.717  0.3002  0.4378  0.6068
   38MOL    C89 4603   5.023   0.867   4.799 -0.4147 -0.4709  0.0042
   38MOL    H90 4604   5.055   0.764   4.779 -0.2022 -0.5414  0.6975
   38MOL    H91 4605   5.079   0.897   4.888 -0.5315 -0.8025  0.1910
   38MOL    C92 4606   5.077   0.955   4.679 -0.9910  0.4747 -0.1045
   38MOL    F93 4607   5.035   1.080   4.689 -0.1673  0.1127 -0.2640
   38MOL    F94 4608   5.203   0.957   4.700 -0.0812  0.1209 -0.5186
   38MOL    C95 4609   5.047   0.893   4.544  0.3704 -0.3766  0.0903
   38MOL    H96 4610   4.941   0.873   4.534  0.1528  0.5438  0.4540
   38MOL    H97 4611   5.103   0.800   4.546  1.0717 -0.0211 -1.7144
   38MOL    C98 4612   5.096   0.977   4.423 -0.2943 -0.9033 -1.2058
   38MOL    F99 4613   5.225   1.010   4.441 -0.0210 -0.1754  0.3827
   38MOL   F100 4614   5.087   0.901   4.312  0.3696  0.2467  0.2744
   38MOL   C101 4615   5.013   1.104   4.390  0.1074  0.5463  0.9701
   38MOL   H102 4616   5.044   1.147   4.294 -1.9718  1.8951  0.8832
   38MOL   H103 4617   5.032   1.181   4.465 -2.7240  3.3887 -1.1046
   38MOL   C104 4618   4.859   1.082   4.383 -0.0706 -0.0328 -1.1285
   38MOL   F105 4619   4.836   0.989   4.299 -0.0953  0.3363  0.0365
   38MOL   F106 4620   4.828   1.044   4.505 -0.7509  0.4599 -0.0261
   38MOL   C107 4621   4.774   1.213   4.338  0.2776  0.5018  0.1040
   38MOL   H108 4622   4.668   1.188   4.332  0.6848 -1.7692  1.6136
   38MOL   H109 4623   4.802   1.227   4.234 -1.2483 -0.9010 -0.5156
   38MOL   C110 4624   4.796   1.337   4.429 -0.4085 -0.6487  0.0597
   38MOL   F111 4625   4.920   1.383   4.420  0.0150 -0.0595  0.0313
   38MOL   F112 4626   4.710   1.429   4.385 -0.0359 -0.5497 -0.4207
   38MOL   C113 4627   4.764   1.316   4.578 -0.1578  0.5107 -0.5582
   38MOL   H114 4628   4.828   1.243   4.628  0.9188  0.7490 -1.5643
   38MOL   H115 4629   4.663   1.275   4.580  0.0953 -0.0903  2.2806
   38MOL   C116 4630   4.761   1.444   4.659 -0.6991 -0.1008  0.1755
   38MOL   F117 4631   4.668   1.526   4.621 -0.6714  0.0376 -0.0406
   38MOL   F118 4632   4.725   1.402   4.779 -0.0465  0.1201 -0.6501
   38MOL   C119 4633   4.897   1.513   4.664 -0.2256  0.4727 -0.3739
   38MOL   H120 4634   4.894   1.596   4.735 -1.3186 -0.5474  0.7954
   38MOL   H121 4635   4.927   1.561   4.570 -0.5675 -0.1754 -0.8159
   38MOL   H122 4636   4.983   1.455   4.696  0.1286  0.0230 -2.0669
   39MOL     C1 4637   4.750   0.068   0.410  0.1485 -0.9540 -0.1680
   39MOL     F2 4638   4.704   0.112   0.297  0.6178 -0.2690  0.5895
   39MOL     F3 4639   4.839   8.316   0.391  0.2320 -0.0072 -0.0736
   39MOL     C4 4640   4.630   0.032   0.504 -0.6848 -0.0101 -0.1817
   39MOL     H5 4641   4.575   8.301   0.456  0.1111 -0.9699  0.4928
   39MOL     H6 4642   4.567   0.120   0.504  1.6101  1.6829  0.4506
   39MOL     H7 4643   4.806   0.150   0.456 -2.2648 -0.2755  1.6626
   39MOL     C8 4644   4.688   8.347   0.646  0.0210  0.2799  0.4013
   39MOL     F9 4645   4.776   8.249   0.624  0.2668 -0.0297 -0.2993
   39MOL    F10 4646   4.750   0.107   0.677  0.5982  0.7211 -0.2656
   39MOL    C11 4647   4.574   8.303   0.732  0.1911  0.2283  0.3405
   39MOL    H12 4648   4.543   8.202   0.703  0.1275 -0.1703  1.7354
   39MOL    H13 4649   4.493   0.025   0.721  0.6079  0.3659 -2.0216
   39MOL    C14 4650   4.606   8.294   0.879  0.1909  0.1567  0.3329
   39MOL    F15 4651   4.696   8.203   0.906 -0.2332  0.2502 -0.0055
   39MOL    F16 4652   4.657   0.062   0.923  0.3173 -0.3537  0.5843
   39MOL    C17 4653   4.485   8.272   0.981  0.2232 -0.2035 -0.1682
   39MOL    H18 4654   4.423   8.196   0.934  0.4290 -0.3994 -0.1229
   39MOL    H19 4655   4.433   0.018   0.974  0.7568 -0.0168 -1.7179
   39MOL    C20 4656   4.517   8.249   1.129 -0.3249 -0.4037 -0.5240
   39MOL    F21 4657   4.595   0.001   1.165 -0.1735  0.2736  0.4684
   39MOL    F22 4658   4.403   8.248   1.196 -0.4107  0.4638 -0.3106
   39MOL    C23 4659   4.591   8.116   1.160  0.1626  0.3279  0.5990
   39MOL    H24 4660   4.695   8.118   1.128  0.5179  0.0286  1.7047
   39MOL    H25 4661   4.548   8.027   1.115  0.2439 -1.0705  3.1739
   39MOL    C26 4662   4.603   8.095   1.314  0.1219  0.0600  0.5523
   39MOL    F27 4663   4.701   8.178   1.344 -0.1024 -0.3680 -0.4655
   39MOL    F28 4664   4.496   8.125   1.391  0.5320  0.6462  0.1441
   39MOL    C29 4665   4.644   7.951   1.368  0.0188 -0.5009 -0.3128
   39MOL    H30 4666   4.563   7.885   1.338 -0.5252  0.8981 -1.9965
   39MOL    H31 4667   4.642   7.954   1.477  0.9745 -0.8228 -0.2862
   39MOL    C32 4668   4.773   7.886   1.318 -0.0154 -0.1361 -0.8062
   39MOL    F33 4669   4.764   7.761   1.343 -0.1134  0.2002 -0.5009
   39MOL    F34 4670   4.782   7.898   1.188  0.1222  0.1786 -0.1447
   39MOL    C35 4671   4.905   7.938   1.377  0.1750 -0.0705 -0.3606
   39MOL    H36 4672   4.914   8.045   1.357 -1.8040  0.3705  0.9470
   39MOL    H37 4673   4.987   7.890   1.323 -1.7086 -1.9500 -1.6510
   39MOL    C38 4674   4.931   7.901   1.523  0.1028 -0.1739  0.0498
   39MOL    F39 4675   4.832   7.946   1.595 -0.2401  0.2810 -0.1953
   39MOL    F40 4676   4.935   7.763   1.523  0.4596  0.3389 -0.6513
   39MOL    C41 4677   5.059   7.957   1.574  0.4886  0.4392  0.8140
   39MOL    H42 4678   5.069   8.066   1.567  2.4996  0.4728  3.3337
   39MOL    H43 4679   5.143   7.922   1.513  0.1771  1.0737  0.0120
   39MOL    C44 4680   5.092   7.935   1.720  0.3692 -0.2965 -0.1675
   39MOL    F45 4681   5.070   7.805   1.744 -0.3562  0.1235 -0.3892
   39MOL    F46 4682   5.223   7.962   1.730 -0.0167 -0.1749 -0.0610
   39MOL    C47 4683   5.017   8.029   1.815  0.2139  0.2519 -0.3071
   39MOL    H48 4684   4.913   7.997   1.815  1.1988 -3.2538  0.2142
   39MOL    H49 4685   5.002   8.128   1.772 -2.7183 -0.9343 -2.1582
   39MOL    C50 4686   5.058   8.039   1.966  0.4966  0.7703  0.2641
   39MOL    F51 4687   5.072   7.923   2.020 -0.1069  0.0343 -0.0538
   39MOL    F52 4688   5.177   8.098   1.970  0.1863 -0.2708  0.0710
   39MOL    C53 4689   4.954   8.115   2.048  0.1682 -1.3053 -0.1972
   39MOL    H54 4690   4.937   8.205   1.990 -0.1504 -0.2853  1.4582
   39MOL    H55 4691   5.002   8.152   2.138  0.9306  1.2845 -1.6190
   39MOL    C56 4692   4.811   8.060   2.078 -0.0772  0.6143 -0.2863
   39MOL    F57 4693   4.752   8.029   1.964 -0.2820 -0.2907  0.0019
   39MOL    F58 4694   4.823   7.960   2.164  0.0429 -0.1669 -0.5418
   39MOL    C59 4695   4.712   8.166   2.129  0.4001  0.3176 -0.0965
   39MOL    H60 4696   4.618   8.111   2.134  0.4744  0.1377 -0.6381
   39MOL    H61 4697   4.703   8.248   2.058  0.5034 -0.1128 -0.6107
   39MOL    C62 4698   4.739   8.211   2.274  0.1140  0.1277  0.5148
   39MOL    F63 4699   4.731   8.104   2.346  0.0765  0.2821 -0.3116
   39MOL    F64 4700   4.864   8.258   2.297 -0.8106 -0.5150  0.6582
   39MOL    C65 4701   4.629   8.302   2.331  0.8198 -0.1709  0.3053
   39MOL    H66 4702   4.649   8.300   2.438 -1.7433 -0.1521  0.8063
   39MOL    H67 4703   4.528   8.263   2.318  1.1655 -0.8374 -0.4290
   39MOL    C68 4704   4.628   0.103   2.296 -0.0750 -0.0724 -0.1954
   39MOL    F69 4705   4.646   0.101   2.171  0.1725 -0.0633  0.1057
   39MOL    F70 4706   4.505   0.149   2.324 -0.4206  0.5193 -0.1144
   39MOL    C71 4707   4.737   0.181   2.378 -0.2138 -0.5982  0.3466
   39MOL    H72 4708   4.838   0.152   2.348  0.7983  0.4253  2.6435
   39MOL    H73 4709   4.717   0.145   2.479 -0.4844 -1.0857  0.1199
   39MOL    C74 4710   4.751   0.330   2.348  0.0397  0.3734  0.1044
   39MOL    F75 4711   4.626   0.378   2.378 -0.6666  0.6102 -0.1464
   39MOL    F76 4712   4.834   0.383   2.433  0.2235 -0.0333  0.1726
   39MOL    C77 4713   4.788   0.347   2.196  0.0029  0.5796  1.0484
   39MOL    H78 4714   4.704   0.337   2.128 -0.3949  1.9010  1.3264
   39MOL    H79 4715   4.857   0.267   2.171  0.6512  1.1322  1.0508
   39MOL    C80 4716   4.859   0.481   2.164  1.1058  0.9154  0.3433
   39MOL    F81 4717   4.963   0.483   2.243 -0.3657 -0.5036  0.2668
   39MOL    F82 4718   4.896   0.495   2.037 -0.1730 -0.3437 -0.8355
   39MOL    C83 4719   4.781   0.607   2.200 -0.3024 -0.5045  1.2640
   39MOL    H84 4720   4.854   0.687   2.214 -1.0442  0.6919 -1.4015
   39MOL    H85 4721   4.742   0.591   2.301  0.7320 -1.1137  1.5728
   39MOL    C86 4722   4.666   0.643   2.104  0.6943 -0.2142  0.1516
   39MOL    F87 4723   4.596   0.537   2.103  0.3328 -0.1842 -0.2072
   39MOL    F88 4724   4.602   0.737   2.166 -0.2322  0.4676  0.1873
   39MOL    C89 4725   4.703   0.684   1.958 -0.1941  0.4711  0.6081
   39MOL    H90 4726   4.754   0.609   1.896  0.4375  0.8250  0.6913
   39MOL    H91 4727   4.766   0.773   1.955  0.7727 -0.1982  0.4721
   39MOL    C92 4728   4.583   0.720   1.872  0.5199 -0.8091  0.0313
   39MOL    F93 4729   4.495   0.617   1.891 -0.1737 -0.0151  0.2867
   39MOL    F94 4730   4.539   0.832   1.920  0.3321 -0.1177  0.3954
   39MOL    C95 4731   4.604   0.718   1.717  0.3814 -0.5399  0.3489
   39MOL    H96 4732   4.505   0.748   1.684  1.5088  3.1646  0.1113
   39MOL    H97 4733   4.624   0.621   1.672  0.7055 -0.0206 -0.6264
   39MOL    C98 4734   4.710   0.819   1.675  0.0506  0.1310 -0.5335
   39MOL    F99 4735   4.694   0.929   1.746 -0.5157 -0.3904  0.1742
   39MOL   F100 4736   4.825   0.763   1.706  0.0265  0.0603 -0.1559
   39MOL   C101 4737   4.694   0.849   1.523  0.3243 -1.0704  0.3010
   39MOL   H102 4738   4.595   0.887   1.497  0.3643 -1.1494  0.0259
   39MOL   H103 4739   4.692   0.758   1.463 -1.3124 -0.2224 -0.9415
   39MOL   C104 4740   4.805   0.934   1.453  0.5504  0.1500 -0.0109
   39MOL   F105 4741   4.910   0.864   1.459  0.3060 -0.0297  0.4205
   39MOL   F106 4742   4.771   0.950   1.324  0.4935  0.3625  0.1226
   39MOL   C107 4743   4.822   1.074   1.511 -0.2316  0.3401 -0.0904
   39MOL   H108 4744   4.896   1.129   1.452  0.2751  2.3639  2.3069
   39MOL   H109 4745   4.874   1.077   1.607  0.9106  0.0133 -0.6821
   39MOL   C110 4746   4.700   1.164   1.506 -0.0043  0.0026 -0.2102
   39MOL   F111 4747   4.651   1.188   1.386 -0.4051  0.4639  0.1887
   39MOL   F112 4748   4.603   1.118   1.583 -0.9388 -0.0034 -0.2022
   39MOL   C113 4749   4.734   1.307   1.562  0.1791 -0.0980  0.8072
   39MOL   H114 4750   4.643   1.363   1.541  0.1043  0.0282  1.4567
   39MOL   H115 4751   4.812   1.349   1.498 -0.9606  2.5191  1.0714
   39MOL   C116 4752   4.773   1.327   1.714  0.2611 -0.4459  0.1437
   39MOL   F117 4753   4.680   1.284   1.808  0.6301 -0.2401 -0.1117
   39MOL   F118 4754   4.881   1.265   1.746  0.1811 -0.0015  0.2757
   39MOL   C119 4755   4.798   1.475   1.735  0.6088  0.3348 -0.2806
   39MOL   H120 4756   4.870   1.519   1.666 -0.4833  0.8806 -1.0934
   39MOL   H121 4757   4.823   1.496   1.839  0.1129 -0.4901  0.0119
   39MOL   H122 4758   4.705   1.529   1.714  1.5741  1.5265 -1.6149
   40MOL     C1 4759   1.470   6.503   6.260  0.1484 -0.0653 -0.1637
   40MOL     F2 4760   1.537   6.620   6.254  0.1692  0.2728 -0.2290
   40MOL     F3 4761   1.553   6.411   6.212  0.1275 -0.1569 -0.9039
   40MOL     C4 4762   1.346   6.506   6.177  0.3908 -0.1341 -0.1569
   40MOL     H5 4763   1.353   6.557   6.082 -0.8087  2.5903  1.1744
   40MOL     H6 4764   1.280   6.571   6.235  1.3248 -0.0868  0.8717
   40MOL     H7 4765   1.449   6.470   6.361 -2.1130  0.8516 -0.3202
   40MOL     C8 4766   1.266   6.374   6.171  0.5167  0.3028 -0.0086
   40MOL     F9 4767   1.252   6.313   6.294  0.1403 -0.4038 -0.1886
   40MOL    F10 4768   1.141   6.408   6.124  0.0091 -0.2137  0.3484
   40MOL    C11 4769   1.317   6.269   6.064 -0.4357 -0.1473  0.9075
   40MOL    H12 4770   1.425   6.256   6.071 -0.1191  2.2140  0.6386
   40MOL    H13 4771   1.308   6.316   5.966 -3.6684  1.5812  1.9801
   40MOL    C14 4772   1.236   6.139   6.062 -0.6596 -0.3898  0.0877
   40MOL    F15 4773   1.274   6.071   6.168 -0.1050 -0.3937 -0.0697
   40MOL    F16 4774   1.102   6.160   6.060  0.8674 -0.1923 -0.0855
   40MOL    C17 4775   1.263   6.046   5.940 -0.2783  0.6775  0.4616
   40MOL    H18 4776   1.368   6.053   5.910 -1.0161  0.2654 -2.3539
   40MOL    H19 4777   1.201   6.079   5.857 -0.5673  0.9526  0.7884
   40MOL    C20 4778   1.223   5.893   5.964 -0.4005 -0.2952  0.1710
   40MOL    F21 4779   1.304   5.839   6.054  0.1125 -0.5792  0.4145
   40MOL    F22 4780   1.098   5.889   6.012  0.4493 -0.2822 -0.4062
   40MOL    C23 4781   1.229   5.810   5.827 -0.3464  0.2426 -0.3878
   40MOL    H24 4782   1.166   5.852   5.749  1.4080  0.1765 -1.8625
   40MOL    H25 4783   1.188   5.711   5.848 -2.2055  0.7835 -1.3416
   40MOL    C26 4784   1.374   5.787   5.771 -0.0798  0.5104  0.2906
   40MOL    F27 4785   1.415   5.903   5.705  0.2945  0.0723 -0.0267
   40MOL    F28 4786   1.455   5.758   5.873  0.1561 -0.6485 -0.1087
   40MOL    C29 4787   1.383   5.679   5.660 -0.3450  0.0077  0.1053
   40MOL    H30 4788   1.345   5.712   5.563  2.8808 -1.0026 -1.5748
   40MOL    H31 4789   1.332   5.592   5.700 -2.3485  0.9071 -0.4415
   40MOL    C32 4790   1.526   5.624   5.637  0.5612  0.1215  0.1283
   40MOL    F33 4791   1.603   5.725   5.588  0.0129 -0.0462 -0.0863
   40MOL    F34 4792   1.578   5.575   5.750 -0.4894 -0.4480 -0.5225
   40MOL    C35 4793   1.539   5.506   5.535  0.3139  0.0292  0.1346
   40MOL    H36 4794   1.504   5.543   5.438 -0.6156 -1.3450 -0.0735
   40MOL    H37 4795   1.465   5.428   5.557  1.5579 -0.6835  1.9099
   40MOL    C38 4796   1.675   5.441   5.514  0.0604 -0.8277 -0.2476
   40MOL    F39 4797   1.717   5.377   5.624  0.3707  0.3629  0.1975
   40MOL    F40 4798   1.649   5.355   5.417 -0.2195  0.0265 -0.2766
   40MOL    C41 4799   1.790   5.530   5.461 -0.1278  0.0985  0.4877
   40MOL    H42 4800   1.797   5.604   5.541  0.0483 -1.3675  1.8488
   40MOL    H43 4801   1.759   5.584   5.371  1.0226 -0.8174 -0.4784
   40MOL    C44 4802   1.922   5.457   5.417  0.1884  0.0866 -0.0578
   40MOL    F45 4803   1.894   5.339   5.368 -0.0538  0.2198  0.0640
   40MOL    F46 4804   1.979   5.526   5.323  0.4186  0.0922 -0.0558
   40MOL    C47 4805   2.018   5.437   5.537  0.4229  0.0500 -0.0256
   40MOL    H48 4806   1.984   5.356   5.602  1.1913 -0.6671 -0.5014
   40MOL    H49 4807   2.032   5.531   5.591 -1.2071  1.7939 -2.5786
   40MOL    C50 4808   2.159   5.389   5.487 -0.4138  0.2491 -0.5767
   40MOL    F51 4809   2.226   5.495   5.428  0.3132 -0.5282 -0.0421
   40MOL    F52 4810   2.215   5.356   5.605  0.9156  0.4000 -0.3702
   40MOL    C53 4811   2.152   5.268   5.392  0.7807  0.1742 -0.0949
   40MOL    H54 4812   2.099   5.295   5.301 -0.1953 -0.9034  0.1474
   40MOL    H55 4813   2.085   5.193   5.433  0.7166 -0.8509 -2.0280
   40MOL    C56 4814   2.285   5.205   5.346 -0.3962  0.6490 -0.2307
   40MOL    F57 4815   2.359   5.155   5.448  0.1332  0.0990  0.5636
   40MOL    F58 4816   2.238   5.107   5.271 -0.1507  0.0906  0.2342
   40MOL    C59 4817   2.372   5.293   5.256  0.3639  0.1750 -0.1247
   40MOL    H60 4818   2.376   5.386   5.313 -2.7689  0.3724 -0.1718
   40MOL    H61 4819   2.320   5.317   5.163 -0.1756  1.1798  0.4235
   40MOL    C62 4820   2.514   5.256   5.217  0.0680  0.7670 -0.9464
   40MOL    F63 4821   2.552   5.360   5.142 -0.0454 -0.0434  0.1588
   40MOL    F64 4822   2.584   5.260   5.333  0.0584 -0.5548  0.3633
   40MOL    C65 4823   2.547   5.126   5.142  0.5334  0.5928 -0.7931
   40MOL    H66 4824   2.522   5.039   5.204 -0.8651  0.4119 -1.5817
   40MOL    H67 4825   2.655   5.122   5.129  0.5851 -3.6911  0.1063
   40MOL    C68 4826   2.492   5.103   4.999  0.1410 -0.7123 -0.5257
   40MOL    F69 4827   2.366   5.121   4.985 -0.5509 -0.4349 -0.0222
   40MOL    F70 4828   2.550   5.200   4.927  0.3418  0.4057 -0.0221
   40MOL    C71 4829   2.526   4.960   4.945  0.6196  0.3506  0.0694
   40MOL    H72 4830   2.474   4.929   4.854 -2.3836  1.7326  1.2248
   40MOL    H73 4831   2.472   4.901   5.020 -2.2892  3.2716  0.3826
   40MOL    C74 4832   2.672   4.907   4.944  1.0641  0.3962 -0.2350
   40MOL    F75 4833   2.735   4.998   4.870 -0.0835  0.3285  0.0517
   40MOL    F76 4834   2.725   4.906   5.061  0.2876  0.3783  0.3424
   40MOL    C77 4835   2.687   4.767   4.885  0.4277 -0.3793  0.0146
   40MOL    H78 4836   2.665   4.769   4.778 -3.0086 -1.1404  0.6220
   40MOL    H79 4837   2.606   4.711   4.934 -0.7083  2.2435  1.2169
   40MOL    C80 4838   2.813   4.685   4.919  0.4033  0.2263  0.4836
   40MOL    F81 4839   2.927   4.739   4.885  0.4882  0.1029 -0.2911
   40MOL    F82 4840   2.819   4.659   5.053 -0.2362 -0.5358 -0.3219
   40MOL    C83 4841   2.803   4.544   4.848  0.6725  0.1544  1.0140
   40MOL    H84 4842   2.703   4.501   4.859  0.9696 -0.0291  3.0564
   40MOL    H85 4843   2.873   4.475   4.894 -0.4545 -2.0095 -0.3929
   40MOL    C86 4844   2.819   4.544   4.693 -0.5547 -0.9833 -0.5115
   40MOL    F87 4845   2.751   4.641   4.639 -0.2493 -0.4713  0.0202
   40MOL    F88 4846   2.949   4.559   4.662 -0.4069  0.0486  0.0008
   40MOL    C89 4847   2.791   4.403   4.634 -0.2314  0.3351 -0.2516
   40MOL    H90 4848   2.689   4.375   4.660  0.4856 -0.8942  1.2953
   40MOL    H91 4849   2.843   4.323   4.686 -0.1762 -0.3778 -1.3982
   40MOL    C92 4850   2.811   4.380   4.484  0.2740 -0.3121  0.1301
   40MOL    F93 4851   2.938   4.388   4.451  0.2690  0.3163  0.1285
   40MOL    F94 4852   2.775   4.254   4.460 -0.0971 -0.2498 -0.8408
   40MOL    C95 4853   2.729   4.463   4.384  1.0131  0.1577  0.4324
   40MOL    H96 4854   2.757   4.424   4.287  0.9656  1.6540 -0.1956
   40MOL    H97 4855   2.778   4.560   4.395 -0.8093  1.3779 -1.8502
   40MOL    C98 4856   2.572   4.459   4.395  0.2022  1.1897 -0.4423
   40MOL    F99 4857   2.520   4.336   4.409 -0.0125 -0.2742  0.6147
   40MOL   F100 4858   2.547   4.531   4.510 -0.1141  0.2286  0.0702
   40MOL   C101 4859   2.510   4.514   4.264  0.1081 -0.5527  0.0140
   40MOL   H102 4860   2.402   4.512   4.258 -0.0612  3.0133  1.1356
   40MOL   H103 4861   2.548   4.446   4.188  1.2739 -1.4501  1.3625
   40MOL   C104 4862   2.543   4.657   4.208  0.6608  0.5520  0.0457
   40MOL   F105 4863   2.668   4.654   4.179 -0.3952  0.3560  0.3786
   40MOL   F106 4864   2.476   4.683   4.089 -0.4550 -0.0090 -0.3637
   40MOL   C107 4865   2.512   4.767   4.305  0.0256 -0.1296 -1.2548
   40MOL   H108 4866   2.574   4.756   4.394  1.9436  0.4903 -2.4842
   40MOL   H109 4867   2.409   4.749   4.336  0.3597  2.2211  1.3895
   40MOL   C110 4868   2.515   4.917   4.265 -0.2366  0.1315 -0.2267
   40MOL   F111 4869   2.637   4.941   4.219  0.4720 -0.1502  0.0934
   40MOL   F112 4870   2.425   4.932   4.169 -0.1404  0.1072  0.1029
   40MOL   C113 4871   2.473   5.012   4.378 -0.1304  1.2537  0.6259
   40MOL   H114 4872   2.366   5.020   4.392 -0.2725 -0.5698  0.6247
   40MOL   H115 4873   2.505   5.109   4.338  1.1343  0.7744  0.4576
   40MOL   C116 4874   2.544   5.001   4.515  0.5490  0.3305 -0.6637
   40MOL   F117 4875   2.498   5.100   4.592  0.4093  0.2216  0.0470
   40MOL   F118 4876   2.512   4.886   4.566  0.3267 -0.0611  0.1990
   40MOL   C119 4877   2.692   5.002   4.517  0.7483 -0.1285  0.6890
   40MOL   H120 4878   2.718   5.096   4.467 -0.8847  0.4709  0.9381
   40MOL   H121 4879   2.734   4.913   4.471  0.5308  0.9854 -1.7755
   40MOL   H122 4880   2.723   5.009   4.621  2.1136  2.3416  0.1668
   41MOL     C1 4881   6.771   2.575   6.616 -0.5849  0.1965  0.0349
   41MOL     F2 4882   6.834   2.677   6.684 -0.3175 -0.0721 -0.2713
   41MOL     F3 4883   6.695   2.512   6.710 -0.1188  0.4276  0.0899
   41MOL     C4 4884   6.869   2.470   6.565  1.0494  0.6953  0.2400
   41MOL     H5 4885   6.820   2.378   6.531  1.2543  1.4692 -2.2000
   41MOL     H6 4886   6.944   2.448   6.640  0.5489  0.3101  0.6361
   41MOL     H7 4887   6.698   2.613   6.544  0.0314  3.6494  1.1386
   41MOL     C8 4888   6.949   2.511   6.440  0.4555 -0.6545  0.3002
   41MOL     F9 4889   6.854   2.556   6.357 -0.6356  0.1188  0.2836
   41MOL    F10 4890   7.028   2.611   6.467 -0.0693  0.4288 -0.0491
   41MOL    C11 4891   7.030   2.403   6.363  0.2088 -0.0327 -0.0799
   41MOL    H12 4892   7.071   2.451   6.274  0.7839  0.6047  0.5247
   41MOL    H13 4893   6.964   2.322   6.332  0.1556  0.3398 -0.9415
   41MOL    C14 4894   7.141   2.329   6.442 -0.2461 -0.3012 -0.1347
   41MOL    F15 4895   7.222   2.421   6.491  0.9863 -0.0233  0.0433
   41MOL    F16 4896   7.079   2.266   6.540  0.4070 -0.0773 -0.5421
   41MOL    C17 4897   7.208   2.214   6.360  0.3358 -0.2253 -0.0272
   41MOL    H18 4898   7.236   2.263   6.267 -3.5180  0.9366 -0.6836
   41MOL    H19 4899   7.120   2.156   6.331 -1.3362  1.3767  1.6928
   41MOL    C20 4900   7.321   2.140   6.444  0.8038  0.0672 -0.2487
   41MOL    F21 4901   7.412   2.230   6.486 -0.2480  0.4086  0.2263
   41MOL    F22 4902   7.269   2.080   6.553 -0.1299  0.4845 -0.0162
   41MOL    C23 4903   7.397   2.031   6.374 -0.1322 -0.1747  0.7258
   41MOL    H24 4904   7.469   2.074   6.304 -1.6905 -0.8744 -1.3761
   41MOL    H25 4905   7.328   1.978   6.308  1.6226 -2.3040  0.5441
   41MOL    C26 4906   7.483   1.940   6.462 -0.9028  0.4761 -0.1280
   41MOL    F27 4907   7.405   1.875   6.545 -0.1532 -0.3508  0.7978
   41MOL    F28 4908   7.524   1.841   6.379  0.2804 -0.0294 -0.6223
   41MOL    C29 4909   7.596   2.003   6.546 -0.1614  0.3166 -0.0020
   41MOL    H30 4910   7.623   1.938   6.630  1.4556  2.1657  0.9475
   41MOL    H31 4911   7.567   2.098   6.592 -0.3673  0.6847 -0.8904
   41MOL    C32 4912   7.727   2.040   6.468  0.2697  0.1987 -0.4065
   41MOL    F33 4913   7.779   1.935   6.409 -0.4631 -0.5487 -0.5369
   41MOL    F34 4914   7.697   2.116   6.363 -0.1587  0.3640 -0.7269
   41MOL    C35 4915   7.841   2.105   6.558 -0.5214 -0.2156  0.2114
   41MOL    H36 4916   7.808   2.201   6.597  2.3180  1.0155 -0.2959
   41MOL    H37 4917   7.919   2.124   6.485 -0.7896  0.9967  0.2363
   41MOL    C38 4918   7.918   2.034   6.676 -0.2191 -0.2557 -0.0637
   41MOL    F39 4919   8.010   2.118   6.710  0.0191  0.1767 -0.2157
   41MOL    F40 4920   7.823   2.016   6.771  0.0981  0.2858 -0.2514
   41MOL    C41 4921   7.982   1.899   6.630 -0.2945 -0.2643 -0.3109
   41MOL    H42 4922   8.031   1.915   6.534 -0.5879 -1.9689 -0.7659
   41MOL    H43 4923   7.899   1.830   6.613 -0.0684 -0.8671  0.9386
   41MOL    C44 4924   8.090   1.854   6.730  0.5857 -0.2627 -0.4156
   41MOL    F45 4925   8.191   1.933   6.735  0.0011 -0.5475 -0.1254
   41MOL    F46 4926   8.026   1.856   6.852 -0.1523  0.0936  0.2634
   41MOL    C47 4927   8.127   1.711   6.701 -0.7284 -0.6443 -0.6655
   41MOL    H48 4928   8.157   1.706   6.597 -0.2556  2.1123 -0.7023
   41MOL    H49 4929   8.043   1.644   6.681 -2.5493  0.7838  1.8451
   41MOL    C50 4930   8.234   1.646   6.789  0.3721  0.1209 -0.5606
   41MOL    F51 4931   8.276   1.534   6.726 -0.7035 -0.0058 -0.5763
   41MOL    F52 4932   8.343   1.732   6.785  0.7276  0.5618 -0.3053
   41MOL    C53 4933   8.179   1.604   6.927 -0.2562 -0.1054 -0.0096
   41MOL    H54 4934   8.103   1.529   6.903 -1.2442  0.6813  0.6419
   41MOL    H55 4935   8.126   1.694   6.959 -0.0213  0.2333 -0.5579
   41MOL    C56 4936   8.286   1.552   7.023  0.7231 -0.5123  0.0092
   41MOL    F57 4937   0.003   1.452   6.963  0.7724  0.4836  0.1933
   41MOL    F58 4938   0.019   1.650   7.040  0.0205 -0.3433  0.4205
   41MOL    C59 4939   8.226   1.500   7.159  0.1933 -0.0416 -0.2643
   41MOL    H60 4940   8.139   1.439   7.134 -0.5971  0.2936  1.5936
   41MOL    H61 4941   8.175   1.583   7.208 -0.1409 -0.6802  0.4884
   41MOL    C62 4942   8.315   1.418   7.252 -0.5470 -0.1736  0.5065
   41MOL    F63 4943   0.005   1.305   7.190 -0.1809 -0.1559 -0.0270
   41MOL    F64 4944   0.075   1.493   7.285  0.4842 -0.2491 -0.0292
   41MOL    C65 4945   8.245   1.365   7.377 -0.0539  0.9119 -0.1587
   41MOL    H66 4946   8.309   1.321   7.453 -1.0048  3.1707  2.0396
   41MOL    H67 4947   8.177   1.287   7.344  0.9919 -0.8453  1.7471
   41MOL    C68 4948   8.169   1.464   7.465  0.3978 -0.3004  0.4607
   41MOL    F69 4949   8.266   1.549   7.490  0.0169  0.1131 -0.4024
   41MOL    F70 4950   8.064   1.521   7.408  0.0066 -0.0549  0.1917
   41MOL    C71 4951   8.119   1.410   7.600 -0.0008 -1.3558 -0.1430
   41MOL    H72 4952   8.102   1.498   7.663 -0.9285 -0.7630 -1.1984
   41MOL    H73 4953   8.200   1.367   7.659 -1.3471  0.3839  3.1105
   41MOL    C74 4954   8.000   1.312   7.592 -0.0417 -0.2890  0.0839
   41MOL    F75 4955   7.903   1.364   7.512 -0.3121  0.0315  0.0811
   41MOL    F76 4956   8.044   1.197   7.548 -0.1879  0.6277 -0.2419
   41MOL    C77 4957   7.926   1.294   7.730  0.6660 -0.2858  0.3019
   41MOL    H78 4958   7.942   1.380   7.796  0.0043  0.4636 -0.4978
   41MOL    H79 4959   7.975   1.213   7.783 -1.0750 -0.7214  1.2858
   41MOL    C80 4960   7.787   1.248   7.731 -0.3191 -0.0387  0.1020
   41MOL    F81 4961   7.711   1.354   7.689 -0.3143 -0.0319 -0.0449
   41MOL    F82 4962   7.766   1.140   7.649 -0.0060 -0.0531  0.2394
   41MOL    C83 4963   7.735   1.204   7.871 -0.0998  0.0941 -0.8918
   41MOL    H84 4964   7.783   1.277   7.937  1.9454 -2.1646  0.2202
   41MOL    H85 4965   7.777   1.110   7.908 -0.1814 -0.3680 -1.9588
   41MOL    C86 4966   7.580   1.198   7.883 -0.4973  0.1116 -0.4273
   41MOL    F87 4967   7.527   1.318   7.867 -0.7023  0.4764  0.4811
   41MOL    F88 4968   7.539   1.109   7.793 -0.1593  0.4309  0.0529
   41MOL    C89 4969   7.541   1.157   8.029 -0.1820  0.1787  0.5284
   41MOL    H90 4970   7.570   1.232   8.104  0.8552 -0.3460  0.6658
   41MOL    H91 4971   7.587   1.061   8.052 -0.3482 -0.1096 -0.3411
   41MOL    C92 4972   7.399   1.121   8.060  0.4342 -0.4043 -0.0377
   41MOL    F93 4973   7.358   1.023   7.985  0.0820  0.2697  0.1529
   41MOL    F94 4974   7.395   1.071   8.187 -0.3261  0.1450 -0.2850
   41MOL    C95 4975   7.291   1.229   8.056  0.4304 -0.0036 -0.1719
   41MOL    H96 4976   7.202   1.172   8.085  1.2795 -0.7229  1.0579
   41MOL    H97 4977   7.273   1.268   7.956  0.5099 -0.6721 -0.4513
   41MOL    C98 4978   7.296   1.353   8.155  0.7423 -0.3584  0.6786
   41MOL    F99 4979   7.399   1.422   8.111 -0.1106  0.7189 -0.1871
   41MOL   F100 4980   7.183   1.422   8.125 -0.4655  0.2810  0.1654
   41MOL   C101 4981   7.293   1.324   8.307  0.1454  0.6030 -0.5199
   41MOL   H102 4982   7.376   1.264   8.344 -0.2789  1.5547  2.1335
   41MOL   H103 4983   7.211   1.254   8.322  0.8902 -0.2143 -0.1943
   41MOL   C104 4984   7.271   1.445   0.053  0.4485  0.2491 -0.0205
   41MOL   F105 4985   7.156   1.508   0.025 -0.0637 -0.5396 -0.3347
   41MOL   F106 4986   7.259   1.390   0.177 -0.2638 -0.1610 -0.0266
   41MOL   C107 4987   7.389   1.552   0.067  0.0766 -0.2333  0.5121
   41MOL   H108 4988   7.357   1.609   0.155  1.1392 -1.1179  1.4801
   41MOL   H109 4989   7.384   1.619   8.331  1.2277 -0.2363  0.4430
   41MOL   C110 4990   7.527   1.489   0.088  0.2181  0.3492 -0.6158
   41MOL   F111 4991   7.531   1.384   0.172 -0.3067 -0.1088  0.6372
   41MOL   F112 4992   7.576   1.451   8.319 -0.4996 -0.1597 -0.5144
   41MOL   C113 4993   7.623   1.591   0.153 -0.3530  0.4505  0.1549
   41MOL   H114 4994   7.582   1.594   0.254  1.7329 -1.3648  1.1002
   41MOL   H115 4995   7.610   1.695   0.124 -3.1912  0.5600  1.6407
   41MOL   C116 4996   7.776   1.556   0.136  1.4412  0.1400 -0.0520
   41MOL   F117 4997   7.809   1.436   0.186  0.3630  0.2274 -0.0557
   41MOL   F118 4998   7.801   1.566   0.005 -0.1206  0.1908  0.3209
   41MOL   C119 4999   7.860   1.668   0.200 -0.8593 -0.2993  0.2112
   41MOL   H120 5000   7.817   1.764   0.170 -0.3620 -1.5004 -4.7465
   41MOL   H121 5001   7.962   1.646   0.168 -1.0464 -0.9518  0.0594
   41MOL   H122 5002   7.863   1.662   0.309 -0.1658  1.1459  0.2791
   42MOL     C1 5003   0.517   1.329   7.144  0.4151  0.1589  0.2787
   42MOL     F2 5004   0.504   1.437   7.207  0.9838  0.2519  0.0677
   42MOL     F3 5005   0.575   1.342   7.027 -0.1152 -0.2400 -0.6983
   42MOL     C4 5006   0.371   1.261   7.140  0.0806 -0.0484 -0.3332
   42MOL     H5 5007   0.312   1.334   7.086 -0.9207 -0.0165  0.7830
   42MOL     H6 5008   0.331   1.255   7.241 -1.3703  0.8187 -0.8506
   42MOL     H7 5009   0.587   1.265   7.197  1.6395 -0.1389 -1.6380
   42MOL     C8 5010   0.365   1.127   7.066 -1.0905  0.6799  0.3817
   42MOL     F9 5011   0.394   1.144   6.933 -0.3129 -0.5151 -0.6315
   42MOL    F10 5012   0.450   1.041   7.125 -0.1681  0.3714 -0.3018
   42MOL    C11 5013   0.222   1.059   7.069 -0.8332  0.2297  0.2986
   42MOL    H12 5014   0.222   0.975   6.998  0.3328  0.9664 -0.5982
   42MOL    H13 5015   0.159   1.140   7.034  1.6442  1.9210 -0.3896
   42MOL    C14 5016   0.165   1.007   7.206 -0.0750  0.3539  0.0143
   42MOL    F15 5017   0.226   0.895   7.240 -0.7482 -0.2921 -0.6180
   42MOL    F16 5018   0.180   1.100   7.307  0.2402  0.7283  0.4164
   42MOL    C17 5019   0.020   0.959   7.201  0.7327  0.1090  0.2033
   42MOL    H18 5020   0.014   0.883   7.123  1.2293 -0.8178  1.0672
   42MOL    H19 5021   8.296   1.029   7.161  1.0006  2.8349  4.2233
   42MOL    C20 5022   8.321   0.906   7.337 -1.6137 -0.1533  0.6529
   42MOL    F21 5023   0.043   0.796   7.383  0.1385 -0.4910  0.3475
   42MOL    F22 5024   8.330   0.993   7.437 -0.4891  0.8479  0.4035
   42MOL    C23 5025   8.171   0.872   7.349 -0.2050  0.2859  0.4107
   42MOL    H24 5026   8.121   0.968   7.334 -0.0557  0.3242  0.1553
   42MOL    H25 5027   8.151   0.832   7.448  1.5200 -0.6615  0.3857
   42MOL    C26 5028   8.101   0.782   7.242 -0.3328  0.3065 -0.2650
   42MOL    F27 5029   8.104   0.833   7.125 -0.3977  0.0077  0.7111
   42MOL    F28 5030   8.179   0.673   7.238  0.4047  0.1660  0.4759
   42MOL    C29 5031   7.956   0.733   7.283 -0.2667  0.1830  0.1866
   42MOL    H30 5032   7.889   0.810   7.244 -1.8447 -1.2757 -0.0472
   42MOL    H31 5033   7.952   0.731   7.392  1.9587 -0.5223  0.2653
   42MOL    C32 5034   7.911   0.594   7.230  0.3867 -0.1135  0.0322
   42MOL    F33 5035   7.979   0.500   7.290 -0.1877 -0.5242  0.0148
   42MOL    F34 5036   7.784   0.567   7.256  0.7500  0.0844 -0.3852
   42MOL    C35 5037   7.921   0.571   7.076 -0.7680  0.1984  0.3215
   42MOL    H36 5038   7.883   0.472   7.052 -0.9874  0.3061  0.2275
   42MOL    H37 5039   8.026   0.583   7.049 -1.3346  2.9309 -0.8613
   42MOL    C38 5040   7.847   0.668   6.974  0.9046  0.5607 -0.7153
   42MOL    F39 5041   7.723   0.683   7.021  0.3733  0.5626  1.1672
   42MOL    F40 5042   7.901   0.785   6.980  0.0141  0.2964  0.8514
   42MOL    C41 5043   7.847   0.618   6.829  0.1615  0.3300 -0.8709
   42MOL    H42 5044   7.812   0.515   6.824 -0.6680  0.5482  0.2802
   42MOL    H43 5045   7.951   0.596   6.803 -0.0302  1.3176 -2.5458
   42MOL    C44 5046   7.766   0.706   6.727 -0.7001  0.3047 -0.4124
   42MOL    F45 5047   7.640   0.721   6.760 -0.0854  0.0715 -0.1809
   42MOL    F46 5048   7.813   0.835   6.732 -0.2469 -0.4519 -0.3187
   42MOL    C47 5049   7.767   0.649   6.590 -0.2809 -0.4231 -0.0499
   42MOL    H48 5050   7.696   0.711   6.535 -1.0259 -0.0008  1.3805
   42MOL    H49 5051   7.707   0.557   6.586 -2.2981  0.9127 -1.8721
   42MOL    C50 5052   7.895   0.644   6.511 -0.1576  0.1326 -0.0323
   42MOL    F51 5053   7.967   0.541   6.549  0.4618 -0.0336 -0.2073
   42MOL    F52 5054   7.851   0.613   6.393  0.3346 -0.1565  0.3368
   42MOL    C53 5055   7.978   0.775   6.505 -0.5862 -0.7042  0.6860
   42MOL    H54 5056   8.008   0.809   6.604 -0.6535 -0.6822  0.6994
   42MOL    H55 5057   7.921   0.854   6.455 -3.5453 -1.9044  2.0617
   42MOL    C56 5058   8.106   0.765   6.422 -0.6219 -0.2412  0.9732
   42MOL    F57 5059   8.161   0.879   6.414 -0.5465 -0.1914 -0.0860
   42MOL    F58 5060   8.192   0.675   6.475  0.1010  0.1855  0.5526
   42MOL    C59 5061   8.077   0.715   6.279  0.6679  0.5871  0.2165
   42MOL    H60 5062   7.987   0.766   6.246 -0.9018 -1.1027  1.7991
   42MOL    H61 5063   8.055   0.609   6.272  0.3710  0.7293 -1.2725
   42MOL    C62 5064   8.183   0.745   6.172 -0.1538  0.3461 -0.2812
   42MOL    F63 5065   8.150   0.685   6.055  0.0097  0.5051 -0.1187
   42MOL    F64 5066   8.175   0.878   6.148  0.1817 -0.1737  0.2183
   42MOL    C65 5067   8.319   0.688   6.215  0.3046  0.0553  0.7346
   42MOL    H66 5068   8.291   0.586   6.245  2.3182 -1.4349 -2.2706
   42MOL    H67 5069   8.349   0.743   6.304  3.1021  3.0254 -1.9651
   42MOL    C68 5070   0.091   0.698   6.112  0.2021  0.0906  0.2930
   42MOL    F69 5071   0.191   0.633   6.166  0.1616 -0.5222  0.1429
   42MOL    F70 5072   0.056   0.640   6.000  0.0084  0.0311  0.1294
   42MOL    C71 5073   0.126   0.851   6.088  0.0214  0.1212  0.9088
   42MOL    H72 5074   0.142   0.906   6.180  0.4128  2.5236 -0.5628
   42MOL    H73 5075   0.045   0.904   6.039 -0.6297  1.1449  3.0560
   42MOL    C74 5076   0.257   0.869   6.003  0.8701  0.1822  0.4679
   42MOL    F75 5077   0.272   0.999   6.000 -0.2675 -0.8559 -0.3167
   42MOL    F76 5078   0.366   0.802   6.054 -0.1412  0.2940 -0.2057
   42MOL    C77 5079   0.244   0.809   5.861 -0.4150 -0.4101  0.6956
   42MOL    H78 5080   0.141   0.802   5.826  0.0031  1.2907 -0.8884
   42MOL    H79 5081   0.279   0.706   5.851 -2.0822 -0.8916 -0.4315
   42MOL    C80 5082   0.319   0.896   5.755  0.2789 -0.1282  0.2378
   42MOL    F81 5083   0.312   0.828   5.643  0.5136  0.0845 -0.0747
   42MOL    F82 5084   0.255   1.015   5.742 -0.7980  0.3871 -0.1652
   42MOL    C83 5085   0.467   0.927   5.785 -0.3549  0.1482 -0.5835
   42MOL    H84 5086   0.525   0.836   5.802 -0.3664  0.3754  0.6956
   42MOL    H85 5087   0.477   0.985   5.877 -0.5994 -0.6180 -0.0702
   42MOL    C86 5088   0.547   1.000   5.671 -0.0279 -0.7675  0.1850
   42MOL    F87 5089   0.569   0.913   5.571 -0.0919  0.2773 -0.6257
   42MOL    F88 5090   0.478   1.106   5.627  0.5829  0.2733 -0.0770
   42MOL    C89 5091   0.686   1.056   5.711 -0.1321 -0.4166  0.2229
   42MOL    H90 5092   0.680   1.108   5.807  0.2381  0.8912 -0.4477
   42MOL    H91 5093   0.717   1.130   5.637 -0.1331 -0.9951 -0.3562
   42MOL    C92 5094   0.804   0.952   5.733  0.0958 -0.6021  0.1774
   42MOL    F93 5095   0.769   0.852   5.811  0.0761  0.0463 -0.8524
   42MOL    F94 5096   0.838   0.906   5.613  0.7327 -0.1176 -0.1502
   42MOL    C95 5097   0.927   1.022   5.792 -0.7164 -0.5024  0.1853
   42MOL    H96 5098   0.894   1.072   5.883 -0.4790 -0.0681  0.0363
   42MOL    H97 5099   0.955   1.094   5.715  1.6409 -1.7514 -0.1521
   42MOL    C98 5100   1.042   0.928   5.829  0.2539 -0.0888 -0.0802
   42MOL    F99 5101   1.151   1.009   5.837  0.1069  0.2921 -0.2610
   42MOL   F100 5102   1.015   0.873   5.953  0.5233  0.2355 -0.0697
   42MOL   C101 5103   1.087   0.821   5.728  0.3315 -0.3024 -0.4954
   42MOL   H102 5104   1.120   0.883   5.644  2.1081  1.8331  1.7042
   42MOL   H103 5105   0.996   0.768   5.698  0.5750 -1.8706  1.4847
   42MOL   C104 5106   1.197   0.719   5.777  0.6599  0.4193 -0.1314
   42MOL   F105 5107   1.134   0.651   5.874 -0.2624  0.4486  0.1761
   42MOL   F106 5108   1.225   0.633   5.685 -0.0272  0.0123  0.2071
   42MOL   C107 5109   1.325   0.790   5.828 -0.2309  0.0857  0.2563
   42MOL   H108 5110   1.293   0.843   5.918 -0.6467  0.2968 -0.0161
   42MOL   H109 5111   1.368   0.863   5.760 -0.6028 -0.1379 -0.2218
   42MOL   C110 5112   1.437   0.688   5.866 -0.0518  0.0349  0.4111
   42MOL   F111 5113   1.389   0.600   5.953 -0.0595  0.0131  0.3055
   42MOL   F112 5114   1.467   0.621   5.756 -0.0847 -0.0978 -0.0612
   42MOL   C113 5115   1.575   0.740   5.922  0.1610 -0.4966 -0.1086
   42MOL   H114 5116   1.635   0.788   5.845  1.3893 -1.1481  0.4413
   42MOL   H115 5117   1.630   0.648   5.940  1.5165  0.4147  0.4787
   42MOL   C116 5118   1.565   0.844   6.043  0.2193  0.0985 -0.3688
   42MOL   F117 5119   1.499   0.959   6.014 -0.2596  0.0133  0.5674
   42MOL   F118 5120   1.497   0.787   6.147 -0.5123 -0.1153  0.1195
   42MOL   C119 5121   1.703   0.892   6.089 -0.0109 -0.7161 -0.2051
   42MOL   H120 5122   1.781   0.816   6.080  0.6579 -0.2571  1.5141
   42MOL   H121 5123   1.692   0.930   6.191  1.5259  1.3748 -0.7848
   42MOL   H122 5124   1.744   0.969   6.024  3.0453  0.8878  3.4324
   43MOL     C1 5125   4.462   1.477   3.840 -0.1575  0.0218  0.8867
   43MOL     F2 5126   4.588   1.464   3.876  0.0059  0.1219 -0.2308
   43MOL     F3 5127   4.451   1.417   3.721 -0.1181 -0.1426 -0.2765
   43MOL     C4 5128   4.435   1.630   3.831 -0.5534 -0.3374 -0.4327
   43MOL     H5 5129   4.505   1.674   3.760  1.1562 -4.3292 -1.3988
   43MOL     H6 5130   4.454   1.669   3.930  1.4291 -0.5969 -0.6848
   43MOL     H7 5131   4.412   1.424   3.921 -0.0084  0.9796  1.6069
   43MOL     C8 5132   4.297   1.677   3.793 -0.5748 -0.6325  0.0789
   43MOL     F9 5133   4.281   1.675   3.664  0.5122  0.4147  0.1337
   43MOL    F10 5134   4.204   1.601   3.848  0.1591  0.4760  0.0284
   43MOL    C11 5135   4.272   1.820   3.837 -0.0156  0.0465  0.1686
   43MOL    H12 5136   4.247   1.821   3.943  0.5498 -0.3459  0.3086
   43MOL    H13 5137   4.172   1.846   3.801 -0.9161 -0.7880  1.9978
   43MOL    C14 5138   4.369   1.925   3.792 -0.7689  0.2647  0.2125
   43MOL    F15 5139   4.319   2.038   3.835 -0.1782 -0.1593 -0.2192
   43MOL    F16 5140   4.487   1.900   3.856  0.0741 -0.5471  0.7096
   43MOL    C17 5141   4.384   1.931   3.635 -0.4082  0.5182 -0.3917
   43MOL    H18 5142   4.290   1.899   3.590 -1.1245  1.3628  0.4815
   43MOL    H19 5143   4.467   1.868   3.603 -1.1012 -0.0050 -1.1476
   43MOL    C20 5144   4.412   2.075   3.582 -0.1602 -0.5211  0.1587
   43MOL    F21 5145   4.427   2.060   3.451 -0.0961 -0.2760 -0.0528
   43MOL    F22 5146   4.307   2.146   3.603  0.3093 -0.0271 -0.0516
   43MOL    C23 5147   4.535   2.143   3.651  0.1247 -0.0018  0.2228
   43MOL    H24 5148   4.621   2.085   3.616  0.1992 -0.1724  0.6743
   43MOL    H25 5149   4.529   2.139   3.760 -0.7596 -1.2554  0.1429
   43MOL    C26 5150   4.579   2.281   3.604  0.4532  0.5905  0.1755
   43MOL    F27 5151   4.626   2.270   3.480  0.1843 -0.2406 -0.2002
   43MOL    F28 5152   4.474   2.363   3.608  0.0265 -0.1597 -0.4145
   43MOL    C29 5153   4.686   2.349   3.694 -0.5736  0.1909  0.3926
   43MOL    H30 5154   4.637   2.360   3.791 -0.8614  0.1686  0.2489
   43MOL    H31 5155   4.702   2.452   3.662  0.2315  0.4206  1.5180
   43MOL    C32 5156   4.826   2.287   3.705 -0.3580  0.3369 -0.6575
   43MOL    F33 5157   4.806   2.165   3.750 -0.1028 -0.0228 -0.1803
   43MOL    F34 5158   4.880   2.280   3.582 -0.2903 -0.7635  0.1620
   43MOL    C35 5159   4.925   2.357   3.803  0.5044  0.5024  0.7490
   43MOL    H36 5160   4.959   2.455   3.769 -0.7559  0.8486  0.4499
   43MOL    H37 5161   5.019   2.302   3.794 -0.3187 -1.3777  2.9924
   43MOL    C38 5162   4.877   2.363   3.948 -0.1756 -0.6324  0.2003
   43MOL    F39 5163   4.759   2.430   3.956  0.2253 -0.5597 -0.0515
   43MOL    F40 5164   4.864   2.238   4.001  0.0262 -0.2567  0.2338
   43MOL    C41 5165   4.983   2.435   4.042  0.1137  0.0273 -0.3223
   43MOL    H42 5166   5.022   2.527   3.997  0.1907 -0.4483 -1.2374
   43MOL    H43 5167   5.068   2.370   4.060  0.6365  0.5447 -0.8783
   43MOL    C44 5168   4.937   2.470   4.191  0.6341 -0.2645 -0.0104
   43MOL    F45 5169   4.839   2.564   4.168 -0.2793  0.5291 -0.4993
   43MOL    F46 5170   4.870   2.369   4.251  0.0727 -0.4686 -0.2848
   43MOL    C47 5171   5.037   2.518   4.290 -0.4624  0.0055  0.4167
   43MOL    H48 5172   5.101   2.591   4.240 -0.6084 -1.2785 -1.6992
   43MOL    H49 5173   5.109   2.443   4.323  0.9219  2.2855  2.7499
   43MOL    C50 5174   5.004   2.600   4.420 -0.7244  0.3449  0.3901
   43MOL    F51 5175   4.943   2.713   4.381 -0.0737  0.0381  0.3442
   43MOL    F52 5176   4.923   2.518   4.498  0.0665  0.2545  0.2322
   43MOL    C53 5177   5.127   2.625   4.519  0.1845  0.2544  0.0812
   43MOL    H54 5178   5.217   2.662   4.469  0.0259 -1.6149 -1.6497
   43MOL    H55 5179   5.154   2.520   4.537  1.5147  0.4700 -0.5869
   43MOL    C56 5180   5.108   2.703   4.656  0.2380 -0.7455 -0.5662
   43MOL    F57 5181   5.223   2.713   4.717 -0.5594  0.3115 -0.2540
   43MOL    F58 5182   5.071   2.830   4.616  0.0762  1.2524  0.0596
   43MOL    C59 5183   5.001   2.647   4.751  0.3727  0.4101 -0.5145
   43MOL    H60 5184   5.014   2.544   4.784  1.4447  1.3988  2.3017
   43MOL    H61 5185   4.910   2.644   4.691 -0.6961  0.3322  1.0807
   43MOL    C62 5186   4.988   2.723   4.881  0.1222  0.2254  0.6113
   43MOL    F63 5187   5.104   2.722   4.947  0.1069  0.2591  0.0175
   43MOL    F64 5188   4.935   2.847   4.880  0.5187 -0.0382  0.7351
   43MOL    C65 5189   4.896   2.625   4.968  0.0446 -0.3598  0.4228
   43MOL    H66 5190   4.945   2.528   4.975 -1.7963 -1.5414 -2.1355
   43MOL    H67 5191   4.807   2.596   4.911 -0.4898 -0.5840  1.3484
   43MOL    C68 5192   4.843   2.683   5.101  0.7593 -0.0020  0.0063
   43MOL    F69 5193   4.950   2.737   5.167 -0.3083 -0.4265  0.4717
   43MOL    F70 5194   4.765   2.789   5.068 -0.1915  0.0305  0.0905
   43MOL    C71 5195   4.768   2.591   5.199  0.5866  0.0535 -0.9318
   43MOL    H72 5196   4.836   2.515   5.236  0.2652 -0.5927 -1.6519
   43MOL    H73 5197   4.692   2.544   5.136  0.1384  1.3848 -1.3843
   43MOL    C74 5198   4.704   2.666   5.324 -0.8531  0.7509  0.7775
   43MOL    F75 5199   4.814   2.716   5.393  0.1816  0.3229 -1.0006
   43MOL    F76 5200   4.626   2.769   5.292  0.2319 -0.3275 -0.0513
   43MOL    C77 5201   4.628   2.588   5.431  0.7010  0.2516  0.2163
   43MOL    H78 5202   4.582   2.650   5.508  0.4622  0.3806 -0.0302
   43MOL    H79 5203   4.686   2.520   5.493  0.8805 -1.2527 -1.5605
   43MOL    C80 5204   4.525   2.496   5.369 -0.3289 -0.2702 -0.2380
   43MOL    F81 5205   4.599   2.400   5.310 -0.6034 -0.1800  0.3580
   43MOL    F82 5206   4.464   2.445   5.477 -0.0874 -0.1908  0.1825
   43MOL    C83 5207   4.418   2.543   5.271  0.3078  0.3436 -0.2213
   43MOL    H84 5208   4.448   2.592   5.178 -1.3961  0.5880 -0.6662
   43MOL    H85 5209   4.365   2.619   5.329  0.6456 -0.2816  0.9202
   43MOL    C86 5210   4.320   2.435   5.230  0.1755  0.8890 -0.5424
   43MOL    F87 5211   4.250   2.401   5.340  0.0750  0.3569  0.0821
   43MOL    F88 5212   4.234   2.510   5.155 -0.2833 -0.3684  0.6889
   43MOL    C89 5213   4.371   2.312   5.148  0.0546  0.1872 -0.0249
   43MOL    H90 5214   4.438   2.249   5.207 -2.0754 -1.3932  0.8000
   43MOL    H91 5215   4.442   2.352   5.075 -0.8786  0.3475 -0.8476
   43MOL    C92 5216   4.269   2.216   5.077  0.4795  0.2490 -0.5226
   43MOL    F93 5217   4.204   2.294   4.985 -0.7515  0.2391 -0.0550
   43MOL    F94 5218   4.331   2.125   5.011 -0.2177 -0.0906 -0.3551
   43MOL    C95 5219   4.169   2.143   5.169 -0.0251 -0.3998  0.4631
   43MOL    H96 5220   4.102   2.218   5.211  2.1188  0.9112  1.6439
   43MOL    H97 5221   4.211   2.105   5.262  0.2954 -0.4182  0.3093
   43MOL    C98 5222   4.095   2.037   5.094  0.2190 -0.6186 -0.2095
   43MOL    F99 5223   4.043   2.070   4.982  0.2639 -0.1925 -0.1661
   43MOL   F100 5224   4.166   1.930   5.084 -0.0426 -0.1406 -0.4494
   43MOL   C101 5225   3.974   1.981   5.169  0.2108  0.7870  0.2766
   43MOL   H102 5226   3.932   1.900   5.108  0.4981  1.3581 -0.6919
   43MOL   H103 5227   3.901   2.062   5.173  0.4761  1.0252  0.2802
   43MOL   C104 5228   3.994   1.925   5.317  0.0183  0.5761  0.1952
   43MOL   F105 5229   4.097   1.834   5.308  0.2084  0.7381  0.0191
   43MOL   F106 5230   4.028   2.033   5.399 -0.1804  0.2629  0.3662
   43MOL   C107 5231   3.865   1.848   5.370 -0.5867 -0.1863  0.3629
   43MOL   H108 5232   3.872   1.828   5.477  0.6210  1.1550  0.5483
   43MOL   H109 5233   3.864   1.745   5.333  0.5630 -0.2202  0.3962
   43MOL   C110 5234   3.730   1.915   5.348  0.6031 -0.5929 -0.9598
   43MOL   F111 5235   3.713   1.936   5.216  0.3007 -0.6740 -0.2502
   43MOL   F112 5236   3.634   1.819   5.383 -0.2556  0.7440  0.1850
   43MOL   C113 5237   3.710   2.046   5.426  0.0589  0.6993 -0.1458
   43MOL   H114 5238   3.792   2.116   5.407 -0.5462  0.9884 -1.8058
   43MOL   H115 5239   3.715   2.042   5.535 -2.6803  1.8450  0.0718
   43MOL   C116 5240   3.590   2.137   5.392 -0.0051 -1.1655 -0.0956
   43MOL   F117 5241   3.606   2.189   5.270  0.2409 -0.2646  0.3407
   43MOL   F118 5242   3.475   2.075   5.413  0.4424  0.1221 -0.2761
   43MOL   C119 5243   3.586   2.263   5.482  0.1713  0.0441 -0.7230
   43MOL   H120 5244   3.592   2.240   5.589  3.1907  2.2387 -0.3147
   43MOL   H121 5245   3.499   2.329   5.474 -0.3525 -0.4768  0.5497
   43MOL   H122 5246   3.673   2.328   5.469  1.7526 -1.3680  2.1337
   44MOL     C1 5247   3.088   3.303   3.111  0.8825  0.6329 -0.1676
   44MOL     F2 5248   3.044   3.421   3.128 -0.1215 -0.7804 -0.1178
   44MOL     F3 5249   3.218   3.314   3.113  0.3683  0.6654  0.1934
   44MOL     C4 5250   3.048   3.249   2.971 -0.2980 -0.2080  0.0387
   44MOL     H5 5251   3.092   3.323   2.903 -0.8105 -0.4661 -0.5797
   44MOL     H6 5252   2.943   3.262   2.944 -0.7570 -2.1204  0.8629
   44MOL     H7 5253   3.045   3.244   3.192  1.3078  0.0887 -0.3400
   44MOL     C8 5254   3.098   3.109   2.936 -0.0789 -0.8553 -0.9943
   44MOL     F9 5255   3.229   3.087   2.953 -0.0144 -0.2134  0.1266
   44MOL    F10 5256   3.034   3.036   3.026  0.3316  0.3601 -0.0165
   44MOL    C11 5257   3.044   3.063   2.796 -0.0428  0.8495 -0.0777
   44MOL    H12 5258   2.937   3.045   2.801  0.0157  0.2010 -1.1535
   44MOL    H13 5259   3.088   2.963   2.788 -1.0335  0.3085  1.0387
   44MOL    C14 5260   3.064   3.141   2.665  0.0986 -0.0773  1.1207
   44MOL    F15 5261   2.993   3.087   2.567 -0.2013  0.2246 -0.3370
   44MOL    F16 5262   3.002   3.262   2.669 -0.0169 -0.4558  0.0285
   44MOL    C17 5263   3.217   3.152   2.630  1.0833  0.1755  0.1520
   44MOL    H18 5264   3.271   3.057   2.626  0.2013 -0.3468  0.5408
   44MOL    H19 5265   3.260   3.205   2.715  0.2664  1.8980 -0.4885
   44MOL    C20 5266   3.263   3.239   2.510  0.4415 -0.4856 -0.2715
   44MOL    F21 5267   3.213   3.188   2.397 -0.2834  0.3093 -0.1456
   44MOL    F22 5268   3.217   3.365   2.522  0.0709 -0.1278 -0.1183
   44MOL    C23 5269   3.415   3.228   2.500  0.1962  0.2130 -0.4540
   44MOL    H24 5270   3.455   3.127   2.499  0.2652  0.2381 -2.0044
   44MOL    H25 5271   3.461   3.289   2.578  0.4305 -0.6451  0.0862
   44MOL    C26 5272   3.476   3.283   2.370  0.4063 -0.2019  0.7262
   44MOL    F27 5273   3.610   3.278   2.387 -0.3898 -0.1258 -0.7590
   44MOL    F28 5274   3.454   3.202   2.264  0.3294 -0.2416 -0.1994
   44MOL    C29 5275   3.432   3.427   2.343 -0.2135 -0.8267  0.9161
   44MOL    H30 5276   3.439   3.476   2.439  1.2173  1.2354 -0.2074
   44MOL    H31 5277   3.328   3.427   2.311  0.1245  0.5478 -0.2391
   44MOL    C32 5278   3.512   3.502   2.236  0.7244 -0.0051  0.5388
   44MOL    F33 5279   3.631   3.504   2.284 -0.2777 -0.7756  0.1207
   44MOL    F34 5280   3.521   3.431   2.124  0.2817  0.3909  0.3085
   44MOL    C35 5281   3.468   3.645   2.210 -0.0330  0.2335  0.8138
   44MOL    H36 5282   3.525   3.675   2.121 -2.7644  0.0205 -1.0620
   44MOL    H37 5283   3.494   3.708   2.295 -1.3007  2.5689 -0.4601
   44MOL    C38 5284   3.323   3.672   2.174 -0.1956  0.1189 -0.4408
   44MOL    F39 5285   3.309   3.592   2.067  0.2043  0.0278  0.0833
   44MOL    F40 5286   3.251   3.639   2.276  0.6792 -0.0673  0.3614
   44MOL    C41 5287   3.309   3.820   2.128 -0.5379  0.2082  0.1381
   44MOL    H42 5288   3.383   3.847   2.053 -0.3127  0.0403  0.3015
   44MOL    H43 5289   3.324   3.871   2.223  0.6224  1.4571 -0.7007
   44MOL    C44 5290   3.166   3.849   2.084 -0.8000 -0.0161 -0.2994
   44MOL    F45 5291   3.163   3.974   2.036 -0.0569 -0.8010 -0.0821
   44MOL    F46 5292   3.134   3.764   1.985  0.3918  0.0207 -0.1536
   44MOL    C47 5293   3.065   3.838   2.194  0.5854 -0.0427 -0.2187
   44MOL    H48 5294   3.095   3.876   2.291 -1.1454 -3.2304  1.6485
   44MOL    H49 5295   3.058   3.733   2.223  1.1616 -0.1081 -0.3020
   44MOL    C50 5296   2.918   3.872   2.170  0.0202  0.3713  0.6838
   44MOL    F51 5297   2.855   3.782   2.089 -0.2102 -1.1012 -0.3428
   44MOL    F52 5298   2.862   3.870   2.282 -0.0605 -0.4560 -0.5586
   44MOL    C53 5299   2.891   4.015   2.121 -0.4023  0.4450  0.2611
   44MOL    H54 5300   2.956   4.038   2.037  1.3880 -0.8226  1.2783
   44MOL    H55 5301   2.929   4.086   2.195  3.0938  0.7464 -1.7502
   44MOL    C56 5302   2.742   4.063   2.111 -0.2645  0.4571  0.3396
   44MOL    F57 5303   2.681   3.988   2.026  0.0008 -0.4050  0.9943
   44MOL    F58 5304   2.685   4.061   2.236  0.0175  0.3709  0.2743
   44MOL    C59 5305   2.723   4.209   2.060 -0.3698  0.8670 -0.3542
   44MOL    H60 5306   2.620   4.234   2.085 -0.7473  1.0422 -2.0654
   44MOL    H61 5307   2.742   4.208   1.953 -1.1193 -2.3034 -0.5183
   44MOL    C62 5308   2.817   4.320   2.113  0.3328  1.0062 -0.5193
   44MOL    F63 5309   2.801   4.320   2.248  0.2444 -0.2984 -0.6808
   44MOL    F64 5310   2.947   4.297   2.088  0.3148 -0.0975 -0.1438
   44MOL    C65 5311   2.772   4.460   2.067 -0.9522 -0.9253 -0.1658
   44MOL    H66 5312   2.688   4.489   2.129 -0.5658 -0.8663  0.3339
   44MOL    H67 5313   2.752   4.463   1.960  0.9812  0.9856 -0.5296
   44MOL    C68 5314   2.874   4.571   2.098 -0.0005  0.1893  0.7271
   44MOL    F69 5315   2.897   4.596   2.223 -0.2037  0.2957 -0.1029
   44MOL    F70 5316   2.983   4.536   2.031  0.5386  0.2899 -0.0630
   44MOL    C71 5317   2.822   4.711   2.045 -0.5133  1.0049  0.2008
   44MOL    H72 5318   2.754   4.741   2.125 -2.8031  0.3216 -1.4538
   44MOL    H73 5319   2.756   4.705   1.959  0.9466 -0.3833 -0.8414
   44MOL    C74 5320   2.928   4.824   2.031 -0.6202 -0.0972  0.5682
   44MOL    F75 5321   2.999   4.800   1.918  0.1097  0.3850 -0.1770
   44MOL    F76 5322   2.857   4.934   1.998  0.1961 -0.4604 -0.2801
   44MOL    C77 5323   3.032   4.843   2.146  0.0569  0.0991 -0.2912
   44MOL    H78 5324   3.097   4.756   2.157 -1.9158 -1.1984  1.5979
   44MOL    H79 5325   2.971   4.853   2.236  1.7693  1.1376  0.7863
   44MOL    C80 5326   3.115   4.975   2.138  0.2036 -1.0435  0.4809
   44MOL    F81 5327   3.179   4.975   2.021  0.6623 -0.2640  0.5639
   44MOL    F82 5328   3.020   5.070   2.135 -0.0141 -0.1403  0.4178
   44MOL    C83 5329   3.226   4.981   2.234  0.1750 -0.1971 -0.1861
   44MOL    H84 5330   3.280   5.072   2.208  1.1337 -1.1147 -1.4338
   44MOL    H85 5331   3.293   4.898   2.213  2.2735  0.4955  3.3194
   44MOL    C86 5332   3.183   4.988   2.383 -0.8272  0.2763 -0.1329
   44MOL    F87 5333   3.103   5.088   2.390 -0.0756  0.5423  0.0330
   44MOL    F88 5334   3.108   4.878   2.405  0.2975  0.1360  0.3343
   44MOL    C89 5335   3.291   4.995   2.495 -0.1394  0.6417  0.1576
   44MOL    H90 5336   3.334   4.895   2.500 -0.7859  0.3847  0.6801
   44MOL    H91 5337   3.238   5.014   2.589 -0.4562 -1.0124  0.3218
   44MOL    C92 5338   3.398   5.097   2.469  0.0653  0.3595  0.0293
   44MOL    F93 5339   3.476   5.081   2.360 -0.2204  0.2788  0.2684
   44MOL    F94 5340   3.311   5.200   2.463 -0.6927 -0.1870  0.5706
   44MOL    C95 5341   3.504   5.119   2.587  0.2824 -0.4363 -0.2268
   44MOL    H96 5342   3.458   5.144   2.682 -1.6758 -1.1434 -0.9564
   44MOL    H97 5343   3.571   5.201   2.558  2.3890 -2.3872 -1.0568
   44MOL    C98 5344   3.586   4.994   2.635 -0.0139  0.1444 -0.2102
   44MOL    F99 5345   3.503   4.896   2.668 -0.4060  0.2706  0.6309
   44MOL   F100 5346   3.662   4.952   2.533  0.0811 -0.3643 -0.6822
   44MOL   C101 5347   3.676   5.021   2.766 -0.5490  0.6209  0.5144
   44MOL   H102 5348   3.724   4.925   2.783 -0.4325  0.6764  0.4989
   44MOL   H103 5349   3.611   5.041   2.851 -3.1188 -2.1866 -0.7091
   44MOL   C104 5350   3.781   5.140   2.744 -0.0820  0.1881 -0.0379
   44MOL   F105 5351   3.848   5.148   2.637 -0.2336 -0.1218 -0.6719
   44MOL   F106 5352   3.718   5.251   2.775 -0.0439 -0.3040  0.5291
   44MOL   C107 5353   3.894   5.140   2.850 -0.1275  0.0319  0.5536
   44MOL   H108 5354   3.858   5.158   2.952  1.5158  0.0526  1.1370
   44MOL   H109 5355   3.958   5.226   2.830 -0.9136  0.5679  0.3056
   44MOL   C110 5356   3.994   5.033   2.851 -0.1415 -0.0474 -0.0459
   44MOL   F111 5357   4.071   5.059   2.958  0.0127 -0.3618 -0.5282
   44MOL   F112 5358   3.932   4.918   2.879 -0.1150  0.1612  0.0446
   44MOL   C113 5359   4.077   5.007   2.718 -0.1537 -1.1350 -1.1261
   44MOL   H114 5360   4.113   5.106   2.688  0.4024 -1.4384 -1.4711
   44MOL   H115 5361   4.009   4.974   2.640 -0.1229  1.0237 -2.1126
   44MOL   C116 5362   4.182   4.888   2.716  0.0796  0.4548 -0.1938
   44MOL   F117 5363   4.118   4.769   2.709 -0.1417 -0.1100  0.5201
   44MOL   F118 5364   4.254   4.887   2.604 -0.6784  0.0378  0.6119
   44MOL   C119 5365   4.278   4.895   2.839  0.4468  0.7318  0.7325
   44MOL   H120 5366   4.221   4.882   2.931 -0.1919  0.1265  0.2550
   44MOL   H121 5367   4.322   4.993   2.855 -0.6380  1.4076 -0.4003
   44MOL   H122 5368   4.349   4.813   2.829 -1.0127 -0.4533 -0.1181
   45MOL     C1 5369   7.777   5.277   7.813 -0.0060  0.1143  0.7787
   45MOL     F2 5370   7.801   5.328   7.933 -0.6267 -0.3177  0.1217
   45MOL     F3 5371   7.799   5.372   7.726 -0.1512  0.3018  0.0467
   45MOL     C4 5372   7.624   5.236   7.800 -0.0568 -0.3146 -1.0899
   45MOL     H5 5373   7.591   5.232   7.696  0.8694 -2.9611 -1.2988
   45MOL     H6 5374   7.571   5.329   7.823  1.6315  0.3399  0.2021
   45MOL     H7 5375   7.843   5.192   7.801 -1.2351 -0.8692  0.9314
   45MOL     C8 5376   7.594   5.096   7.865 -0.5674 -0.1312 -0.4574
   45MOL     F9 5377   7.670   4.994   7.811 -0.6865 -0.5615  0.3809
   45MOL    F10 5378   7.623   5.106   7.995 -0.4209  0.8873 -0.5521
   45MOL    C11 5379   7.449   5.039   7.864  0.0690 -1.0970 -0.3440
   45MOL    H12 5380   7.383   5.107   7.918  3.8858  2.1201  0.5552
   45MOL    H13 5381   7.459   4.940   7.907 -1.3754 -1.8843 -1.7796
   45MOL    C14 5382   7.394   5.029   7.720 -0.1245 -0.3364  0.6307
   45MOL    F15 5383   7.355   5.150   7.675  0.2219 -0.0504  0.2969
   45MOL    F16 5384   7.479   4.967   7.638 -0.1222  0.5728  0.2499
   45MOL    C17 5385   7.263   4.935   7.716  0.0223  0.2124 -0.2757
   45MOL    H18 5386   7.183   4.973   7.779 -0.0352 -1.1428  0.4914
   45MOL    H19 5387   7.298   4.841   7.760 -1.7615 -1.1913 -1.7778
   45MOL    C20 5388   7.208   4.900   7.571  0.2699  0.6115 -0.1371
   45MOL    F21 5389   7.092   4.835   7.602 -0.5826 -0.2477  0.6757
   45MOL    F22 5390   7.168   5.013   7.505  0.0703  0.0507 -0.1048
   45MOL    C23 5391   7.288   4.819   7.477 -0.2118  0.0817 -0.2026
   45MOL    H24 5392   7.360   4.884   7.427 -0.3283 -0.3235 -0.8998
   45MOL    H25 5393   7.213   4.785   7.407 -1.0607  1.6777 -0.0876
   45MOL    C26 5394   7.363   4.700   7.540 -0.0678 -0.1836  0.0749
   45MOL    F27 5395   7.466   4.725   7.618  0.3938  0.1388 -0.3180
   45MOL    F28 5396   7.264   4.649   7.607 -0.1770  0.3083 -0.4022
   45MOL    C29 5397   7.414   4.602   7.435 -0.7179  0.2699  0.1487
   45MOL    H30 5398   7.497   4.651   7.385  0.1754 -0.6061  0.7662
   45MOL    H31 5399   7.342   4.590   7.354  1.4719 -1.7954 -1.5457
   45MOL    C32 5400   7.475   4.471   7.485  0.1195  0.0109 -0.1495
   45MOL    F33 5401   7.583   4.514   7.553 -0.3319  0.4601 -0.0620
   45MOL    F34 5402   7.396   4.413   7.575  0.0753 -0.4437 -0.1690
   45MOL    C35 5403   7.517   4.371   7.375 -0.6455 -0.2675  0.5770
   45MOL    H36 5404   7.586   4.427   7.312 -0.6341 -2.7943 -1.7484
   45MOL    H37 5405   7.424   4.347   7.323 -1.4726 -1.8662  2.7045
   45MOL    C38 5406   7.593   4.244   7.425 -0.4494 -0.8062 -0.6867
   45MOL    F39 5407   7.713   4.268   7.479 -0.0691  0.0548 -0.0021
   45MOL    F40 5408   7.531   4.194   7.526  0.3790 -0.0248  0.0497
   45MOL    C41 5409   7.630   4.143   7.313  0.0231  0.3674  0.3421
   45MOL    H42 5410   7.538   4.086   7.295 -0.3909  1.5388 -1.3931
   45MOL    H43 5411   7.694   4.063   7.349  0.1260  0.5771  0.6268
   45MOL    C44 5412   7.678   4.191   7.175  0.5985 -1.0071 -0.4234
   45MOL    F45 5413   7.666   4.083   7.094  0.5957  0.3636  0.1677
   45MOL    F46 5414   7.590   4.277   7.118  0.0343  0.0138  0.1761
   45MOL    C47 5415   7.827   4.245   7.175 -1.0819  0.2714 -0.5734
   45MOL    H48 5416   7.900   4.180   7.223 -2.5748 -0.8921  0.1766
   45MOL    H49 5417   7.833   4.339   7.229  0.2314  2.3311 -4.1010
   45MOL    C50 5418   7.886   4.284   7.042  0.0223  0.2554  0.0680
   45MOL    F51 5419   7.875   4.196   6.943  0.3363 -0.6402  0.1705
   45MOL    F52 5420   7.827   4.389   7.000  0.0688 -0.0729  0.8223
   45MOL    C53 5421   8.038   4.310   7.042  0.0534  0.7911  1.0897
   45MOL    H54 5422   8.064   4.338   6.940  1.7746  0.7849  1.5156
   45MOL    H55 5423   8.098   4.222   7.067 -1.4568 -0.6541 -0.1881
   45MOL    C56 5424   8.102   4.413   7.132 -0.0753 -0.4192 -0.5723
   45MOL    F57 5425   8.032   4.524   7.104 -0.2963 -0.2732 -0.3533
   45MOL    F58 5426   8.106   4.384   7.256 -0.0906  0.1496  0.2475
   45MOL    C59 5427   8.246   4.450   7.093 -0.3597  0.6212 -0.2185
   45MOL    H60 5428   8.249   4.518   7.007 -2.8367  2.2629  0.9257
   45MOL    H61 5429   8.294   4.355   7.068 -1.0876 -0.2534  1.6033
   45MOL    C62 5430   8.338   4.516   7.197  0.1257  0.2439 -0.0997
   45MOL    F63 5431   8.348   4.447   7.308  0.5339 -0.0236  1.0556
   45MOL    F64 5432   0.099   4.504   7.138  0.1661  0.1623  0.3154
   45MOL    C65 5433   8.296   4.658   7.248  0.4401  0.5116 -0.3413
   45MOL    H66 5434   0.010   4.688   7.331  1.7754 -0.8384 -0.8455
   45MOL    H67 5435   8.200   4.640   7.297  1.0909 -0.3989  0.6091
   45MOL    C68 5436   8.287   4.776   7.156 -0.3836 -0.7357 -0.2411
   45MOL    F69 5437   8.191   4.753   7.070 -0.8558 -0.1916  0.0064
   45MOL    F70 5438   8.253   4.889   7.226  0.1870  0.3092  0.1567
   45MOL    C71 5439   0.058   4.813   7.073 -0.0942 -1.0941  0.2683
   45MOL    H72 5440   0.026   4.895   7.008 -0.0201 -1.8180 -0.7014
   45MOL    H73 5441   0.077   4.738   6.996  3.0659 -0.9895  0.9155
   45MOL    C74 5442   0.187   4.856   7.145 -0.5927 -0.8610  0.0938
   45MOL    F75 5443   0.153   4.968   7.213  0.5375 -0.2839 -0.4397
   45MOL    F76 5444   0.222   4.762   7.227 -0.1328 -0.3376 -0.0107
   45MOL    C77 5445   0.303   4.895   7.048  0.5300  0.4186 -0.2746
   45MOL    H78 5446   0.272   4.962   6.968  0.6738  0.6739 -0.1171
   45MOL    H79 5447   0.338   4.805   6.998  0.2720 -0.6353  1.3770
   45MOL    C80 5448   0.424   4.957   7.115  0.3353 -0.3111  0.3848
   45MOL    F81 5449   0.383   5.081   7.128  0.1607 -0.0882  0.1128
   45MOL    F82 5450   0.459   4.913   7.236  0.0607  0.2956 -0.7437
   45MOL    C83 5451   0.550   4.959   7.019 -0.2406  0.1646 -0.3833
   45MOL    H84 5452   0.538   4.956   6.911  1.1295 -2.3230 -0.5081
   45MOL    H85 5453   0.608   4.869   7.038 -2.6419 -1.3843 -0.1151
   45MOL    C86 5454   0.654   5.071   7.030  0.2780 -0.5753 -0.8401
   45MOL    F87 5455   0.756   5.041   6.946  0.1577 -0.1811  0.0276
   45MOL    F88 5456   0.589   5.188   7.005  0.2855 -0.0495  0.7757
   45MOL    C89 5457   0.703   5.091   7.168 -0.3539  0.3505 -0.0668
   45MOL    H90 5458   0.738   4.996   7.206  0.7303  0.1718 -1.4816
   45MOL    H91 5459   0.621   5.135   7.225  0.8274  1.8027  0.5443
   45MOL    C92 5460   0.818   5.188   7.188 -0.1388 -0.0309 -0.7506
   45MOL    F93 5461   0.839   5.204   7.316 -0.4680  0.1650  0.1048
   45MOL    F94 5462   0.928   5.132   7.131  0.2355 -0.1534  0.8084
   45MOL    C95 5463   0.803   5.329   7.130  0.2552  0.3204 -0.0365
   45MOL    H96 5464   0.718   5.386   7.167  0.4466  0.4988  0.1261
   45MOL    H97 5465   0.793   5.314   7.022 -0.9491  0.7958  0.0028
   45MOL    C98 5466   0.923   5.426   7.155 -0.5359  0.4835  0.4187
   45MOL    F99 5467   0.924   5.456   7.286 -0.4658  0.0245 -0.1829
   45MOL   F100 5468   1.031   5.360   7.130  0.5115  0.1254 -0.4544
   45MOL   C101 5469   0.904   5.555   7.075 -0.4332  0.0915 -0.1032
   45MOL   H102 5470   0.827   5.617   7.122  0.9928  0.2464  2.1065
   45MOL   H103 5471   0.866   5.525   6.977  1.0020 -1.3118 -0.2483
   45MOL   C104 5472   1.033   5.644   7.056 -0.7072  0.3356 -0.2500
   45MOL   F105 5473   1.091   5.669   7.172  0.1063  0.2079  0.2319
   45MOL   F106 5474   1.110   5.576   6.972  0.2553 -0.0358  0.0237
   45MOL   C107 5475   1.007   5.779   6.999  0.2934 -0.2258 -0.0507
   45MOL   H108 5476   0.915   5.809   7.050 -0.0437  0.6272 -1.1473
   45MOL   H109 5477   0.975   5.766   6.896 -1.2979  1.2076  0.2384
   45MOL   C110 5478   1.118   5.884   6.995 -0.2521  0.2675  0.5010
   45MOL   F111 5479   1.152   5.919   7.121  0.0246  0.2947  0.0193
   45MOL   F112 5480   1.226   5.835   6.933 -0.5344 -0.7080 -0.3220
   45MOL   C113 5481   1.090   6.016   6.935 -0.2686 -0.1491  0.5793
   45MOL   H114 5482   1.087   6.012   6.827  1.8295  2.3325  0.3746
   45MOL   H115 5483   1.173   6.083   6.957  0.2866 -0.4727 -0.5366
   45MOL   C116 5484   0.960   6.096   6.963  0.7191 -0.6381 -0.5406
   45MOL   F117 5485   0.856   6.021   6.923  0.3591 -0.0627 -0.1491
   45MOL   F118 5486   0.938   6.130   7.094 -0.0813  0.9891 -0.1042
   45MOL   C119 5487   0.962   6.227   6.889 -0.2855  0.4727 -0.2459
   45MOL   H120 5488   0.878   6.294   6.909 -1.2730 -0.5418 -0.8984
   45MOL   H121 5489   0.962   6.206   6.782  0.8974  1.8679 -0.5297
   45MOL   H122 5490   1.047   6.289   6.917  0.2498  0.7493 -2.4084
   46MOL     C1 5491   7.653   0.742   7.667  0.0950  0.1825 -0.7021
   46MOL     F2 5492   7.592   0.625   7.661 -0.2168  0.1677  0.1212
   46MOL     F3 5493   7.782   0.734   7.624 -0.1008  0.5855  0.1832
   46MOL     C4 5494   7.636   0.815   7.807 -0.2825  0.1291 -0.0921
   46MOL     H5 5495   7.536   0.843   7.839 -0.7707  0.5225 -1.8731
   46MOL     H6 5496   7.681   0.912   7.784 -1.5642  0.1705 -2.5696
   46MOL     H7 5497   7.605   0.809   7.596  1.3180  2.1878  0.3013
   46MOL     C8 5498   7.708   0.743   7.924  0.8889  1.2630  0.0116
   46MOL     F9 5499   7.705   0.825   8.031  0.0758  0.2062 -0.2721
   46MOL    F10 5500   7.634   0.639   7.949 -0.4747  0.2979 -0.5499
   46MOL    C11 5501   7.854   0.693   7.906 -0.0081  0.3983  0.8662
   46MOL    H12 5502   7.862   0.625   7.821  1.7707 -0.0231  1.3515
   46MOL    H13 5503   7.883   0.640   7.997 -0.5528  1.1931  1.5104
   46MOL    C14 5504   7.951   0.810   7.898  0.0989  0.6843 -0.0568
   46MOL    F15 5505   7.932   0.884   7.788  0.6311  0.3642 -0.0516
   46MOL    F16 5506   7.941   0.885   8.008 -0.0901  0.1151 -0.1750
   46MOL    C17 5507   8.094   0.758   7.903  0.4912  0.4693  0.3057
   46MOL    H18 5508   8.104   0.716   8.002 -2.0654 -0.2521  0.3065
   46MOL    H19 5509   8.152   0.849   7.891 -2.1785  2.1452 -0.5290
   46MOL    C20 5510   8.141   0.653   7.799 -0.2566 -0.9898 -0.3495
   46MOL    F21 5511   8.093   0.536   7.839  0.5159 -0.2638 -0.0883
   46MOL    F22 5512   8.101   0.682   7.673 -0.1203 -0.1762  0.0075
   46MOL    C23 5513   8.292   0.640   7.793 -0.2076  0.4214 -0.0911
   46MOL    H24 5514   8.333   0.739   7.770 -0.3330  1.0148  2.0483
   46MOL    H25 5515   8.307   0.568   7.714 -1.0251 -0.5543  0.6402
   46MOL    C26 5516   0.018   0.587   7.910 -0.3254 -0.6456  0.1300
   46MOL    F27 5517   0.011   0.662   8.014  0.3165 -0.0443  0.5060
   46MOL    F28 5518   8.325   0.472   7.949  0.3125 -0.3046  0.2845
   46MOL    C29 5519   0.175   0.568   7.886  0.4427 -0.9913  0.7790
   46MOL    H30 5520   0.220   0.560   7.985  1.9832 -0.8567  0.1009
   46MOL    H31 5521   0.222   0.660   7.849  2.6496 -2.6841 -0.7514
   46MOL    C32 5522   0.214   0.448   7.808  0.2939  0.2798 -0.3293
   46MOL    F33 5523   0.182   0.342   7.879  0.6304 -0.0189  0.2435
   46MOL    F34 5524   0.148   0.437   7.691 -0.5554 -0.3824 -0.2692
   46MOL    C35 5525   0.371   0.445   7.784  0.1679  0.6972  0.0127
   46MOL    H36 5526   0.393   0.346   7.746  2.6642  1.1010  0.3336
   46MOL    H37 5527   0.409   0.444   7.886  0.9337  2.1272 -0.2496
   46MOL    C38 5528   0.421   0.547   7.681 -0.4073 -0.6142 -0.3450
   46MOL    F39 5529   0.342   0.557   7.572 -0.4832  0.5662 -0.3787
   46MOL    F40 5530   0.422   0.669   7.744  0.1250  0.2716 -0.1320
   46MOL    C41 5531   0.562   0.521   7.633  0.0738  0.6518 -0.0696
   46MOL    H42 5532   0.577   0.599   7.559  1.0875  0.6723  0.1525
   46MOL    H43 5533   0.572   0.428   7.576  0.6998  0.2811  0.6320
   46MOL    C44 5534   0.675   0.539   7.742  0.4689  0.4649  0.0167
   46MOL    F45 5535   0.678   0.662   7.795 -0.1470 -0.2187  0.2955
   46MOL    F46 5536   0.667   0.451   7.847  0.6122  0.0747 -0.2399
   46MOL    C47 5537   0.813   0.502   7.681  0.1228 -0.6969 -0.1104
   46MOL    H48 5538   0.819   0.558   7.587 -0.9613 -1.1753 -0.4735
   46MOL    H49 5539   0.810   0.396   7.659  0.0486 -0.4083 -1.5282
   46MOL    C50 5540   0.943   0.542   7.767  0.0719 -0.7979  0.0115
   46MOL    F51 5541   0.939   0.674   7.792 -0.0448 -0.3334 -0.0944
   46MOL    F52 5542   0.949   0.471   7.884  0.1421 -0.2129 -0.0170
   46MOL    C53 5543   1.073   0.507   7.690 -0.2275  0.6633 -0.1809
   46MOL    H54 5544   1.150   0.546   7.756 -1.1547  0.3623  1.1147
   46MOL    H55 5545   1.077   0.568   7.600 -2.4739 -0.6166 -1.2002
   46MOL    C56 5546   1.098   0.350   7.668  0.3237  0.1871 -0.4268
   46MOL    F57 5547   1.098   0.289   7.781 -0.2498 -0.0590  0.2766
   46MOL    F58 5548   1.001   0.291   7.587  0.0640  0.0617 -0.2402
   46MOL    C59 5549   1.239   0.322   7.597 -0.0223 -0.1392  0.3322
   46MOL    H60 5550   1.312   0.355   7.671 -0.3153  0.4937  0.3460
   46MOL    H61 5551   1.250   0.389   7.512  0.2881 -1.8437 -0.9914
   46MOL    C62 5552   1.273   0.179   7.553  0.6057 -0.6016  0.5527
   46MOL    F63 5553   1.168   0.136   7.483  0.6201  0.1672  0.1158
   46MOL    F64 5554   1.377   0.187   7.472  0.1406 -0.1470 -0.2440
   46MOL    C65 5555   1.282   0.065   7.659 -0.0586 -0.9717  1.2971
   46MOL    H66 5556   1.293   8.320   7.607  0.2875 -0.3020  0.1256
   46MOL    H67 5557   1.183   0.063   7.704  0.3819  2.4939  2.5780
   46MOL    C68 5558   1.398   0.073   7.759 -0.9239 -0.5796 -0.2930
   46MOL    F69 5559   1.517   0.072   7.702  0.3270 -0.5558  0.3314
   46MOL    F70 5560   1.383   0.191   7.816 -0.5486 -0.0152 -0.1889
   46MOL    C71 5561   1.397   8.301   7.854 -0.5382  0.1281 -0.4270
   46MOL    H72 5562   1.429   8.209   7.805 -1.1992 -0.9264  1.0765
   46MOL    H73 5563   1.293   8.280   7.877 -0.3812  1.2905  1.4075
   46MOL    C74 5564   1.483   8.313   7.987 -0.5077 -0.0784 -0.2560
   46MOL    F75 5565   1.443   0.070   8.048  0.0790  0.1627  0.0623
   46MOL    F76 5566   1.450   8.209   8.072  0.2010 -0.1175 -0.4225
   46MOL    C77 5567   1.632   8.331   7.956  0.0518  0.4667 -0.2321
   46MOL    H78 5568   1.687   0.022   8.041 -0.1021 -1.4701  0.8301
   46MOL    H79 5569   1.644   0.053   7.875  0.4880  1.9714  1.1171
   46MOL    C80 5570   1.703   8.204   7.905  0.2748  0.4746  0.4653
   46MOL    F81 5571   1.682   8.107   7.992 -0.2001  0.0097 -0.1359
   46MOL    F82 5572   1.655   8.166   7.788 -0.6420 -0.2330  0.1259
   46MOL    C83 5573   1.850   8.225   7.892 -0.2913  0.0362  0.3324
   46MOL    H84 5574   1.883   8.263   7.989  0.3740 -0.2844  0.2356
   46MOL    H85 5575   1.886   8.304   7.827 -0.6376 -1.1205 -1.3007
   46MOL    C86 5576   1.936   8.098   7.846  0.2887  0.2607  0.8588
   46MOL    F87 5577   1.883   8.057   7.728 -0.1568 -0.8204  0.6428
   46MOL    F88 5578   2.053   8.150   7.826  0.3553  0.5420  0.6005
   46MOL    C89 5579   1.957   7.978   7.940  0.4033 -0.0211  0.1004
   46MOL    H90 5580   1.879   7.904   7.956  2.0376 -1.7944 -0.0239
   46MOL    H91 5581   1.966   8.023   8.039  0.8707 -0.4133  0.2356
   46MOL    C92 5582   2.082   7.892   7.926 -0.0356 -0.3206  0.2852
   46MOL    F93 5583   2.184   7.962   7.970 -0.4724  0.0752  0.4529
   46MOL    F94 5584   2.063   7.798   8.021 -0.5795  0.2512  0.8020
   46MOL    C95 5585   2.098   7.822   7.786  0.4219 -0.1650 -0.0369
   46MOL    H96 5586   2.077   7.897   7.710  2.2620 -0.1954 -0.5859
   46MOL    H97 5587   2.012   7.756   7.771 -1.4735  2.4246 -1.0048
   46MOL    C98 5588   2.232   7.755   7.772 -0.3434 -0.1781 -0.2918
   46MOL    F99 5589   2.256   7.674   7.875 -0.0431 -0.1426 -0.4392
   46MOL   F100 5590   2.217   7.664   7.672 -0.0672 -0.4937  0.0659
   46MOL   C101 5591   2.354   7.845   7.762 -0.3260 -0.8916  0.5361
   46MOL   H102 5592   2.372   7.902   7.854 -0.3187 -3.4057  2.1304
   46MOL   H103 5593   2.330   7.921   7.688 -0.0907 -0.9219  0.4297
   46MOL   C104 5594   2.476   7.756   7.735 -0.1387 -0.1514  0.5102
   46MOL   F105 5595   2.512   7.690   7.852  0.7843 -0.4038 -0.0997
   46MOL   F106 5596   2.472   7.662   7.636  0.2461  0.1605 -0.0757
   46MOL   C107 5597   2.608   7.842   7.712  0.1258 -0.0581  0.4265
   46MOL   H108 5598   2.691   7.774   7.733  0.2468 -0.4001 -1.0801
   46MOL   H109 5599   2.612   7.924   7.784 -2.1303  2.1164 -1.8333
   46MOL   C110 5600   2.631   7.900   7.569 -0.1011  0.6015  0.2262
   46MOL   F111 5601   2.659   7.790   7.492 -0.0505  0.4937 -0.2077
   46MOL   F112 5602   2.532   7.968   7.513  0.2422 -0.3556  0.1003
   46MOL   C113 5603   2.760   7.985   7.561 -0.7314 -0.1336 -0.6097
   46MOL   H114 5604   2.771   8.010   7.456  0.0813  3.5889  0.2782
   46MOL   H115 5605   2.843   7.920   7.587 -0.6408  0.8244  1.6436
   46MOL   C116 5606   2.765   8.122   7.644 -0.2829  0.1150 -0.6115
   46MOL   F117 5607   2.785   8.094   7.776 -0.0643 -0.5198 -0.0583
   46MOL   F118 5608   2.872   8.193   7.606 -0.4296  0.0491  0.5240
   46MOL   C119 5609   2.627   8.196   7.638  0.4283  0.0660 -0.5509
   46MOL   H120 5610   2.603   8.224   7.535 -1.6838  0.2595 -0.0229
   46MOL   H121 5611   2.617   8.277   7.710 -0.9884  0.2704 -0.9542
   46MOL   H122 5612   2.550   8.123   7.663  3.0856 -2.7260 -0.2049
   47MOL     C1 5613   5.213   5.742   2.444 -0.4695  0.1153 -0.1849
   47MOL     F2 5614   5.325   5.697   2.393 -0.2786 -0.1981 -0.3648
   47MOL     F3 5615   5.185   5.841   2.360 -0.1824  0.0428  0.2453
   47MOL     C4 5616   5.219   5.779   2.591  0.1013  0.5379 -1.2678
   47MOL     H5 5617   5.296   5.851   2.617  0.9138 -0.1958 -1.6473
   47MOL     H6 5618   5.255   5.696   2.652 -0.6370  0.8710 -0.3563
   47MOL     H7 5619   5.155   5.652   2.424  1.8081 -1.0805 -1.5528
   47MOL     C8 5620   5.077   5.827   2.644  0.1723  0.7420 -0.5763
   47MOL     F9 5621   4.994   5.731   2.602 -0.0774  0.0208  0.3748
   47MOL    F10 5622   5.083   5.815   2.778  0.3022  0.4632  0.4929
   47MOL    C11 5623   5.031   5.965   2.588 -0.2419  0.5705  0.1669
   47MOL    H12 5624   5.026   5.961   2.480 -1.0793  1.7707  0.1481
   47MOL    H13 5625   5.114   6.032   2.610  1.5038 -1.1310 -1.1255
   47MOL    C14 5626   4.906   6.030   2.649 -0.0941  0.9900  0.2284
   47MOL    F15 5627   4.937   6.069   2.777  0.1992  0.0646  0.3156
   47MOL    F16 5628   4.895   6.145   2.583 -0.0123 -0.3634  0.2097
   47MOL    C17 5629   4.781   5.939   2.642 -0.0879 -0.1301  0.1792
   47MOL    H18 5630   4.804   5.840   2.682  0.3209  0.0692  0.4389
   47MOL    H19 5631   4.757   5.916   2.538 -0.9258 -1.2347  0.6016
   47MOL    C20 5632   4.650   5.997   2.704 -0.2014  0.2419  0.6440
   47MOL    F21 5633   4.660   6.020   2.829  0.1031 -0.0998 -0.1643
   47MOL    F22 5634   4.636   6.114   2.646 -0.7367 -0.5699 -0.0853
   47MOL    C23 5635   4.530   5.897   2.677  0.2096  0.1407  0.3829
   47MOL    H24 5636   4.555   5.798   2.715  1.5900  0.2305 -0.2633
   47MOL    H25 5637   4.514   5.875   2.571  0.3162  0.3631  0.3189
   47MOL    C26 5638   4.397   5.918   2.755  0.1707 -0.5038 -0.0932
   47MOL    F27 5639   4.302   5.828   2.706 -0.1904 -0.1252 -0.4826
   47MOL    F28 5640   4.430   5.889   2.885 -0.0230  0.1041  0.1162
   47MOL    C29 5641   4.351   6.066   2.748  1.0147 -0.0506  0.6558
   47MOL    H30 5642   4.437   6.127   2.774  2.1292 -1.4098  0.2203
   47MOL    H31 5643   4.280   6.093   2.826  0.3331 -0.1079  0.0656
   47MOL    C32 5644   4.317   6.127   2.608  0.0954  0.1006  0.5466
   47MOL    F33 5645   4.420   6.116   2.527  0.0596  0.1936 -0.4441
   47MOL    F34 5646   4.224   6.052   2.556 -0.2327 -0.6879  0.3012
   47MOL    C35 5647   4.258   6.272   2.618 -0.0692  0.2052  0.2511
   47MOL    H36 5648   4.331   6.332   2.672  0.1701 -1.7370  2.1976
   47MOL    H37 5649   4.163   6.277   2.670  0.2576 -0.5606  0.9388
   47MOL    C38 5650   4.245   6.332   2.486  0.0833  0.2489 -0.6581
   47MOL    F39 5651   4.363   6.363   2.437 -0.2100  0.1374  0.1640
   47MOL    F40 5652   4.182   6.258   2.396  0.4077  0.3004 -0.1841
   47MOL    C41 5653   4.182   6.467   2.478  0.3232 -0.4927 -0.2504
   47MOL    H42 5654   4.194   6.505   2.377 -0.2254  0.3708  0.0047
   47MOL    H43 5655   4.224   6.541   2.546  0.0937  0.2941 -0.9560
   47MOL    C44 5656   4.025   6.460   2.515 -0.5065 -0.2856 -0.6101
   47MOL    F45 5657   3.964   6.380   2.435  0.2119 -0.5394 -0.1742
   47MOL    F46 5658   4.000   6.419   2.639 -0.2114  0.2046 -0.2774
   47MOL    C47 5659   3.960   6.600   2.492  0.1399  0.0418  0.7623
   47MOL    H48 5660   3.979   6.646   2.395  1.0923 -1.5396  0.1832
   47MOL    H49 5661   4.007   6.679   2.551  0.5987 -0.0116  0.4675
   47MOL    C50 5662   3.808   6.605   2.516  0.3015  0.8341 -0.5284
   47MOL    F51 5663   3.745   6.528   2.428 -0.5746 -0.4097  0.0311
   47MOL    F52 5664   3.770   6.567   2.638  0.2273 -0.0935  0.0435
   47MOL    C53 5665   3.746   6.740   2.478 -0.2093  0.5110  0.0907
   47MOL    H54 5666   3.644   6.722   2.512  1.3882 -2.1495  3.6320
   47MOL    H55 5667   3.751   6.759   2.370  1.0001 -1.2551 -0.1747
   47MOL    C56 5668   3.797   6.866   2.554  0.3890  0.2961 -0.2442
   47MOL    F57 5669   3.812   6.827   2.684  0.2021  0.0071  0.5770
   47MOL    F58 5670   3.916   6.911   2.513 -0.5235 -0.1854 -0.3151
   47MOL    C59 5671   3.688   6.980   2.550 -0.1809 -0.5554  0.9035
   47MOL    H60 5672   3.707   7.056   2.626 -2.7513  0.8168  0.2157
   47MOL    H61 5673   3.596   6.938   2.589  0.0470 -0.4701  1.5422
   47MOL    C62 5674   3.672   7.029   2.406  0.0563 -1.0049 -0.2568
   47MOL    F63 5675   3.789   7.069   2.358 -0.7107  0.2775 -0.1272
   47MOL    F64 5676   3.627   6.946   2.317 -0.0193  0.4946 -0.1189
   47MOL    C65 5677   3.580   7.155   2.398 -0.2951  1.1263  0.2403
   47MOL    H66 5678   3.568   7.174   2.291  2.0434 -0.4905 -0.3442
   47MOL    H67 5679   3.642   7.238   2.430  2.7797 -0.5506 -1.1467
   47MOL    C68 5680   3.444   7.140   2.475  0.4659 -0.2230  0.8182
   47MOL    F69 5681   3.385   7.033   2.431 -0.1678 -0.1887  0.7069
   47MOL    F70 5682   3.466   7.139   2.603  0.2435 -0.3369 -0.2248
   47MOL    C71 5683   3.346   7.260   2.434  0.0136 -0.1380 -0.1214
   47MOL    H72 5684   3.332   7.261   2.326  1.2108  0.2791 -0.2791
   47MOL    H73 5685   3.389   7.355   2.465 -1.7844  0.9948 -1.0377
   47MOL    C74 5686   3.204   7.261   2.500 -0.3625 -0.5493  0.1844
   47MOL    F75 5687   3.141   7.149   2.468 -0.2996  0.2191  0.1846
   47MOL    F76 5688   3.213   7.271   2.639  0.1325  0.1155 -0.3823
   47MOL    C77 5689   3.104   7.369   2.435 -0.3831 -0.0206 -0.0516
   47MOL    H78 5690   3.009   7.360   2.488  1.3265 -0.6917  3.0743
   47MOL    H79 5691   3.082   7.362   2.329  0.1190  1.4983 -0.2752
   47MOL    C80 5692   3.155   7.509   2.462 -0.0522  0.5220  0.1085
   47MOL    F81 5693   3.185   7.538   2.588 -0.0426 -0.3604  0.2223
   47MOL    F82 5694   3.263   7.523   2.378  0.4273 -0.2321 -0.2040
   47MOL    C83 5695   3.059   7.614   2.419  0.5973 -0.0733  1.4710
   47MOL    H84 5696   2.962   7.607   2.469 -0.9572  1.0120 -1.2783
   47MOL    H85 5697   3.025   7.591   2.318  0.9028 -1.3606  1.6500
   47MOL    C86 5698   3.103   7.763   2.435 -0.2932 -0.5788  0.4504
   47MOL    F87 5699   3.224   7.782   2.376  0.0222  0.7907  0.7098
   47MOL    F88 5700   3.015   7.838   2.365 -0.2995 -0.2871 -0.3504
   47MOL    C89 5701   3.102   7.824   2.582 -0.4215 -0.6632  0.4511
   47MOL    H90 5702   3.179   7.780   2.645  1.5577  1.0741 -0.6854
   47MOL    H91 5703   3.007   7.801   2.628 -0.0617 -0.8308  1.1185
   47MOL    C92 5704   3.117   7.974   2.592 -0.0180  0.4595 -0.8232
   47MOL    F93 5705   3.044   8.044   2.503  0.3315 -0.2698  0.2737
   47MOL    F94 5706   3.085   8.010   2.712  0.1701 -0.0389  0.4550
   47MOL    C95 5707   3.260   8.010   2.559 -0.2181  0.1421  0.1742
   47MOL    H96 5708   3.286   7.978   2.458 -1.2072 -1.4108  0.4059
   47MOL    H97 5709   3.330   7.948   2.616 -1.3589  1.0632  2.6483
   47MOL    C98 5710   3.302   8.150   2.571 -0.7170  0.2093 -0.2203
   47MOL    F99 5711   3.280   8.200   2.687 -0.1582 -0.5223 -0.8080
   47MOL   F100 5712   3.431   8.152   2.554  0.5653 -0.0865  0.3474
   47MOL   C101 5713   3.234   8.247   2.468  1.2870  0.2676  0.4161
   47MOL   H102 5714   3.138   8.283   2.504  1.9143  2.1869  0.2278
   47MOL   H103 5715   3.215   8.200   2.372 -0.8253  1.6072  0.1534
   47MOL   C104 5716   3.310   0.029   2.443  0.0027 -0.3245 -0.7869
   47MOL   F105 5717   3.344   0.080   2.561 -0.0745  0.2941  0.9283
   47MOL   F106 5718   3.422   0.005   2.372 -0.9317  0.4892 -0.2510
   47MOL   C107 5719   3.224   0.131   2.356  0.2928  0.4824 -0.2568
   47MOL   H108 5720   3.128   0.162   2.397  0.0596  0.1399 -0.5372
   47MOL   H109 5721   3.191   0.087   2.262  1.1180 -0.0280 -0.3155
   47MOL   C110 5722   3.286   0.266   2.323 -0.3773  0.5054 -0.2017
   47MOL   F111 5723   3.338   0.315   2.437 -0.0058 -0.8643 -0.4067
   47MOL   F112 5724   3.387   0.231   2.238 -0.0638 -0.1249 -0.2919
   47MOL   C113 5725   3.186   0.357   2.256 -0.3741  0.5007 -0.3012
   47MOL   H114 5726   3.127   0.397   2.339  0.5670  2.5916 -0.6027
   47MOL   H115 5727   3.131   0.294   2.186  1.0451 -1.9368  0.7154
   47MOL   C116 5728   3.234   0.481   2.173  0.4246 -0.6704  0.3433
   47MOL   F117 5729   3.326   0.551   2.240  0.2148 -0.1516  0.2902
   47MOL   F118 5730   3.298   0.438   2.069 -0.0139 -0.1882  0.5756
   47MOL   C119 5731   3.118   0.582   2.139 -0.1891  0.6051  0.1222
   47MOL   H120 5732   3.024   0.530   2.124  0.2769  0.1396 -1.3035
   47MOL   H121 5733   3.123   0.640   2.047  0.5110  1.1334  0.4874
   47MOL   H122 5734   3.118   0.651   2.223 -0.5013 -1.4008  1.8144
   48MOL     C1 5735   7.787   8.070   7.112  0.0914  0.9181 -0.3109
   48MOL     F2 5736   7.753   8.196   7.126  0.0963  0.4532 -0.0928
   48MOL     F3 5737   7.782   8.039   6.978 -0.0216 -0.0574  0.0747
   48MOL     C4 5738   7.688   7.983   7.202 -0.4932  0.8066  0.1272
   48MOL     H5 5739   7.589   7.975   7.156 -1.9656  1.6266  2.9939
   48MOL     H6 5740   7.668   8.037   7.295 -2.4810  1.0260 -0.3990
   48MOL     H7 5741   7.892   8.066   7.141  0.4300 -0.4584 -1.6600
   48MOL     C8 5742   7.740   7.840   7.224 -0.6167  0.2572  0.5988
   48MOL     F9 5743   7.773   7.786   7.108  0.3372 -0.7363 -0.1648
   48MOL    F10 5744   7.848   7.849   7.297 -0.1051  0.3690  0.3499
   48MOL    C11 5745   7.636   7.750   7.301 -0.8623 -0.2729 -0.3422
   48MOL    H12 5746   7.549   7.737   7.237 -1.0043 -1.9423  0.1814
   48MOL    H13 5747   7.598   7.810   7.384 -1.1422 -1.5785  0.4692
   48MOL    C14 5748   7.687   7.611   7.337 -0.1014  0.0900 -0.6617
   48MOL    F15 5749   7.725   7.559   7.222 -0.0870  0.5873  0.0913
   48MOL    F16 5750   7.788   7.609   7.419  0.6338  0.3110  0.7258
   48MOL    C17 5751   7.587   7.517   7.401  0.1450 -0.4535 -0.2732
   48MOL    H18 5752   7.492   7.523   7.347  1.0604  0.0899 -1.8451
   48MOL    H19 5753   7.577   7.545   7.506  1.6807 -2.1154  0.3344
   48MOL    C20 5754   7.627   7.372   7.396  0.0588 -0.5413  0.9690
   48MOL    F21 5755   7.644   7.332   7.272 -0.1256  0.1503 -0.0993
   48MOL    F22 5756   7.736   7.355   7.458 -0.4309  0.2292 -0.3884
   48MOL    C23 5757   7.512   7.280   7.455  0.2358  0.0064  0.3292
   48MOL    H24 5758   7.416   7.312   7.414  0.8965  1.1975 -0.3187
   48MOL    H25 5759   7.505   7.300   7.562  1.7892 -0.8170  0.6060
   48MOL    C26 5760   7.530   7.124   7.438 -0.0156  0.4093 -0.5693
   48MOL    F27 5761   7.527   7.077   7.316  0.1467  0.3962 -0.5595
   48MOL    F28 5762   7.646   7.097   7.488 -0.0269 -0.0188  0.0397
   48MOL    C29 5763   7.428   7.044   7.521  0.6111  0.0548  0.3993
   48MOL    H30 5764   7.425   7.083   7.623 -0.4411  0.9747  0.0287
   48MOL    H31 5765   7.464   6.941   7.523  0.0942 -0.2229 -2.5107
   48MOL    C32 5766   7.287   7.030   7.469  0.7047  0.3721  0.2130
   48MOL    F33 5767   7.227   7.150   7.449 -0.0401 -0.1010 -0.3112
   48MOL    F34 5768   7.283   6.955   7.357 -0.2243  0.7969  0.2247
   48MOL    C35 5769   7.188   6.949   7.561  0.0153 -0.0175  0.6890
   48MOL    H36 5770   7.221   6.845   7.562  0.4063  0.0952  0.0073
   48MOL    H37 5771   7.090   6.953   7.513  0.2188  0.4807  0.3031
   48MOL    C38 5772   7.166   7.000   7.704  0.1893 -0.4194 -0.5265
   48MOL    F39 5773   7.284   6.979   7.768 -0.0527 -0.4350 -0.2818
   48MOL    F40 5774   7.155   7.134   7.698  0.4812 -0.1309  0.2361
   48MOL    C41 5775   7.056   6.946   7.794  0.5497 -0.0150  0.3152
   48MOL    H42 5776   7.050   6.987   7.895  0.1987  0.6867  0.0138
   48MOL    H43 5777   7.077   6.841   7.812  0.3227 -0.3497 -1.2647
   48MOL    C44 5778   6.912   6.952   7.742  0.6843  0.2448 -0.4283
   48MOL    F45 5779   6.877   7.074   7.716 -0.1594 -0.2337 -0.3673
   48MOL    F46 5780   6.909   6.876   7.629  0.0481 -0.0533 -0.3466
   48MOL    C47 5781   6.819   6.901   7.848 -0.4420  0.0549  0.3521
   48MOL    H48 5782   6.829   6.969   7.932 -0.6510  0.3696  0.1241
   48MOL    H49 5783   6.864   6.811   7.890  0.6056  0.4678  0.1208
   48MOL    C50 5784   6.664   6.885   7.815  0.7585  0.5170 -0.3149
   48MOL    F51 5785   6.651   6.777   7.743  0.0521  0.2887 -0.2856
   48MOL    F52 5786   6.598   6.861   7.932  0.2000 -0.1492  0.0972
   48MOL    C53 5787   6.599   7.002   7.742 -0.0813  0.2089 -0.4745
   48MOL    H54 5788   6.654   7.047   7.659 -0.6227 -0.6185 -1.2894
   48MOL    H55 5789   6.593   7.081   7.817 -0.4576  0.4080 -0.7151
   48MOL    C56 5790   6.461   6.978   7.686 -0.4248 -0.2744 -0.4715
   48MOL    F57 5791   6.405   7.083   7.629 -0.3859  0.8421  0.3301
   48MOL    F58 5792   6.467   6.887   7.580 -0.0652 -0.6019 -0.1117
   48MOL    C59 5793   6.359   6.916   7.784 -1.2588  0.2655  0.7037
   48MOL    H60 5794   6.383   6.822   7.834 -1.1769 -0.3334 -0.4367
   48MOL    H61 5795   6.274   6.879   7.726 -1.0527  0.0307  0.5494
   48MOL    C62 5796   6.303   6.998   7.902  0.1536  0.3338 -0.7095
   48MOL    F63 5797   6.223   6.920   7.977 -0.0439  0.0005 -0.3142
   48MOL    F64 5798   6.402   7.028   7.985  0.0192 -0.2028  0.2392
   48MOL    C65 5799   6.217   7.131   7.870  0.3911 -0.2914 -0.2087
   48MOL    H66 5800   6.138   7.098   7.801  1.3602 -1.1485 -0.9184
   48MOL    H67 5801   6.262   7.196   7.794 -1.4819  0.6840 -0.5230
   48MOL    C68 5802   6.163   7.220   7.990  0.6771  0.3535 -0.0801
   48MOL    F69 5803   6.067   7.295   7.942  0.2836  0.1520  0.2347
   48MOL    F70 5804   6.105   7.139   8.076  0.4381 -0.2420 -0.2400
   48MOL    C71 5805   6.265   7.316   8.065  0.8713  0.0708  0.2098
   48MOL    H72 5806   6.320   7.271   8.148  1.6838 -2.9907 -1.8781
   48MOL    H73 5807   6.204   7.397   8.104  0.4839 -1.0461  2.0086
   48MOL    C74 5808   6.358   7.399   7.977 -0.0192 -0.7325 -0.0175
   48MOL    F75 5809   6.458   7.320   7.941  0.3253  0.2233 -0.3048
   48MOL    F76 5810   6.295   7.448   7.865 -0.5295  0.5239 -0.5270
   48MOL    C77 5811   6.418   7.525   8.044  0.3790 -0.1849  0.1917
   48MOL    H78 5812   6.487   7.560   7.968 -0.7297  2.5971  0.3967
   48MOL    H79 5813   6.476   7.497   8.132  0.6400 -1.0145 -0.2408
   48MOL    C80 5814   6.307   7.637   8.074  0.3923  0.6591 -0.3899
   48MOL    F81 5815   6.211   7.635   7.980  0.3670  0.0039  0.2901
   48MOL    F82 5816   6.253   7.617   8.190 -0.0452 -0.4474  0.4027
   48MOL    C83 5817   6.371   7.776   8.088  0.3980  0.3831 -0.0336
   48MOL    H84 5818   6.437   7.785   8.173  2.2591  1.6473 -1.5719
   48MOL    H85 5819   6.289   7.841   8.118  0.1883 -0.4438  1.2126
   48MOL    C86 5820   6.441   7.831   7.965  0.2675  0.7017 -0.4452
   48MOL    F87 5821   6.571   7.795   7.949  0.4919  0.2578 -0.1288
   48MOL    F88 5822   6.377   7.797   7.856 -0.0721  0.3009 -0.0135
   48MOL    C89 5823   6.439   7.985   7.967  0.2975  0.8320 -0.2271
   48MOL    H90 5824   6.333   8.009   7.959 -0.0921 -0.7315  0.1248
   48MOL    H91 5825   6.473   8.010   7.866  0.1145  2.0059 -0.0069
   48MOL    C92 5826   6.513   8.046   8.082  0.2602  0.3659 -0.7427
   48MOL    F93 5827   6.456   8.014   8.200  0.4310  0.0084 -0.2807
   48MOL    F94 5828   6.636   7.990   8.094  0.5960 -0.2204  1.0105
   48MOL    C95 5829   6.531   8.191   8.068  0.6034 -0.2482  0.4300
   48MOL    H96 5830   6.436   8.243   8.056  1.1515  0.3637 -1.4026
   48MOL    H97 5831   6.571   8.212   7.969 -0.9992 -0.9631 -0.3913
   48MOL    C98 5832   6.622   8.268   8.171  0.3122 -0.6118 -0.6117
   48MOL    F99 5833   6.752   8.248   8.138  0.1105 -0.0175 -0.3165
   48MOL   F100 5834   6.605   0.051   8.153  0.1643 -0.4641 -0.2617
   48MOL   C101 5835   6.594   8.244   8.321 -0.9525 -0.1819  0.2339
   48MOL   H102 5836   6.627   8.142   8.340  0.7983  0.5414  1.2440
   48MOL   H103 5837   6.486   8.234   8.325 -0.7537 -1.7877  3.3289
   48MOL   C104 5838   6.652   0.004   0.065 -0.4693  0.2904 -0.1904
   48MOL   F105 5839   6.773   0.032   0.030  0.5376  0.4299  0.0153
   48MOL   F106 5840   6.590   0.122   0.076  0.2415 -0.2595 -0.3636
   48MOL   C107 5841   6.656   8.295   0.208  0.6585  0.4893  0.1220
   48MOL   H108 5842   6.699   8.195   0.210 -0.8036 -0.1943 -1.3372
   48MOL   H109 5843   6.552   8.279   0.236 -0.0016  1.7587 -1.5042
   48MOL   C110 5844   6.717   0.031   0.324  0.0600 -0.6659  0.3802
   48MOL   F111 5845   6.642   0.145   0.318 -0.4449  0.2316 -0.3646
   48MOL   F112 5846   6.696   8.312   0.432  0.3035 -0.4105 -0.6420
   48MOL   C113 5847   6.872   0.074   0.306 -0.1728  0.4820  0.6687
   48MOL   H114 5848   6.900   0.136   0.391  1.4562 -0.3083  0.7310
   48MOL   H115 5849   6.876   0.141   0.220 -0.4817 -2.8108 -2.0123
   48MOL   C116 5850   6.971   8.309   0.296  0.6523  0.0003  0.4145
   48MOL   F117 5851   6.943   8.216   0.383 -0.2289 -0.3812 -0.1241
   48MOL   F118 5852   6.969   8.242   0.178  0.5045  0.1043 -0.2530
   48MOL   C119 5853   7.121   0.001   0.303 -0.2714 -0.4498  0.0804
   48MOL   H120 5854   7.199   8.274   0.294  1.1904  0.8581  1.2104
   48MOL   H121 5855   7.147   0.044   0.400 -1.3051 -0.0470  0.1856
   48MOL   H122 5856   7.141   0.080   0.231 -1.0905  0.7639  1.1719
   49MOL     C1 5857   1.442   5.355   2.689  0.6722 -0.2743  0.2325
   49MOL     F2 5858   1.335   5.289   2.663 -0.3358 -0.2263  0.4772
   49MOL     F3 5859   1.440   5.389   2.818  0.2074 -0.1957  0.4124
   49MOL     C4 5860   1.449   5.473   2.592 -0.4778  0.1400 -1.3600
   49MOL     H5 5861   1.371   5.544   2.620 -0.1899 -0.3858  0.8367
   49MOL     H6 5862   1.407   5.431   2.500  0.4781 -0.7486 -1.4006
   49MOL     H7 5863   1.530   5.292   2.679  0.6361 -0.3311  0.2686
   49MOL     C8 5864   1.591   5.538   2.577  0.3613  0.0975  0.2057
   49MOL     F9 5865   1.622   5.577   2.697 -0.3993 -0.5635 -0.4215
   49MOL    F10 5866   1.685   5.450   2.546 -0.2955 -0.1750 -0.1437
   49MOL    C11 5867   1.602   5.662   2.479 -0.0538 -0.1565  0.6555
   49MOL    H12 5868   1.707   5.693   2.485 -0.5504  1.5408  0.8217
   49MOL    H13 5869   1.547   5.748   2.517  0.9484  1.0302 -0.5371
   49MOL    C14 5870   1.575   5.624   2.337  0.4666 -0.1286  0.0262
   49MOL    F15 5871   1.648   5.515   2.306  0.7041  0.5535  0.1610
   49MOL    F16 5872   1.446   5.590   2.330 -0.2018  0.2142 -0.0473
   49MOL    C17 5873   1.613   5.738   2.248  0.1327  0.3943 -0.7229
   49MOL    H18 5874   1.590   5.708   2.146 -0.2638  1.1901 -0.8754
   49MOL    H19 5875   1.720   5.761   2.243 -0.2593  2.2404 -1.0327
   49MOL    C20 5876   1.549   5.877   2.276  0.4187  0.2915  0.8914
   49MOL    F21 5877   1.612   5.933   2.373 -0.3110  0.0248 -0.4511
   49MOL    F22 5878   1.565   5.943   2.160  0.5413 -0.5409  0.5931
   49MOL    C23 5879   1.391   5.873   2.295 -0.8487  0.8286  0.0501
   49MOL    H24 5880   1.382   5.824   2.392  1.5209  0.3682  0.0783
   49MOL    H25 5881   1.346   5.816   2.215 -3.0937  0.0375  1.8397
   49MOL    C26 5882   1.320   6.011   2.301 -0.8359 -1.0799  0.0496
   49MOL    F27 5883   1.366   6.071   2.410  0.0076 -0.1729  0.3484
   49MOL    F28 5884   1.369   6.077   2.192 -0.0648  0.1240  0.1354
   49MOL    C29 5885   1.163   5.996   2.296 -0.5606 -0.5681  0.3677
   49MOL    H30 5886   1.126   5.951   2.389 -2.6988  0.5475  0.0828
   49MOL    H31 5887   1.128   5.930   2.217  0.9614  0.4860 -1.2288
   49MOL    C32 5888   1.088   6.127   2.270  0.4397  0.6311  0.1595
   49MOL    F33 5889   1.139   6.176   2.155  0.2318 -0.5134 -0.0968
   49MOL    F34 5890   0.963   6.082   2.267 -0.3289 -0.4497  0.4196
   49MOL    C35 5891   1.103   6.229   2.380 -0.5317 -0.3887 -0.3431
   49MOL    H36 5892   1.209   6.251   2.394 -0.6690  0.5694 -0.8384
   49MOL    H37 5893   1.068   6.186   2.474  2.4254  2.5881  2.2601
   49MOL    C38 5894   1.033   6.366   2.370  0.0957 -0.4093 -0.1789
   49MOL    F39 5895   0.910   6.342   2.414 -0.0442  0.2583  0.6170
   49MOL    F40 5896   1.093   6.456   2.449  0.0578 -0.5191 -0.4756
   49MOL    C41 5897   1.016   6.422   2.228  0.1418  0.2687  0.1869
   49MOL    H42 5898   0.956   6.348   2.175 -0.0603  0.7071 -0.1998
   49MOL    H43 5899   1.109   6.420   2.172  1.7081  0.1012  2.7193
   49MOL    C44 5900   0.940   6.550   2.218 -0.6110  0.4608  0.0225
   49MOL    F45 5901   0.808   6.554   2.256  0.3303 -0.3920  0.2291
   49MOL    F46 5902   1.003   6.633   2.298 -0.6493 -0.0735  0.5357
   49MOL    C47 5903   0.946   6.608   2.080  0.0875  0.4193  0.3099
   49MOL    H48 5904   0.924   6.534   2.003  2.0563 -1.1185  1.1931
   49MOL    H49 5905   1.051   6.628   2.060  0.6118 -0.8764  1.7322
   49MOL    C50 5906   0.855   6.744   2.062  0.2490 -0.2498  0.3610
   49MOL    F51 5907   0.865   6.782   1.933  0.0883  0.0014  0.1000
   49MOL    F52 5908   0.722   6.722   2.080 -0.4080  0.2792 -0.0309
   49MOL    C53 5909   0.899   6.851   2.156  0.9359  0.1900 -0.1707
   49MOL    H54 5910   1.004   6.865   2.132  0.6326  1.9918 -0.4953
   49MOL    H55 5911   0.905   6.827   2.262  0.8508  2.2709  0.3089
   49MOL    C56 5912   0.828   6.991   2.140  0.3628  0.4851  1.3829
   49MOL    F57 5913   0.827   7.029   2.013  0.3056  0.5867  0.5517
   49MOL    F58 5914   0.701   6.982   2.173  0.2947 -0.2431  0.2877
   49MOL    C59 5915   0.890   7.097   2.240 -0.0729 -0.0296  0.1822
   49MOL    H60 5916   0.987   7.130   2.203 -0.4432 -0.8497 -1.5852
   49MOL    H61 5917   0.918   7.036   2.326 -1.8339  1.4967  1.8568
   49MOL    C62 5918   0.821   7.226   2.266  0.6651 -0.1077 -0.2121
   49MOL    F63 5919   0.913   7.284   2.345  0.4026 -0.1860  0.4753
   49MOL    F64 5920   0.809   7.290   2.147  0.1588  0.0720 -0.0783
   49MOL    C65 5921   0.692   7.226   2.352  0.7773  0.3177  0.3292
   49MOL    H66 5922   0.715   7.174   2.445  0.9555 -0.8420 -0.3420
   49MOL    H67 5923   0.618   7.166   2.298 -0.5785  3.1414 -1.0711
   49MOL    C68 5924   0.653   7.366   2.400 -0.3119  0.6299  0.2285
   49MOL    F69 5925   0.753   7.436   2.460  0.1617 -0.0384  0.6029
   49MOL    F70 5926   0.626   7.432   2.289 -0.0380 -0.2037  0.1973
   49MOL    C71 5927   0.530   7.368   2.486 -0.2787 -0.3827  0.4494
   49MOL    H72 5928   0.444   7.354   2.421 -0.0688 -1.4454  0.3883
   49MOL    H73 5929   0.511   7.472   2.511 -1.8958 -0.1551 -1.5979
   49MOL    C74 5930   0.547   7.288   2.617  1.3592  0.9332 -0.8102
   49MOL    F75 5931   0.534   7.152   2.595  0.0729  0.3035 -0.0535
   49MOL    F76 5932   0.669   7.321   2.670  0.1925  0.9529  0.2187
   49MOL    C77 5933   0.449   7.323   2.726  0.0795 -0.5942  0.0851
   49MOL    H78 5934   0.466   7.428   2.751 -0.2304 -0.7005  0.7549
   49MOL    H79 5935   0.469   7.259   2.811  0.2823  0.0713  0.5446
   49MOL    C80 5936   0.304   7.307   2.698  0.1894  0.7525 -0.1135
   49MOL    F81 5937   0.243   7.359   2.806  0.8293 -0.0001 -0.1407
   49MOL    F82 5938   0.274   7.380   2.590 -0.0940  0.0832  0.1050
   49MOL    C83 5939   0.272   7.150   2.672 -0.1014 -0.3798 -0.4539
   49MOL    H84 5940   0.282   7.098   2.767 -0.1664  0.4115 -0.0087
   49MOL    H85 5941   0.335   7.099   2.600 -0.7514 -1.0549 -0.5530
   49MOL    C86 5942   0.123   7.125   2.633  0.2369 -0.1968  0.6199
   49MOL    F87 5943   0.088   7.011   2.682 -0.1407  0.0775 -0.7814
   49MOL    F88 5944   0.049   7.228   2.683 -0.1278  0.5405  0.0090
   49MOL    C89 5945   0.087   7.129   2.475 -0.4991  0.2585 -0.2067
   49MOL    H90 5946   0.108   7.230   2.439 -1.0018  0.8622  1.1268
   49MOL    H91 5947   8.328   7.118   2.467 -0.4517  0.3990 -1.0353
   49MOL    C92 5948   0.151   7.019   2.384  0.4070  0.2050 -0.6322
   49MOL    F93 5949   0.108   7.045   2.263 -0.5369 -0.6331  0.1278
   49MOL    F94 5950   0.281   7.037   2.379 -0.2609 -0.0587  0.2535
   49MOL    C95 5951   0.126   6.872   2.422 -0.8976  0.1604 -0.4330
   49MOL    H96 5952   0.144   6.858   2.529  1.5134 -0.8273 -0.9285
   49MOL    H97 5953   0.203   6.816   2.370 -0.0511  1.0381 -0.1207
   49MOL    C98 5954   8.332   6.818   2.379  0.3751  0.1654 -0.2739
   49MOL    F99 5955   8.233   6.883   2.447 -0.0418 -0.1523 -0.5986
   49MOL   F100 5956   8.321   6.831   2.247  0.7521  0.2671 -0.5336
   49MOL   C101 5957   8.315   6.667   2.403  0.5831 -0.3500 -0.1492
   49MOL   H102 5958   0.052   6.623   2.352  1.6509 -0.7889  1.9773
   49MOL   H103 5959   8.225   6.635   2.351 -0.0373 -0.2926  0.8656
   49MOL   C104 5960   8.291   6.614   2.542 -0.4539 -0.2355 -0.0884
   49MOL   F105 5961   0.044   6.649   2.623 -0.2065  0.1863  0.0658
   49MOL   F106 5962   8.178   6.672   2.590 -0.3394  0.0102 -0.0838
   49MOL   C107 5963   8.270   6.462   2.542 -0.3512  0.2921  0.0346
   49MOL   H108 5964   8.213   6.439   2.452  0.1762  0.8870 -0.4491
   49MOL   H109 5965   8.215   6.438   2.633 -0.5923  2.2070  0.3989
   49MOL   C110 5966   0.044   6.369   2.544 -0.0085 -0.0628 -0.6561
   49MOL   F111 5967   0.113   6.394   2.438 -0.2419  0.3024  0.5773
   49MOL   F112 5968   0.115   6.394   2.654 -0.3572  0.1152  0.1848
   49MOL   C113 5969   8.348   6.220   2.549  0.5742 -1.2041 -0.2448
   49MOL   H114 5970   8.280   6.205   2.465  0.2371 -1.5868  0.0971
   49MOL   H115 5971   8.283   6.207   2.635  0.7838 -2.3574 -0.2475
   49MOL   C116 5972   0.111   6.115   2.551 -0.2861 -0.5749  0.7610
   49MOL   F117 5973   0.186   6.128   2.658 -0.3946  0.1572 -0.3632
   49MOL   F118 5974   0.053   5.994   2.553 -0.3887  0.0058 -0.4766
   49MOL   C119 5975   0.209   6.115   2.429 -1.2263  0.2193 -1.0280
   49MOL   H120 5976   0.153   6.100   2.337 -3.5633 -1.5383  0.6190
   49MOL   H121 5977   0.272   6.027   2.441  0.2438  1.2985 -0.7087
   49MOL   H122 5978   0.276   6.200   2.429  0.9757 -1.4408  0.6911
   50MOL     C1 5979   6.003   1.900   2.424 -0.7137  0.8561  0.5385
   50MOL     F2 5980   5.936   1.789   2.442 -0.2720 -0.3342  0.4712
   50MOL     F3 5981   5.911   2.002   2.419 -0.1294 -0.0287 -0.8145
   50MOL     C4 5982   6.089   1.901   2.295 -0.1732 -0.0194 -0.2878
   50MOL     H5 5983   6.129   2.002   2.288 -4.2481  1.7694  0.9535
   50MOL     H6 5984   6.015   1.895   2.215 -1.8108  0.1906  1.1834
   50MOL     H7 5985   6.052   1.912   2.521 -1.3698 -0.5482  1.0569
   50MOL     C8 5986   6.191   1.794   2.267 -0.6094  0.0057 -0.5731
   50MOL     F9 5987   6.284   1.788   2.366 -0.0589 -0.1797 -0.1856
   50MOL    F10 5988   6.126   1.680   2.268 -0.3225  0.1404  0.0333
   50MOL    C11 5989   6.256   1.818   2.130  0.4581 -0.3740  1.0368
   50MOL    H12 5990   6.307   1.914   2.142 -0.5768  0.1912  0.9717
   50MOL    H13 5991   6.187   1.847   2.050  2.2297  1.1250 -0.0013
   50MOL    C14 5992   6.357   1.709   2.083  0.1229 -0.0079  0.9632
   50MOL    F15 5993   6.283   1.603   2.046 -0.0875 -0.1285  0.1953
   50MOL    F16 5994   6.405   1.769   1.971 -0.2326 -0.2492 -0.8017
   50MOL    C17 5995   6.470   1.661   2.181 -0.1789 -0.3350 -0.0559
   50MOL    H18 5996   6.423   1.626   2.273  0.1664 -0.3690  0.1083
   50MOL    H19 5997   6.542   1.741   2.195 -0.2098 -0.3361  0.1197
   50MOL    C20 5998   6.542   1.533   2.133  0.2445 -0.3525  0.1033
   50MOL    F21 5999   6.645   1.503   2.215  0.0060  0.5924  0.1271
   50MOL    F22 6000   6.467   1.424   2.136  0.1219 -0.0025 -0.1071
   50MOL    C23 6001   6.605   1.543   1.993 -0.5572 -0.2203  0.0058
   50MOL    H24 6002   6.657   1.637   1.976 -0.4536 -0.4495 -0.9822
   50MOL    H25 6003   6.520   1.545   1.924  1.2359 -0.2559 -2.2484
   50MOL    C26 6004   6.695   1.429   1.956 -0.1218 -0.0682 -0.0577
   50MOL    F27 6005   6.732   1.478   1.839  0.8016  0.7634  0.0474
   50MOL    F28 6006   6.800   1.416   2.043  0.3372  0.0277  0.1348
   50MOL    C29 6007   6.635   1.288   1.925  0.6219  0.4291 -0.2914
   50MOL    H30 6008   6.554   1.298   1.853 -0.8452 -2.4528  0.8708
   50MOL    H31 6009   6.580   1.253   2.012  0.9790  1.8503  0.5209
   50MOL    C32 6010   6.726   1.176   1.879 -0.4694  0.3586  0.4030
   50MOL    F33 6011   6.787   1.225   1.769  0.3433  0.8899 -0.0734
   50MOL    F34 6012   6.815   1.159   1.980 -0.2339  0.2125  0.0767
   50MOL    C35 6013   6.654   1.047   1.847  0.1822  0.0699  0.0920
   50MOL    H36 6014   6.590   1.055   1.759  1.3540  2.5630 -0.5743
   50MOL    H37 6015   6.592   1.031   1.936 -1.0038  3.4293 -0.0420
   50MOL    C38 6016   6.749   0.919   1.833  0.0061  0.1446 -0.2209
   50MOL    F39 6017   6.800   0.891   1.955 -0.1430  0.1940  0.1795
   50MOL    F40 6018   6.658   0.822   1.808  0.3005 -0.1360 -0.5570
   50MOL    C41 6019   6.853   0.920   1.718 -0.2165  0.2831  0.0520
   50MOL    H42 6020   6.915   1.006   1.742 -2.1103  1.7789 -0.3333
   50MOL    H43 6021   6.809   0.948   1.622 -0.2767 -0.1217 -0.0414
   50MOL    C44 6022   6.937   0.788   1.705 -0.3529 -0.7248  0.0590
   50MOL    F45 6023   7.015   0.772   1.812 -0.2666  0.0464  0.4406
   50MOL    F46 6024   6.852   0.682   1.687 -0.2072  0.3071 -0.4945
   50MOL    C47 6025   7.020   0.793   1.570 -0.5878  0.5661 -0.1307
   50MOL    H48 6026   6.956   0.831   1.491 -0.3392 -0.9155 -1.0747
   50MOL    H49 6027   7.052   0.691   1.547 -1.1021 -0.3217  2.8720
   50MOL    C50 6028   7.148   0.882   1.582 -1.0789  0.2301  0.5950
   50MOL    F51 6029   7.113   1.005   1.627  0.2830  0.4248 -0.2503
   50MOL    F52 6030   7.228   0.826   1.676 -0.4861  0.1265 -0.3068
   50MOL    C53 6031   7.221   0.899   1.447  0.3156 -0.1631 -0.1649
   50MOL    H54 6032   7.165   0.955   1.373 -1.0752 -0.0077  0.9831
   50MOL    H55 6033   7.247   0.801   1.405 -0.7475 -0.3185 -0.4711
   50MOL    C56 6034   7.357   0.967   1.459 -0.4032  0.3958  0.3111
   50MOL    F57 6035   7.440   0.903   1.541 -0.2987  0.0293  0.0020
   50MOL    F58 6036   7.408   0.953   1.333 -0.6944 -0.7813  0.7017
   50MOL    C59 6037   7.349   1.120   1.478 -0.0712 -0.6132 -0.4539
   50MOL    H60 6038   7.311   1.142   1.578  0.3925  0.2194 -0.4537
   50MOL    H61 6039   7.282   1.160   1.402 -0.2400 -1.1243 -0.5733
   50MOL    C62 6040   7.482   1.196   1.474  0.0309 -0.2870 -0.0835
   50MOL    F63 6041   7.529   1.184   1.347 -0.2159 -0.2845  0.0764
   50MOL    F64 6042   7.455   1.326   1.500 -0.4953  0.0111 -0.3667
   50MOL    C65 6043   7.582   1.144   1.581  0.0307  0.3622  0.1871
   50MOL    H66 6044   7.601   1.044   1.542 -2.2363  0.0193 -0.0934
   50MOL    H67 6045   7.530   1.144   1.677  0.1857 -3.1477  0.3446
   50MOL    C68 6046   7.707   1.232   1.601  0.2840 -0.0256  0.4276
   50MOL    F69 6047   7.754   1.265   1.481  0.4156 -0.1268 -0.0489
   50MOL    F70 6048   7.676   1.345   1.658  0.3926 -0.2469 -0.4166
   50MOL    C71 6049   7.817   1.168   1.684  0.2730  0.0268 -0.4935
   50MOL    H72 6050   7.900   1.238   1.676 -0.0680  0.3783 -0.9354
   50MOL    H73 6051   7.859   1.080   1.635  0.6149 -0.9125  1.4168
   50MOL    C74 6052   7.784   1.124   1.827 -0.7658  0.4795 -0.0277
   50MOL    F75 6053   7.722   1.219   1.896 -0.0637 -0.2989 -0.1172
   50MOL    F76 6054   7.702   1.018   1.828  0.0824 -0.0527 -0.0385
   50MOL    C77 6055   7.909   1.071   1.911  0.8930 -0.0239  0.2865
   50MOL    H78 6056   7.980   1.154   1.915 -0.2746  0.9879  0.1637
   50MOL    H79 6057   7.963   0.993   1.858  0.9211 -0.4998  1.0040
   50MOL    C80 6058   7.895   1.017   2.053  0.8418 -0.8382 -0.1119
   50MOL    F81 6059   7.809   0.913   2.059 -0.5066 -0.3823  0.7015
   50MOL    F82 6060   8.006   0.966   2.095  0.3814  0.0508 -0.1211
   50MOL    C83 6061   7.855   1.130   2.151  0.0050 -0.4492  0.7833
   50MOL    H84 6062   7.752   1.155   2.127  0.4536 -0.7974 -1.5577
   50MOL    H85 6063   7.914   1.222   2.149  1.3628 -1.2460  2.4931
   50MOL    C86 6064   7.846   1.097   2.297 -0.4393  0.2770 -0.1889
   50MOL    F87 6065   7.752   1.008   2.332  0.4410 -0.5768 -0.1905
   50MOL    F88 6066   7.963   1.058   2.339 -0.1155 -0.0885  0.0548
   50MOL    C89 6067   7.810   1.227   2.369  0.0960 -0.1540 -0.6157
   50MOL    H90 6068   7.873   1.312   2.344 -0.4532  0.2296 -0.6950
   50MOL    H91 6069   7.837   1.208   2.473 -1.0642  0.5381 -0.1815
   50MOL    C92 6070   7.663   1.276   2.359 -0.5290  0.8187  0.2458
   50MOL    F93 6071   7.643   1.318   2.241 -0.1747  0.3806  0.1955
   50MOL    F94 6072   7.576   1.177   2.389  0.3134 -0.4544  0.2331
   50MOL    C95 6073   7.633   1.393   2.453  0.0486  0.0973 -0.2587
   50MOL    H96 6074   7.716   1.463   2.463 -0.1466  0.3655 -0.5120
   50MOL    H97 6075   7.634   1.348   2.552 -1.3881 -0.9957 -0.7267
   50MOL    C98 6076   7.499   1.468   2.434 -0.2331 -0.3714  0.0172
   50MOL    F99 6077   7.489   1.556   2.541  0.1549  0.3001 -0.7349
   50MOL   F100 6078   7.501   1.542   2.325  0.4907 -0.5272 -0.3265
   50MOL   C101 6079   7.367   1.376   2.437  0.7522  0.0292 -1.1968
   50MOL   H102 6080   7.363   1.325   2.533  0.8769 -1.2283 -1.8558
   50MOL   H103 6081   7.365   1.296   2.363  0.9262 -0.9899 -0.1046
   50MOL   C104 6082   7.234   1.447   2.414 -0.5421  0.0173  0.1707
   50MOL   F105 6083   7.207   1.530   2.519 -0.1064  0.4089 -0.0893
   50MOL   F106 6084   7.234   1.522   2.305  0.7809  0.0415  0.5742
   50MOL   C107 6085   7.115   1.345   2.422 -0.0368 -0.0005  0.1868
   50MOL   H108 6086   7.107   1.303   2.522 -0.6965 -1.6311 -0.5355
   50MOL   H109 6087   7.126   1.259   2.356  1.3637 -0.3932  0.8979
   50MOL   C110 6088   6.978   1.407   2.386 -0.0842 -0.2903  1.0824
   50MOL   F111 6089   6.961   1.524   2.447  0.0367  0.1623  0.0093
   50MOL   F112 6090   6.980   1.426   2.252  0.0700 -0.0596  0.4445
   50MOL   C113 6091   6.854   1.316   2.427  0.7954 -0.5255 -0.0399
   50MOL   H114 6092   6.757   1.353   2.396  1.1783  1.2572  0.8767
   50MOL   H115 6093   6.828   1.317   2.533  0.7898  0.5467 -0.0488
   50MOL   C116 6094   6.861   1.169   2.382  0.4620 -0.3219 -0.1405
   50MOL   F117 6095   6.900   1.168   2.262 -0.1298 -0.5226  0.4271
   50MOL   F118 6096   6.941   1.100   2.459  0.4259  0.2561 -0.1889
   50MOL   C119 6097   6.729   1.105   2.388  0.3849 -0.7205  0.2477
   50MOL   H120 6098   6.733   0.999   2.363 -0.6936 -0.7834  0.3521
   50MOL   H121 6099   6.659   1.141   2.312 -0.2339  2.0393  2.0650
   50MOL   H122 6100   6.677   1.120   2.482  0.7161  1.3013  0.1353
   51MOL     C1 6101   3.690   1.775   6.240 -0.5508  0.5281 -0.0373
   51MOL     F2 6102   3.581   1.850   6.212 -0.1388  0.3209  0.1271
   51MOL     F3 6103   3.794   1.851   6.208  0.3598  0.1202  0.9835
   51MOL     C4 6104   3.683   1.643   6.167 -0.0221 -0.2145  0.1110
   51MOL     H5 6105   3.687   1.680   6.065  0.6544 -0.5153  0.0258
   51MOL     H6 6106   3.585   1.599   6.187  0.4876 -1.4064  0.0346
   51MOL     H7 6107   3.676   1.760   6.347 -0.2132  0.1615 -0.0429
   51MOL     C8 6108   3.797   1.538   6.197 -0.3331  0.0924 -0.1987
   51MOL     F9 6109   3.911   1.583   6.149  0.2651  0.4594  0.0173
   51MOL    F10 6110   3.812   1.520   6.325  0.2098 -0.0857  0.7292
   51MOL    C11 6111   3.760   1.412   6.112  0.3085 -0.0777 -0.4047
   51MOL    H12 6112   3.741   1.445   6.010 -1.2639  1.3913  0.3494
   51MOL    H13 6113   3.668   1.364   6.146 -1.0991  2.2623 -0.8701
   51MOL    C14 6114   3.876   1.312   6.100 -0.4182 -0.8787  0.0169
   51MOL    F15 6115   3.963   1.362   6.007  0.1042  0.3271 -0.3123
   51MOL    F16 6116   3.936   1.316   6.217  0.0164 -0.4976 -0.2895
   51MOL    C17 6117   3.835   1.162   6.076 -0.2813  1.0125  0.4610
   51MOL    H18 6118   3.773   1.119   6.154  0.7694 -0.3936  0.5469
   51MOL    H19 6119   3.931   1.109   6.080 -0.0630  1.2831 -0.8601
   51MOL    C20 6120   3.789   1.120   5.935  0.1960 -0.3104 -0.2386
   51MOL    F21 6121   3.665   1.178   5.915  0.3720  0.7740 -0.1764
   51MOL    F22 6122   3.874   1.159   5.842  0.2556  0.0694 -0.5432
   51MOL    C23 6123   3.775   0.968   5.931 -0.0010  0.1189 -0.0456
   51MOL    H24 6124   3.696   0.939   6.000  0.4137 -0.7982  0.0483
   51MOL    H25 6125   3.870   0.935   5.973  0.2974  0.2881 -0.5793
   51MOL    C26 6126   3.740   0.907   5.797  0.1518  0.0466 -0.0429
   51MOL    F27 6127   3.616   0.956   5.775  0.2697 -0.0754  0.3409
   51MOL    F28 6128   3.799   0.950   5.685  0.2038  0.5112 -0.1385
   51MOL    C29 6129   3.735   0.757   5.800  0.4647  0.2757 -0.3505
   51MOL    H30 6130   3.668   0.728   5.718 -0.4056 -0.7265  0.7003
   51MOL    H31 6131   3.679   0.739   5.891  0.2322  0.5552 -0.4378
   51MOL    C32 6132   3.862   0.675   5.772  0.2559 -0.0344 -0.3113
   51MOL    F33 6133   3.884   0.688   5.639 -0.0578  0.3001 -0.3175
   51MOL    F34 6134   3.959   0.719   5.848  0.0987 -0.7729 -0.3757
   51MOL    C35 6135   3.856   0.524   5.810 -0.8718  0.6779  0.1606
   51MOL    H36 6136   3.859   0.510   5.918  0.1363  1.5013  0.2494
   51MOL    H37 6137   3.954   0.487   5.779 -0.7613  0.9442  0.1930
   51MOL    C38 6138   3.738   0.430   5.752 -0.4350 -0.1507  0.1124
   51MOL    F39 6139   3.637   0.480   5.819 -0.4191  0.0202 -0.1567
   51MOL    F40 6140   3.708   0.440   5.623 -0.1449 -0.2324 -0.3266
   51MOL    C41 6141   3.748   0.272   5.785  0.0509  0.0082 -0.6211
   51MOL    H42 6142   3.821   0.234   5.713  2.2771 -1.7053  2.4092
   51MOL    H43 6143   3.657   0.222   5.751 -1.9207  2.7296  0.4734
   51MOL    C44 6144   3.792   0.229   5.927 -0.2855  0.5883 -0.1996
   51MOL    F45 6145   3.921   0.257   5.930  0.0069  0.1261 -0.0750
   51MOL    F46 6146   3.734   0.300   6.018 -0.5351  0.4586 -0.0944
   51MOL    C47 6147   3.782   0.079   5.956 -0.3916 -0.6356  0.8239
   51MOL    H48 6148   3.852   0.047   6.033 -1.3891 -0.6183  1.7430
   51MOL    H49 6149   3.819   0.029   5.866 -0.9646 -2.3463  1.5216
   51MOL    C50 6150   3.637   0.021   5.986 -0.0511  0.0660  0.2085
   51MOL    F51 6151   3.592   0.100   6.076  0.7245  0.1076 -0.1864
   51MOL    F52 6152   3.563   0.043   5.877 -0.5312 -0.0335 -0.3952
   51MOL    C53 6153   3.640   8.224   6.035  0.1132 -0.3385 -0.1772
   51MOL    H54 6154   3.701   8.232   6.125 -1.4463  1.8472  0.7213
   51MOL    H55 6155   3.693   8.163   5.962 -0.2178 -1.4141  0.4635
   51MOL    C56 6156   3.511   8.145   6.081 -0.2747 -0.1709 -0.1013
   51MOL    F57 6157   3.463   8.224   6.169 -0.0230 -0.3003  0.0168
   51MOL    F58 6158   3.422   8.131   5.983  0.0223  0.0783 -0.0046
   51MOL    C59 6159   3.542   8.007   6.142 -0.4162  0.5166 -0.1257
   51MOL    H60 6160   3.610   8.027   6.225  1.5358 -0.0477 -1.5489
   51MOL    H61 6161   3.596   7.946   6.070  1.0368  0.1758  1.2177
   51MOL    C62 6162   3.420   7.927   6.197 -0.0097  0.0375 -0.0348
   51MOL    F63 6163   3.333   7.895   6.097 -0.1815  0.1043 -0.5663
   51MOL    F64 6164   3.469   7.804   6.238  0.1809 -0.5250 -0.2443
   51MOL    C65 6165   3.334   8.002   6.303 -0.5795  0.2321  0.7123
   51MOL    H66 6166   3.268   8.076   6.256 -2.0070 -0.7390  1.1682
   51MOL    H67 6167   3.404   8.055   6.368 -0.0546 -0.0674  0.3940
   51MOL    C68 6168   3.242   7.916   6.390 -0.8091 -0.6962 -0.3047
   51MOL    F69 6169   3.321   7.818   6.435  0.4423 -0.1994  0.3511
   51MOL    F70 6170   3.186   7.979   6.491  0.1565  0.0876  0.0216
   51MOL    C71 6171   3.128   7.838   6.312  0.5499 -0.5563  0.2893
   51MOL    H72 6172   3.152   7.811   6.209 -1.9839 -0.4935 -0.3434
   51MOL    H73 6173   3.047   7.909   6.294  0.7708  0.3889  2.8897
   51MOL    C74 6174   3.073   7.711   6.385  0.1874  0.0395  0.4258
   51MOL    F75 6175   3.159   7.611   6.364 -0.1360 -0.6532  0.2318
   51MOL    F76 6176   3.057   7.741   6.513  0.1838 -0.4584 -0.1719
   51MOL    C77 6177   2.925   7.668   6.342  0.0589  0.1974 -0.2174
   51MOL    H78 6178   2.943   7.640   6.238  0.8134 -2.7024  0.6718
   51MOL    H79 6179   2.848   7.745   6.340  1.0828  1.2266 -1.6148
   51MOL    C80 6180   2.868   7.541   6.409 -0.0704 -0.0217 -0.5174
   51MOL    F81 6181   2.966   7.454   6.403 -0.0581  0.6889  0.7319
   51MOL    F82 6182   2.839   7.574   6.536 -0.5184 -0.6937 -0.2371
   51MOL    C83 6183   2.736   7.490   6.355 -0.0315 -0.6510 -0.1287
   51MOL    H84 6184   2.741   7.500   6.246  0.4212  0.1623 -0.0347
   51MOL    H85 6185   2.662   7.564   6.381  1.1800 -0.0407  1.6215
   51MOL    C86 6186   2.684   7.347   6.385  0.0146  0.2367  0.0456
   51MOL    F87 6187   2.691   7.332   6.515  0.9277 -0.3802 -0.3179
   51MOL    F88 6188   2.557   7.333   6.345  0.5165  0.0861 -0.1940
   51MOL    C89 6189   2.763   7.228   6.325  0.3548  0.3149 -0.8638
   51MOL    H90 6190   2.871   7.247   6.324  0.2761  0.8893  0.6605
   51MOL    H91 6191   2.748   7.216   6.218 -0.1435 -2.6207 -0.5149
   51MOL    C92 6192   2.735   7.083   6.383 -0.1638 -0.2018 -0.9573
   51MOL    F93 6193   2.823   6.997   6.326 -0.1819  0.1463  0.1036
   51MOL    F94 6194   2.764   7.080   6.511 -0.1746 -0.4293 -0.4386
   51MOL    C95 6195   2.586   7.027   6.365  0.4004 -0.4913  0.3608
   51MOL    H96 6196   2.524   7.087   6.432 -0.1434 -1.0147  0.3349
   51MOL    H97 6197   2.575   6.925   6.404 -0.8629 -0.2069  0.7682
   51MOL    C98 6198   2.533   7.017   6.217  0.5724  0.1747 -0.9061
   51MOL    F99 6199   2.559   7.131   6.148 -0.3223 -0.2914  0.3099
   51MOL   F100 6200   2.595   6.915   6.148  0.0468 -0.2857 -0.3986
   51MOL   C101 6201   2.380   7.004   6.209 -0.3673  0.8007 -0.3658
   51MOL   H102 6202   2.323   7.092   6.238 -0.2565  0.3189  1.3527
   51MOL   H103 6203   2.347   6.928   6.281 -1.6768  0.7363 -1.0090
   51MOL   C104 6204   2.329   6.934   6.074  0.4071 -0.1322  0.2484
   51MOL   F105 6205   2.374   6.810   6.053  0.0351 -0.2488  0.6469
   51MOL   F106 6206   2.192   6.926   6.093 -0.1625 -0.0469  0.2029
   51MOL   C107 6207   2.353   7.020   5.940  0.0811 -0.3743  0.0924
   51MOL   H108 6208   2.460   7.040   5.931 -0.4182  2.1933 -0.4502
   51MOL   H109 6209   2.289   7.106   5.962  0.4297 -0.7375  2.7064
   51MOL   C110 6210   2.298   6.951   5.817  0.7121  0.5011  0.1809
   51MOL   F111 6211   2.350   6.826   5.799 -0.6264  0.4430  0.1846
   51MOL   F112 6212   2.168   6.931   5.824 -0.2303  0.1102  0.0847
   51MOL   C113 6213   2.334   7.031   5.686 -0.1713 -0.2518  0.2571
   51MOL   H114 6214   2.285   6.979   5.604  0.7765  1.5200 -1.4881
   51MOL   H115 6215   2.441   7.020   5.665  0.2825  1.9850  1.2731
   51MOL   C116 6216   2.292   7.179   5.669 -0.0681 -0.0349  0.1320
   51MOL   F117 6217   2.362   7.246   5.756 -0.3590  0.0854  0.3475
   51MOL   F118 6218   2.330   7.220   5.547  0.1660 -0.0945  0.1885
   51MOL   C119 6219   2.131   7.198   5.691  0.4205 -0.0529 -0.2112
   51MOL   H120 6220   2.085   7.123   5.626  2.5309 -1.0280 -0.6314
   51MOL   H121 6221   2.084   7.291   5.660 -0.0983 -0.7856 -1.7156
   51MOL   H122 6222   2.091   7.181   5.791 -0.1518  1.3254 -0.2031
   52MOL     C1 6223   6.001   5.242   5.967  0.1322  0.1044 -0.0285
   52MOL     F2 6224   6.067   5.360   5.976  0.6390 -0.0298 -0.2199
   52MOL     F3 6225   5.891   5.254   5.896  0.2169 -0.2650  0.5949
   52MOL     C4 6226   5.962   5.186   6.110 -0.5537 -0.2042 -0.2952
   52MOL     H5 6227   5.881   5.113   6.100 -1.2655  0.7042 -1.2141
   52MOL     H6 6228   5.915   5.261   6.175  2.4958  1.7142 -0.2200
   52MOL     H7 6229   6.060   5.173   5.907  2.1061  2.0824 -0.4319
   52MOL     C8 6230   6.083   5.145   6.197 -0.1911 -0.1068 -0.5577
   52MOL     F9 6231   6.135   5.035   6.149  0.5066  0.9415 -0.3556
   52MOL    F10 6232   6.172   5.236   6.181  0.4857 -0.1667 -0.1498
   52MOL    C11 6233   6.058   5.132   6.350  0.7422 -0.7131  0.6309
   52MOL    H12 6234   6.033   5.233   6.382 -0.0233  0.1866 -2.5463
   52MOL    H13 6235   6.148   5.100   6.402  1.0885 -0.2292  0.3343
   52MOL    C14 6236   5.947   5.032   6.390 -0.5118  0.0164  0.5362
   52MOL    F15 6237   5.833   5.078   6.350  0.5037 -0.2554  0.5146
   52MOL    F16 6238   5.966   4.915   6.337  0.4163 -0.6171  0.4402
   52MOL    C17 6239   5.940   5.005   6.542 -0.1143 -0.6339  0.0114
   52MOL    H18 6240   6.026   4.942   6.562  0.5631 -0.1268 -1.2189
   52MOL    H19 6241   5.851   4.942   6.548 -1.2267  0.8640 -0.3849
   52MOL    C20 6242   5.939   5.124   6.629  0.2662  0.8152  0.2786
   52MOL    F21 6243   6.050   5.189   6.609 -0.0627  0.1570 -0.2005
   52MOL    F22 6244   5.833   5.195   6.591  0.2610  0.1900 -0.1662
   52MOL    C23 6245   5.919   5.093   6.781  0.0703  0.2515 -0.0391
   52MOL    H24 6246   6.000   5.032   6.822  0.5249  0.7222 -0.2319
   52MOL    H25 6247   5.818   5.060   6.805 -0.1910  0.0852 -1.3769
   52MOL    C26 6248   5.949   5.224   6.865 -0.1400  0.0596  0.4274
   52MOL    F27 6249   5.935   5.190   6.998 -0.1416  0.0447  0.7730
   52MOL    F28 6250   6.079   5.257   6.853 -0.4820 -0.2631  0.7017
   52MOL    C29 6251   5.862   5.356   6.828 -0.0269 -0.6269 -0.0983
   52MOL    H30 6252   5.871   5.368   6.720  1.3487 -0.5295  0.0274
   52MOL    H31 6253   5.925   5.437   6.867 -1.1030  0.5164 -0.6848
   52MOL    C32 6254   5.711   5.350   6.862  0.1484 -0.0367 -0.1529
   52MOL    F33 6255   5.649   5.257   6.778 -0.2386 -1.0389 -0.0258
   52MOL    F34 6256   5.692   5.322   6.993  0.0746 -0.6116  0.3517
   52MOL    C35 6257   5.644   5.489   6.836  0.2725 -0.1445  0.7585
   52MOL    H36 6258   5.693   5.542   6.754 -0.1427  0.3366  0.8163
   52MOL    H37 6259   5.667   5.549   6.923 -0.7828  0.2187  0.7988
   52MOL    C38 6260   5.496   5.479   6.818  0.2314  0.2061 -0.2765
   52MOL    F39 6261   5.450   5.608   6.809 -0.3616  0.5442  0.4645
   52MOL    F40 6262   5.465   5.419   6.701  0.4017  0.2130 -0.1948
   52MOL    C41 6263   5.419   5.410   6.932  0.1554  0.2495 -0.0505
   52MOL    H42 6264   5.445   5.467   7.021 -2.8808  0.8185  0.5170
   52MOL    H43 6265   5.456   5.307   6.936  2.0560  0.9528  1.5884
   52MOL    C44 6266   5.265   5.417   6.911  0.6932  0.2486 -0.0756
   52MOL    F45 6267   5.212   5.545   6.934 -0.1461  0.7271  0.1241
   52MOL    F46 6268   5.235   5.384   6.785 -0.3543 -0.0024  0.3957
   52MOL    C47 6269   5.200   5.306   6.994  0.0319 -0.7122 -0.4127
   52MOL    H48 6270   5.246   5.214   6.959  1.3863 -0.5294  0.8457
   52MOL    H49 6271   5.097   5.302   6.958 -0.2363  0.6607  0.1706
   52MOL    C50 6272   5.216   5.332   7.154  0.4298 -0.4616  0.7450
   52MOL    F51 6273   5.342   5.302   7.183  0.0949  0.5958  0.1638
   52MOL    F52 6274   5.177   5.444   7.207 -0.0910 -0.5127 -0.0348
   52MOL    C53 6275   5.141   5.214   7.233 -0.1677 -0.4269  0.9175
   52MOL    H54 6276   5.162   5.218   7.339  0.8821  0.2421  0.6933
   52MOL    H55 6277   5.178   5.117   7.200  1.6021  0.8893 -1.1029
   52MOL    C56 6278   4.984   5.223   7.217 -0.8253  0.1721  0.0639
   52MOL    F57 6279   4.930   5.324   7.285 -0.7971  0.1600  0.0879
   52MOL    F58 6280   4.936   5.243   7.095  0.0849  0.0775  0.2747
   52MOL    C59 6281   4.917   5.096   7.271 -0.2414 -0.2914  0.6139
   52MOL    H60 6282   4.954   5.016   7.206 -0.9090  2.8182 -3.8784
   52MOL    H61 6283   4.809   5.102   7.256 -0.3320  0.1302  1.4299
   52MOL    C62 6284   4.937   5.056   7.420 -0.2875 -0.1660 -0.2713
   52MOL    F63 6285   4.868   4.941   7.431  0.4474  0.3806 -0.5018
   52MOL    F64 6286   5.065   5.026   7.449  0.2773  0.1177 -0.0789
   52MOL    C65 6287   4.888   5.159   7.520 -0.1332  0.5767  0.2089
   52MOL    H66 6288   4.799   5.199   7.473 -0.1486  0.7404  0.3763
   52MOL    H67 6289   4.959   5.242   7.517 -0.1822  0.5901 -0.9291
   52MOL    C68 6290   4.859   5.112   7.665  0.0071  0.4230  0.1972
   52MOL    F69 6291   4.749   5.042   7.684 -0.0396  0.2684  0.1655
   52MOL    F70 6292   4.965   5.045   7.704 -0.0596 -0.3803  0.4509
   52MOL    C71 6293   4.853   5.233   7.761  0.1326 -0.4763 -0.0033
   52MOL    H72 6294   4.951   5.280   7.760  0.8258 -1.8546  1.0304
   52MOL    H73 6295   4.841   5.198   7.864  1.3009  1.0069  0.6671
   52MOL    C74 6296   4.752   5.354   7.731 -0.5465 -0.5247  0.5168
   52MOL    F75 6297   4.766   5.398   7.603 -0.1479  0.0482 -0.1872
   52MOL    F76 6298   4.623   5.307   7.714 -0.0118  0.4264  0.0710
   52MOL    C77 6299   4.748   5.472   7.839  0.5711  0.1838 -0.6091
   52MOL    H78 6300   4.710   5.442   7.937 -0.3556  1.1009 -0.6802
   52MOL    H79 6301   4.684   5.549   7.795  1.4788  1.5997  0.5134
   52MOL    C80 6302   4.893   5.528   7.869  0.1570  0.0348  0.0161
   52MOL    F81 6303   4.968   5.435   7.926 -0.2922  0.2456  0.3146
   52MOL    F82 6304   4.947   5.569   7.752 -0.4600  0.4323  0.2488
   52MOL    C83 6305   4.879   5.650   7.960  0.2171 -0.6631 -0.7938
   52MOL    H84 6306   4.819   5.641   8.050  1.1203 -1.4579 -0.2561
   52MOL    H85 6307   4.818   5.715   7.898 -0.3163 -0.4514 -0.0377
   52MOL    C86 6308   5.008   5.721   8.009 -0.1561  0.6618  0.2487
   52MOL    F87 6309   4.970   5.812   8.100 -0.2776  0.4179  0.5930
   52MOL    F88 6310   5.092   5.633   8.066 -0.2274 -0.2166 -0.2086
   52MOL    C89 6311   5.088   5.791   7.898  0.6572  0.8337 -0.0302
   52MOL    H90 6312   5.013   5.836   7.833 -0.7233 -1.2135  0.0942
   52MOL    H91 6313   5.125   5.719   7.825 -0.0522 -0.2418  0.6538
   52MOL    C92 6314   5.195   5.890   7.944  0.5369  0.2873 -0.2797
   52MOL    F93 6315   5.214   5.979   7.844 -0.3567 -0.0638 -0.1802
   52MOL    F94 6316   5.160   5.958   8.045  0.3442 -0.0846 -0.2950
   52MOL    C95 6317   5.333   5.821   7.970  0.2844  0.7258  0.2025
   52MOL    H96 6318   5.364   5.757   7.887 -1.6384  2.7255 -2.1321
   52MOL    H97 6319   5.310   5.743   8.042 -2.1214  1.3953  0.2147
   52MOL    C98 6320   5.454   5.909   8.014  0.4536  0.3075  0.2835
   52MOL    F99 6321   5.419   5.983   8.116 -0.3529  0.4087  0.3981
   52MOL   F100 6322   5.542   5.820   8.053  0.2310 -0.3899  0.3180
   52MOL   C101 6323   5.504   6.009   7.910 -0.3555  0.0662 -0.3741
   52MOL   H102 6324   5.412   6.067   7.899 -0.3062  0.6220  1.9311
   52MOL   H103 6325   5.532   5.963   7.815  1.8365 -0.1779  0.3671
   52MOL   C104 6326   5.622   6.095   7.960  0.0503  0.3806  0.1379
   52MOL   F105 6327   5.634   6.196   7.883  0.6680  0.9371  0.1337
   52MOL   F106 6328   5.601   6.151   8.071 -0.3426  0.2882 -0.1118
   52MOL   C107 6329   5.761   6.027   7.974 -0.3918  0.1501 -0.4603
   52MOL   H108 6330   5.755   5.954   8.054  0.0775  2.1112  1.4215
   52MOL   H109 6331   5.835   6.101   8.006  1.1694 -1.9542  0.9195
   52MOL   C110 6332   5.816   5.948   7.848 -0.4947  0.4825 -0.7931
   52MOL   F111 6333   5.750   5.833   7.841 -0.2325  0.2805  0.5526
   52MOL   F112 6334   5.803   6.020   7.735  0.3797  0.3357 -0.0468
   52MOL   C113 6335   5.964   5.909   7.856  0.6518  0.3666 -0.3694
   52MOL   H114 6336   5.987   5.846   7.770  0.3876  1.7681 -1.4757
   52MOL   H115 6337   5.965   5.832   7.934 -0.3869  0.4165 -0.3054
   52MOL   C116 6338   6.080   6.009   7.870  0.5615 -0.4704 -0.5509
   52MOL   F117 6339   6.083   6.076   7.989  0.0063 -0.2267  0.3021
   52MOL   F118 6340   6.197   5.951   7.854 -0.1393 -0.1495 -0.1803
   52MOL   C119 6341   6.073   6.124   7.773 -0.2979 -0.2532 -0.2499
   52MOL   H120 6342   6.162   6.186   7.786 -0.2180 -0.0207 -1.8305
   52MOL   H121 6343   5.981   6.184   7.776 -0.6229 -0.5951 -2.4104
   52MOL   H122 6344   6.080   6.097   7.668  1.7359  1.3344 -0.5511
   53MOL     C1 6345   6.148   3.104   2.228 -0.2302 -0.1711  0.6233
   53MOL     F2 6346   6.180   3.233   2.246 -0.6136 -0.0223 -0.3076
   53MOL     F3 6347   6.244   3.025   2.263 -0.0055 -0.1590  0.3235
   53MOL     C4 6348   6.096   3.065   2.091  0.1789  0.4941  0.6316
   53MOL     H5 6349   6.076   2.959   2.080 -0.4733  0.7793 -1.1930
   53MOL     H6 6350   6.170   3.095   2.017 -0.2068  1.4346  0.6148
   53MOL     H7 6351   6.066   3.097   2.300 -0.3801 -1.0571  0.3759
   53MOL     C8 6352   5.966   3.142   2.049 -0.5335 -0.1926  0.4583
   53MOL     F9 6353   5.937   3.114   1.925 -0.2338  0.1418 -0.3174
   53MOL    F10 6354   5.868   3.084   2.120  0.5040  0.3326  0.0335
   53MOL    C11 6355   5.958   3.299   2.072  0.3658  0.3367  0.0103
   53MOL    H12 6356   5.996   3.319   2.172  1.2511  0.2712 -0.3128
   53MOL    H13 6357   5.852   3.325   2.076  0.6788  1.4308  2.7365
   53MOL    C14 6358   6.033   3.386   1.976 -0.6679 -0.7151 -0.0635
   53MOL    F15 6359   6.147   3.331   1.935 -0.3232  0.4511 -0.3432
   53MOL    F16 6360   5.959   3.380   1.867  0.5695 -0.4601  0.3072
   53MOL    C17 6361   6.051   3.534   2.020  0.0606 -0.2424 -0.3148
   53MOL    H18 6362   6.097   3.597   1.944  0.5866  0.8812  0.9084
   53MOL    H19 6363   6.119   3.539   2.105 -0.4248 -1.2173  0.1442
   53MOL    C20 6364   5.921   3.609   2.062 -0.5540  0.3169  0.9125
   53MOL    F21 6365   5.835   3.606   1.963 -0.2653 -0.0389  0.0137
   53MOL    F22 6366   5.861   3.553   2.165 -0.1236 -0.0794  0.6053
   53MOL    C23 6367   5.930   3.762   2.098 -0.1482 -0.6356  0.0102
   53MOL    H24 6368   5.828   3.801   2.111  0.4762  1.2146 -0.4363
   53MOL    H25 6369   5.965   3.812   2.008 -0.8037  1.6754  0.9983
   53MOL    C26 6370   6.033   3.803   2.201 -0.6694 -0.3051  0.5143
   53MOL    F27 6371   6.012   3.742   2.317  0.0948  0.3333 -0.3242
   53MOL    F28 6372   6.153   3.773   2.146  0.1685  0.1001  0.1818
   53MOL    C29 6373   6.037   3.959   2.228 -0.7083  1.0470 -0.6129
   53MOL    H30 6374   5.942   3.982   2.276 -0.0681 -0.1741  1.3400
   53MOL    H31 6375   6.037   4.023   2.140 -0.3009 -1.2131 -2.3122
   53MOL    C32 6376   6.151   4.012   2.313 -0.4363 -0.1289 -0.1922
   53MOL    F33 6377   6.267   4.004   2.241 -0.4070  0.2329 -0.6073
   53MOL    F34 6378   6.126   4.138   2.334 -0.0398 -0.0952 -0.6857
   53MOL    C35 6379   6.173   3.945   2.452 -0.5352  0.2662  0.0992
   53MOL    H36 6380   6.206   3.843   2.432  0.5300  0.7759 -0.7760
   53MOL    H37 6381   6.078   3.932   2.505  1.9307  0.2178  4.6971
   53MOL    C38 6382   6.282   4.019   2.543 -0.1642 -1.0423 -0.1317
   53MOL    F39 6383   6.387   4.022   2.470 -0.3004  0.4976 -0.0699
   53MOL    F40 6384   6.246   4.148   2.553  0.0712 -0.5210 -0.0611
   53MOL    C41 6385   6.308   3.950   2.677  0.2588 -0.2583 -0.8186
   53MOL    H42 6386   6.391   4.003   2.724 -0.1872  0.5849 -0.9752
   53MOL    H43 6387   6.343   3.852   2.647 -0.5631 -0.6678 -0.4511
   53MOL    C44 6388   6.187   3.947   2.776 -0.7714  0.0130  1.1310
   53MOL    F45 6389   6.150   4.069   2.809  0.1341 -0.0903  0.5542
   53MOL    F46 6390   6.088   3.882   2.718  0.1879 -0.8179  0.0029
   53MOL    C47 6391   6.222   3.889   2.915  1.3756 -0.4688 -0.4342
   53MOL    H48 6392   6.128   3.873   2.969  0.3297  0.3693 -1.9672
   53MOL    H49 6393   6.274   3.957   2.982  0.8391 -0.2649 -0.2238
   53MOL    C50 6394   6.295   3.753   2.911 -0.1845  0.0761 -0.1474
   53MOL    F51 6395   6.237   3.686   2.814 -0.1396 -0.1058 -0.1159
   53MOL    F52 6396   6.424   3.784   2.888  0.3393  0.1314  0.3266
   53MOL    C53 6397   6.284   3.679   3.052  0.0548 -0.1561  0.6886
   53MOL    H54 6398   6.186   3.633   3.062  1.8084 -4.3441 -0.3645
   53MOL    H55 6399   6.295   3.756   3.128  1.8038  1.5817 -1.2683
   53MOL    C56 6400   6.392   3.572   3.072 -0.2992  0.0703 -0.4367
   53MOL    F57 6401   6.510   3.628   3.058 -0.0568  0.3058 -0.3232
   53MOL    F58 6402   6.369   3.511   3.195  0.4523 -0.1272  0.0367
   53MOL    C59 6403   6.395   3.464   2.959  0.1429 -0.3506 -0.6742
   53MOL    H60 6404   6.424   3.509   2.864 -1.8458  2.0977 -0.1770
   53MOL    H61 6405   6.292   3.432   2.945  0.2624 -0.8991 -0.3105
   53MOL    C62 6406   6.493   3.339   2.973 -0.9475  0.1918 -0.0693
   53MOL    F63 6407   6.447   3.270   3.073 -0.4206 -0.3641 -0.5640
   53MOL    F64 6408   6.472   3.270   2.859 -0.5028 -0.5318 -0.0428
   53MOL    C65 6409   6.643   3.380   2.983 -0.0977 -0.0887  0.3495
   53MOL    H66 6410   6.653   3.446   3.069  2.2230 -0.0646  0.0848
   53MOL    H67 6411   6.683   3.447   2.908 -1.1292  0.8819  0.6569
   53MOL    C68 6412   6.750   3.263   2.996  0.1479  0.0107 -0.0698
   53MOL    F69 6413   6.853   3.324   3.060 -0.3039 -0.4613  0.0723
   53MOL    F70 6414   6.710   3.162   3.075  0.2867  0.0209  0.1978
   53MOL    C71 6415   6.783   3.205   2.856  0.6262  0.0042 -0.1665
   53MOL    H72 6416   6.764   3.275   2.775  2.5488  1.9819  1.0302
   53MOL    H73 6417   6.712   3.124   2.841 -0.1187  0.3905  1.2128
   53MOL    C74 6418   6.915   3.133   2.836 -0.2416  0.3735  0.0449
   53MOL    F75 6419   6.917   3.027   2.901 -0.4022  0.2339 -0.0657
   53MOL    F76 6420   6.915   3.096   2.711 -0.2019  0.3090 -0.3965
   53MOL    C77 6421   7.041   3.224   2.866  0.9014  0.9401  0.4978
   53MOL    H78 6422   7.125   3.166   2.828 -1.2123  0.2724 -3.3527
   53MOL    H79 6423   7.054   3.239   2.974 -0.5347 -0.2536  0.8654
   53MOL    C80 6424   7.055   3.352   2.782  0.9124 -0.0979 -0.2315
   53MOL    F81 6425   7.030   3.330   2.650 -0.8377  0.4230 -0.0132
   53MOL    F82 6426   6.961   3.427   2.838 -0.0971  0.3913 -0.2344
   53MOL    C83 6427   7.195   3.424   2.807 -0.4681  0.2129 -0.4349
   53MOL    H84 6428   7.272   3.362   2.760 -2.4340 -0.5525 -2.7810
   53MOL    H85 6429   7.221   3.445   2.910  3.4746  1.3276 -1.5821
   53MOL    C86 6430   7.214   3.571   2.747 -0.6374 -0.8237 -0.4706
   53MOL    F87 6431   7.194   3.567   2.616 -0.6746  0.1349 -0.2171
   53MOL    F88 6432   7.118   3.648   2.803 -0.0994 -0.0810  0.2650
   53MOL    C89 6433   7.350   3.638   2.782  0.8531  0.2116 -0.6911
   53MOL    H90 6434   7.334   3.741   2.749 -2.5345 -0.6617 -2.0151
   53MOL    H91 6435   7.433   3.604   2.720  0.8798  0.5958 -0.8684
   53MOL    C92 6436   7.403   3.638   2.930  0.6629  0.1714  0.6284
   53MOL    F93 6437   7.310   3.684   3.011 -0.0082 -0.0454 -0.8375
   53MOL    F94 6438   7.432   3.509   2.966  0.0606 -0.0430  0.3506
   53MOL    C95 6439   7.527   3.732   2.939 -0.0238 -0.4510  0.2468
   53MOL    H96 6440   7.573   3.742   3.037  0.1154  2.4032 -0.0666
   53MOL    H97 6441   7.492   3.834   2.925 -1.2812 -0.7821  0.9219
   53MOL    C98 6442   7.636   3.701   2.836 -0.9831 -0.4052 -0.7010
   53MOL    F99 6443   7.677   3.578   2.831 -0.5059 -0.2713 -0.4947
   53MOL   F100 6444   7.603   3.736   2.711 -0.4659 -0.1355 -0.3584
   53MOL   C101 6445   7.767   3.781   2.868 -0.0059  0.0595  0.6733
   53MOL   H102 6446   7.844   3.741   2.802 -1.8229 -0.6165 -1.1268
   53MOL   H103 6447   7.805   3.750   2.965  2.1197 -1.1066 -0.4975
   53MOL   C104 6448   7.769   3.937   2.858  0.2035  0.5529 -0.1653
   53MOL   F105 6449   7.698   3.998   2.955 -0.2566  0.0923  0.2459
   53MOL   F106 6450   7.895   3.978   2.880 -0.3592 -0.2608 -0.0480
   53MOL   C107 6451   7.716   4.003   2.728 -0.8417  0.1722 -0.1070
   53MOL   H108 6452   7.716   4.110   2.750  0.6428  0.0912  0.3771
   53MOL   H109 6453   7.612   3.976   2.713 -1.1994  1.3819  0.1659
   53MOL   C110 6454   7.805   3.975   2.602  0.5554 -0.4373  0.1564
   53MOL   F111 6455   7.929   4.013   2.613  0.2056 -0.5258  0.0929
   53MOL   F112 6456   7.815   3.845   2.561  0.1350 -0.5635  0.3130
   53MOL   C113 6457   7.765   4.064   2.482  0.7389 -0.1262 -0.9760
   53MOL   H114 6458   7.835   4.033   2.404 -0.7857 -0.8107 -2.1051
   53MOL   H115 6459   7.767   4.170   2.508 -0.3840 -0.2788 -0.2450
   53MOL   C116 6460   7.620   4.064   2.427  0.3152  0.2234  0.0127
   53MOL   F117 6461   7.527   4.097   2.525  0.3693  0.0901 -0.6515
   53MOL   F118 6462   7.614   4.154   2.333 -0.6623 -0.0049 -0.5583
   53MOL   C119 6463   7.577   3.927   2.375 -0.8192  0.4815 -0.0002
   53MOL   H120 6464   7.561   3.845   2.444 -2.0323  0.0752 -0.7636
   53MOL   H121 6465   7.640   3.877   2.301 -0.9361 -1.7089  1.3455
   53MOL   H122 6466   7.481   3.935   2.325 -1.1800  0.6806  0.7150
   54MOL     C1 6467   7.669   5.172   2.214  0.1200  1.0614  0.9843
   54MOL     F2 6468   7.690   5.107   2.101 -0.1577  0.3571  0.5132
   54MOL     F3 6469   7.667   5.083   2.315  0.3864  0.2183  0.4397
   54MOL     C4 6470   7.551   5.271   2.210  0.0202  1.0083  0.6798
   54MOL     H5 6471   7.542   5.330   2.301 -0.3898  2.9018 -0.5735
   54MOL     H6 6472   7.458   5.214   2.222  0.8498 -1.2730 -3.0133
   54MOL     H7 6473   7.762   5.227   2.229  1.1062 -0.0831 -0.8272
   54MOL     C8 6474   7.531   5.358   2.081  0.6589  0.8230  0.1943
   54MOL     F9 6475   7.450   5.452   2.123  0.1839  0.5996 -0.0574
   54MOL    F10 6476   7.642   5.419   2.059 -0.0057  0.1948 -0.0439
   54MOL    C11 6477   7.493   5.286   1.947 -0.2311  0.4488 -0.6560
   54MOL    H12 6478   7.394   5.243   1.962 -0.1494  0.6617  0.5603
   54MOL    H13 6479   7.571   5.215   1.920 -0.9625 -1.4065  1.9090
   54MOL    C14 6480   7.463   5.393   1.838 -0.1561  0.1752  0.9603
   54MOL    F15 6481   7.369   5.480   1.876 -0.6947 -0.8127  0.0212
   54MOL    F16 6482   7.566   5.465   1.806  0.2379  0.3696 -0.4244
   54MOL    C17 6483   7.410   5.320   1.709  0.4105 -0.9567 -0.4232
   54MOL    H18 6484   7.321   5.261   1.727 -0.3829  0.1136 -0.8190
   54MOL    H19 6485   7.481   5.241   1.683  1.4105 -0.6893  1.3937
   54MOL    C20 6486   7.387   5.412   1.582  0.1190 -0.0384 -0.4250
   54MOL    F21 6487   7.504   5.466   1.549 -0.3461 -0.2009 -0.1468
   54MOL    F22 6488   7.351   5.323   1.491  0.3090  0.0170  0.1135
   54MOL    C23 6489   7.288   5.521   1.611 -0.5351 -0.2710  0.0571
   54MOL    H24 6490   7.329   5.595   1.679 -1.8103 -0.4793  1.0521
   54MOL    H25 6491   7.199   5.472   1.650 -0.2544 -1.6405 -0.9451
   54MOL    C26 6492   7.236   5.605   1.494 -0.6978  0.0929  0.4998
   54MOL    F27 6493   7.145   5.688   1.542 -0.3984  0.1595  0.4969
   54MOL    F28 6494   7.337   5.686   1.450 -0.0240 -0.1261 -0.3251
   54MOL    C29 6495   7.172   5.524   1.370 -0.0277 -0.1844 -0.5525
   54MOL    H30 6496   7.249   5.450   1.347  0.2977  0.0603 -0.2550
   54MOL    H31 6497   7.173   5.595   1.287 -2.1742 -0.5692 -0.9301
   54MOL    C32 6498   7.032   5.459   1.400 -0.2539  0.9962  0.0573
   54MOL    F33 6499   7.045   5.377   1.499  0.2803 -0.2380 -0.1222
   54MOL    F34 6500   6.944   5.556   1.420  0.3617 -0.2424  0.4111
   54MOL    C35 6501   6.996   5.371   1.277 -0.6861  0.3846  0.1324
   54MOL    H36 6502   7.088   5.314   1.262 -0.8155 -0.3858  2.1634
   54MOL    H37 6503   6.987   5.433   1.187 -1.7943  0.3360  0.2039
   54MOL    C38 6504   6.877   5.280   1.300  0.7612  0.0925 -0.0891
   54MOL    F39 6505   6.889   5.212   1.414  0.0673  0.6548  0.6855
   54MOL    F40 6506   6.773   5.362   1.305  0.3393 -0.3053  0.2054
   54MOL    C41 6507   6.857   5.180   1.190  0.0140 -1.2200  0.5884
   54MOL    H42 6508   6.943   5.114   1.191  0.8136 -0.2036  2.6637
   54MOL    H43 6509   6.866   5.237   1.097 -2.0797 -0.2981  0.9119
   54MOL    C44 6510   6.731   5.095   1.190 -0.0439 -0.0223  0.0898
   54MOL    F45 6511   6.741   5.021   1.297  0.9183 -0.5622 -0.1054
   54MOL    F46 6512   6.626   5.180   1.200 -0.1954 -0.1599  0.2358
   54MOL    C47 6513   6.731   5.003   1.060 -0.2333 -0.3697 -0.1644
   54MOL    H48 6514   6.816   4.939   1.082  0.5513  1.2772  1.8076
   54MOL    H49 6515   6.750   5.058   0.968  1.7394  0.6424  0.8130
   54MOL    C50 6516   6.604   4.927   1.050  0.0418  0.0175  0.1468
   54MOL    F51 6517   6.571   4.872   1.168 -0.0339 -0.0075  0.0365
   54MOL    F52 6518   6.502   4.999   1.002  0.2310 -0.1748  0.7130
   54MOL    C53 6519   6.596   4.820   0.942 -0.0393  0.3621 -0.0209
   54MOL    H54 6520   6.582   4.857   0.841 -2.8059 -2.1013 -0.6079
   54MOL    H55 6521   6.509   4.755   0.953  0.2818 -0.3573 -1.4995
   54MOL    C56 6522   6.710   4.722   0.944  0.5974 -0.3542  0.5207
   54MOL    F57 6523   6.830   4.775   0.929  0.0910 -0.5007 -0.0609
   54MOL    F58 6524   6.708   4.654   1.062 -0.1306 -0.8014 -0.1878
   54MOL    C59 6525   6.685   4.624   0.826  0.6565  0.8909  0.4096
   54MOL    H60 6526   6.691   4.683   0.734 -1.9675  2.2528  1.0443
   54MOL    H61 6527   6.578   4.603   0.824  0.7191  0.6415 -0.5551
   54MOL    C62 6528   6.772   4.500   0.819 -0.1206 -0.0676 -0.2345
   54MOL    F63 6529   6.892   4.554   0.797  0.1790 -0.0566 -0.2662
   54MOL    F64 6530   6.761   4.436   0.937  0.0704 -0.5318 -0.3640
   54MOL    C65 6531   6.728   4.412   0.698 -0.2272  0.1670  0.0719
   54MOL    H66 6532   6.716   4.479   0.613 -1.7591 -0.0311  0.1106
   54MOL    H67 6533   6.629   4.371   0.720  0.0205  0.5797  2.0258
   54MOL    C68 6534   6.845   4.307   0.661  0.0018 -0.5008 -0.3239
   54MOL    F69 6535   6.895   4.243   0.763 -0.4629 -0.3617  0.5264
   54MOL    F70 6536   6.772   4.219   0.588 -0.4933 -0.3278  0.3649
   54MOL    C71 6537   6.953   4.358   0.569 -0.3244 -0.4710  0.8398
   54MOL    H72 6538   7.017   4.422   0.631 -1.8358 -0.0071  1.9481
   54MOL    H73 6539   6.916   4.433   0.499  2.2782 -0.9316 -1.0923
   54MOL    C74 6540   7.036   4.256   0.509 -0.4676  0.1424  0.8778
   54MOL    F75 6541   6.967   4.164   0.440  0.0830 -0.1366 -0.4635
   54MOL    F76 6542   7.104   4.320   0.413  0.2789  0.1882  0.6704
   54MOL    C77 6543   7.143   4.200   0.606  0.0586  0.2635  0.7054
   54MOL    H78 6544   7.098   4.140   0.685 -1.8467 -1.3337 -1.5135
   54MOL    H79 6545   7.190   4.288   0.650 -0.0600  0.6428  0.0920
   54MOL    C80 6546   7.246   4.108   0.536 -0.1585  0.2609 -0.2252
   54MOL    F81 6547   7.314   4.163   0.433 -0.4626 -0.1209  0.0770
   54MOL    F82 6548   7.339   4.090   0.627 -0.2199 -0.6174 -0.2691
   54MOL    C83 6549   7.182   3.976   0.497 -0.1335 -0.5952  0.1350
   54MOL    H84 6550   7.113   3.989   0.414 -0.2114  1.0006  0.4396
   54MOL    H85 6551   7.118   3.936   0.576 -0.1978 -0.8189 -0.0311
   54MOL    C86 6552   7.284   3.861   0.466  0.3874 -0.4691  0.4348
   54MOL    F87 6553   7.360   3.913   0.371 -0.3515 -0.0816 -0.0106
   54MOL    F88 6554   7.360   3.832   0.569 -0.5819 -0.1834  0.3349
   54MOL    C89 6555   7.200   3.742   0.409  0.4398  0.5388 -0.3368
   54MOL    H90 6556   7.146   3.778   0.321  0.1893 -1.3835 -0.9964
   54MOL    H91 6557   7.120   3.721   0.480 -1.4168  2.0530 -1.9075
   54MOL    C92 6558   7.276   3.612   0.385  0.0884 -0.7554  0.3413
   54MOL    F93 6559   7.394   3.633   0.327 -0.1574 -0.3923 -0.3437
   54MOL    F94 6560   7.292   3.559   0.504 -0.2425 -0.2284  0.0085
   54MOL    C95 6561   7.203   3.503   0.309 -0.2290  0.6424  0.1172
   54MOL    H96 6562   7.281   3.440   0.267 -0.9367  1.3526 -2.3207
   54MOL    H97 6563   7.163   3.564   0.228  1.9691  1.0524 -0.6905
   54MOL    C98 6564   7.079   3.430   0.369 -0.7291  0.2909 -0.0793
   54MOL    F99 6565   6.989   3.516   0.422 -0.0576  0.1610  0.4204
   54MOL   F100 6566   7.016   3.367   0.271  0.6312  0.0854 -0.1827
   54MOL   C101 6567   7.103   3.314   0.468  0.1656 -0.4386  0.2404
   54MOL   H102 6568   7.006   3.266   0.487 -1.9534  2.8212 -1.7520
   54MOL   H103 6569   7.138   3.364   0.557 -0.4549 -0.5228  0.5372
   54MOL   C104 6570   7.206   3.201   0.431 -0.1016 -0.0701 -0.3933
   54MOL   F105 6571   7.193   3.167   0.303 -0.2153 -0.2644  0.1740
   54MOL   F106 6572   7.334   3.243   0.459 -0.4419 -0.0462 -0.1622
   54MOL   C107 6573   7.201   3.069   0.522  0.6249  0.0923  0.4849
   54MOL   H108 6574   7.267   2.988   0.491  1.8290  0.5200  1.8297
   54MOL   H109 6575   7.097   3.040   0.511  0.2174  1.7987 -0.2333
   54MOL   C110 6576   7.211   3.084   0.674 -0.1191 -0.0332  0.0862
   54MOL   F111 6577   7.142   3.188   0.720 -0.4131 -0.1678  0.7417
   54MOL   F112 6578   7.150   2.987   0.728  0.2070  0.1990 -0.5181
   54MOL   C113 6579   7.357   3.088   0.731 -0.3708  0.9254 -0.2654
   54MOL   H114 6580   7.409   3.180   0.706  1.2120 -0.0514 -0.6468
   54MOL   H115 6581   7.412   3.020   0.666  1.4178  0.6407  1.4992
   54MOL   C116 6582   7.389   3.061   0.880 -0.1343  0.1613  0.3052
   54MOL   F117 6583   7.307   3.144   0.951  0.2867  0.2463  0.5117
   54MOL   F118 6584   7.344   2.936   0.900 -0.5287 -0.8160 -0.3395
   54MOL   C119 6585   7.536   3.056   0.911  0.1728  0.3034 -1.0534
   54MOL   H120 6586   7.594   2.968   0.880  0.1939  0.5184 -1.6352
   54MOL   H121 6587   7.550   3.078   1.016  0.9726  0.6540 -1.2229
   54MOL   H122 6588   7.573   3.148   0.866  1.4686  0.9400  1.2357
   55MOL     C1 6589   5.779   0.665   1.357 -0.2601  0.7041  0.6269
   55MOL     F2 6590   5.770   0.588   1.256  0.4020  0.0295 -0.0808
   55MOL     F3 6591   5.801   0.598   1.462 -0.0645 -0.2370  0.3157
   55MOL     C4 6592   5.656   0.746   1.373  0.0850  0.2810  0.1056
   55MOL     H5 6593   5.577   0.674   1.396 -0.5699  0.9051 -0.1668
   55MOL     H6 6594   5.634   0.785   1.274  0.2595 -0.7243 -0.3373
   55MOL     H7 6595   5.873   0.717   1.340 -0.0120 -0.5660 -2.1454
   55MOL     C8 6596   5.654   0.865   1.465  0.0684  0.5640  0.2511
   55MOL     F9 6597   5.754   0.951   1.426  0.4254  0.1879  0.2850
   55MOL    F10 6598   5.531   0.923   1.453  0.6603 -0.3651  0.5126
   55MOL    C11 6599   5.675   0.813   1.614 -0.1431 -0.7474 -0.1837
   55MOL    H12 6600   5.778   0.781   1.634  0.2935  1.1407  0.7657
   55MOL    H13 6601   5.616   0.722   1.625  0.1737 -0.9865 -0.4095
   55MOL    C14 6602   5.640   0.917   1.728  0.0680 -0.5198  0.8013
   55MOL    F15 6603   5.708   1.029   1.703  0.3250 -0.0065 -0.5297
   55MOL    F16 6604   5.513   0.942   1.731  0.0290 -0.5227 -0.0136
   55MOL    C17 6605   5.677   0.861   1.864 -0.4409  0.3746  0.5833
   55MOL    H18 6606   5.786   0.859   1.872 -0.3674 -1.4531 -0.5555
   55MOL    H19 6607   5.646   0.757   1.881  0.2493 -0.2955 -2.0108
   55MOL    C20 6608   5.629   0.935   1.989  0.0209  0.8482 -0.3771
   55MOL    F21 6609   5.641   1.067   1.975 -0.2028  0.2474 -0.1745
   55MOL    F22 6610   5.498   0.905   2.007  0.0949  0.0997  0.2846
   55MOL    C23 6611   5.694   0.888   2.124 -0.5025  0.3157  0.6392
   55MOL    H24 6612   5.802   0.873   2.115 -0.3880  1.1872  0.5174
   55MOL    H25 6613   5.667   0.784   2.143  1.1079 -0.3552 -0.5813
   55MOL    C26 6614   5.665   0.982   2.237 -0.2525 -1.3432 -0.0701
   55MOL    F27 6615   5.742   1.088   2.234  0.2756  0.8235 -0.1427
   55MOL    F28 6616   5.532   1.013   2.258  0.1741 -0.0204  0.1443
   55MOL    C29 6617   5.702   0.937   2.382  0.3015  0.4318 -0.2773
   55MOL    H30 6618   5.632   0.858   2.409  0.3646  0.7812  0.9760
   55MOL    H31 6619   5.679   1.019   2.449  0.1084 -0.0203  0.2170
   55MOL    C32 6620   5.847   0.893   2.414 -0.0717 -0.6267  0.4884
   55MOL    F33 6621   5.861   0.774   2.359  0.1483 -0.2543 -0.0812
   55MOL    F34 6622   5.939   0.981   2.361  0.3584 -0.0360 -0.2871
   55MOL    C35 6623   5.867   0.882   2.565  0.2050 -0.5134  0.5073
   55MOL    H36 6624   5.797   0.807   2.603 -0.9604  0.4989  0.3998
   55MOL    H37 6625   5.847   0.975   2.617  2.5363  1.0349 -1.2457
   55MOL    C38 6626   6.010   0.839   2.604  0.4723 -0.0285  0.2341
   55MOL    F39 6627   6.006   0.817   2.734  0.3628  0.1872  0.2468
   55MOL    F40 6628   6.043   0.722   2.562 -0.3282 -0.2127  0.1156
   55MOL    C41 6629   6.127   0.940   2.581 -0.0768  0.2491  0.0710
   55MOL    H42 6630   6.131   0.977   2.478  2.2977 -0.7404 -0.2186
   55MOL    H43 6631   6.221   0.887   2.595 -0.4041 -0.0657  1.0911
   55MOL    C44 6632   6.132   1.068   2.677 -0.4615  0.1956 -0.4874
   55MOL    F45 6633   6.018   1.128   2.687  0.5782 -0.7100 -0.2423
   55MOL    F46 6634   6.161   1.011   2.793  0.0402 -0.0047  0.1203
   55MOL    C47 6635   6.237   1.181   2.656 -0.0508  0.1249 -0.5720
   55MOL    H48 6636   6.331   1.129   2.639 -0.0503  0.9250 -3.2440
   55MOL    H49 6637   6.253   1.229   2.752  0.0829 -0.1883 -0.4395
   55MOL    C50 6638   6.216   1.284   2.538  0.4874  0.3684 -0.2606
   55MOL    F51 6639   6.153   1.210   2.441 -0.4063 -0.1519  0.0414
   55MOL    F52 6640   6.135   1.378   2.579  0.4328 -0.2190  0.3094
   55MOL    C53 6641   6.349   1.343   2.486  0.1258  0.0513 -0.3782
   55MOL    H54 6642   6.324   1.407   2.401  1.1785  0.1061 -0.6525
   55MOL    H55 6643   6.399   1.260   2.436  2.4580  1.3109 -0.2307
   55MOL    C56 6644   6.444   1.420   2.582 -0.1199  0.3701 -0.3878
   55MOL    F57 6645   6.475   1.333   2.679 -0.3514  0.1680  0.9165
   55MOL    F58 6646   6.556   1.441   2.514  0.0111 -0.0670 -0.0443
   55MOL    C59 6647   6.384   1.554   2.643 -0.0878 -0.5692  0.1291
   55MOL    H60 6648   6.293   1.534   2.701  1.0615  3.0360  3.4273
   55MOL    H61 6649   6.369   1.621   2.559  0.3500  1.1719  1.4164
   55MOL    C62 6650   6.481   1.622   2.739  0.5041  0.1794 -1.3119
   55MOL    F63 6651   6.522   1.528   2.821 -0.2459 -0.1710 -0.2622
   55MOL    F64 6652   6.588   1.684   2.679  0.5354  0.5559  0.1369
   55MOL    C65 6653   6.406   1.729   2.827  0.2148 -0.1612 -0.1146
   55MOL    H66 6654   6.475   1.760   2.906 -0.2558 -2.2612  1.1316
   55MOL    H67 6655   6.335   1.669   2.884  0.9899 -0.5332  0.4822
   55MOL    C68 6656   6.344   1.858   2.768 -0.0838 -0.2116 -0.0118
   55MOL    F69 6657   6.445   1.922   2.702 -0.0179  0.7015  0.4227
   55MOL    F70 6658   6.250   1.811   2.680  0.0226 -0.1964 -0.5311
   55MOL    C71 6659   6.298   1.952   2.881  0.6049  0.0117  0.5911
   55MOL    H72 6660   6.378   1.995   2.942 -0.8025 -0.4765  2.8245
   55MOL    H73 6661   6.238   1.879   2.935 -2.0049  0.2188 -1.9660
   55MOL    C74 6662   6.204   2.066   2.827 -0.5482 -0.2170 -0.5289
   55MOL    F75 6663   6.106   2.012   2.758  0.2146  0.0494 -0.0793
   55MOL    F76 6664   6.141   2.119   2.936 -0.3836 -0.0508  0.3943
   55MOL    C77 6665   6.267   2.182   2.734  0.5278  0.3257  0.4620
   55MOL    H78 6666   6.176   2.232   2.700  0.7266  0.8701  0.7357
   55MOL    H79 6667   6.308   2.141   2.641 -1.4772 -0.4265 -0.1369
   55MOL    C80 6668   6.366   2.283   2.799 -0.2198 -0.5904  0.3166
   55MOL    F81 6669   6.481   2.219   2.817  0.1116  0.1438  0.2101
   55MOL    F82 6670   6.401   2.373   2.704 -0.5730  0.8964 -0.0703
   55MOL    C83 6671   6.307   2.349   2.920  0.3375 -0.5863  0.3913
   55MOL    H84 6672   6.394   2.395   2.967  1.1822 -2.3074  0.5798
   55MOL    H85 6673   6.289   2.263   2.986  1.8840  0.5215  2.3095
   55MOL    C86 6674   6.194   2.451   2.901 -0.3205 -0.0323 -0.6143
   55MOL    F87 6675   6.242   2.556   2.820  0.3057 -0.0203  0.8770
   55MOL    F88 6676   6.099   2.389   2.833 -0.0976  0.1183  0.6156
   55MOL    C89 6677   6.129   2.500   3.031  0.5737 -0.3779 -0.3011
   55MOL    H90 6678   6.204   2.564   3.077  0.6461 -0.9699  0.4226
   55MOL    H91 6679   6.092   2.418   3.093  0.7567 -0.1972  0.0517
   55MOL    C92 6680   6.019   2.603   3.009  0.2817  0.3531  0.1149
   55MOL    F93 6681   6.046   2.689   2.912  0.4077 -0.2620  0.3986
   55MOL    F94 6682   5.899   2.546   2.982 -0.0395  0.3862  0.2717
   55MOL    C95 6683   5.998   2.698   3.131 -0.4720  0.2625 -0.2408
   55MOL    H96 6684   6.091   2.752   3.150  0.9535 -1.5961 -1.8360
   55MOL    H97 6685   5.968   2.646   3.222 -2.3004 -1.1770 -1.6401
   55MOL    C98 6686   5.890   2.815   3.119  0.7537 -0.0607 -0.0662
   55MOL    F99 6687   5.766   2.764   3.118  0.3154 -0.0215  0.3289
   55MOL   F100 6688   5.897   2.873   3.236 -0.2958  0.2545 -0.4256
   55MOL   C101 6689   5.912   2.920   3.016 -0.3214  0.0683 -0.8770
   55MOL   H102 6690   5.822   2.982   3.017  0.9963  2.0671  0.8941
   55MOL   H103 6691   5.923   2.877   2.917 -1.1347 -1.9757 -0.0937
   55MOL   C104 6692   6.038   3.014   3.041 -0.0899  0.6702  0.2285
   55MOL   F105 6693   6.039   3.071   3.162 -0.0968 -0.2263 -0.1255
   55MOL   F106 6694   6.148   2.942   3.017 -0.6217 -0.4150 -0.0542
   55MOL   C107 6695   6.044   3.130   2.942 -0.0863 -0.8236  0.1992
   55MOL   H108 6696   6.114   3.206   2.976 -2.0374  1.7474 -1.3061
   55MOL   H109 6697   5.953   3.188   2.960  1.3030  1.6563 -0.5971
   55MOL   C110 6698   6.043   3.095   2.792  0.1358  0.6437  0.2798
   55MOL   F111 6699   5.934   3.028   2.750  0.0553 -0.3679  0.1442
   55MOL   F112 6700   6.043   3.216   2.733 -0.1934 -0.2766 -1.0372
   55MOL   C113 6701   6.173   3.010   2.748  0.7396 -0.3239 -0.5392
   55MOL   H114 6702   6.164   2.905   2.777 -1.4071  0.4387  1.6856
   55MOL   H115 6703   6.256   3.054   2.805  0.7703 -1.9441  0.6993
   55MOL   C116 6704   6.199   3.000   2.600  0.1804 -0.7694 -0.2506
   55MOL   F117 6705   6.106   2.922   2.549 -0.0280  0.6886 -0.2936
   55MOL   F118 6706   6.180   3.117   2.537 -0.0133  0.2857  0.0112
   55MOL   C119 6707   6.332   2.942   2.570 -0.4497 -0.6770  1.0828
   55MOL   H120 6708   6.418   3.007   2.586 -0.5471 -0.9886  2.9663
   55MOL   H121 6709   6.347   2.878   2.483  1.4310 -0.0688  0.9261
   55MOL   H122 6710   6.349   2.864   2.645  0.8740 -1.0940  0.3634
   56MOL     C1 6711   6.519   5.444   6.752 -0.0913  0.0509  0.3952
   56MOL     F2 6712   6.427   5.503   6.683 -0.1268 -0.2088 -0.1795
   56MOL     F3 6713   6.627   5.517   6.751 -0.0223  0.5005 -0.0625
   56MOL     C4 6714   6.560   5.298   6.688  0.3367  0.3023 -0.2154
   56MOL     H5 6715   6.467   5.252   6.656  0.0090  0.2095  0.8486
   56MOL     H6 6716   6.599   5.235   6.768 -1.7188 -1.0342 -0.2402
   56MOL     H7 6717   6.486   5.436   6.856 -0.3982  0.2701  0.3136
   56MOL     C8 6718   6.658   5.303   6.573  0.6120  0.0158  0.5942
   56MOL     F9 6719   6.641   5.195   6.504 -0.1887  0.6790 -0.2076
   56MOL    F10 6720   6.632   5.398   6.482  0.3778 -0.0318 -0.7776
   56MOL    C11 6721   6.805   5.322   6.610  0.2032  0.4352  1.0026
   56MOL    H12 6722   6.845   5.253   6.684  0.1272  0.3217  0.9383
   56MOL    H13 6723   6.822   5.420   6.653 -0.4091  1.3198 -0.7180
   56MOL    C14 6724   6.906   5.324   6.490  0.5418 -0.2615  0.8510
   56MOL    F15 6725   6.896   5.214   6.415  0.2795  0.2553  0.5883
   56MOL    F16 6726   6.873   5.430   6.413 -0.1975 -0.0893 -0.1529
   56MOL    C17 6727   7.054   5.343   6.532  0.5862 -0.2538 -0.1612
   56MOL    H18 6728   7.119   5.315   6.449  1.1084  0.0404  0.1452
   56MOL    H19 6729   7.067   5.272   6.614  0.9132 -1.2921 -1.0945
   56MOL    C20 6730   7.091   5.481   6.587  0.3893  0.7650  0.1554
   56MOL    F21 6731   7.045   5.580   6.513  0.1456  0.2029  0.5277
   56MOL    F22 6732   7.033   5.495   6.704  0.1463 -0.5169  0.1304
   56MOL    C23 6733   7.234   5.508   6.592 -0.2179 -0.9801 -0.3728
   56MOL    H24 6734   7.262   5.505   6.486  1.0765 -0.0925 -0.0692
   56MOL    H25 6735   7.287   5.424   6.635 -0.0013 -0.9282 -0.5364
   56MOL    C26 6736   7.285   5.641   6.661  1.0809  0.2661  0.6724
   56MOL    F27 6737   7.415   5.649   6.632 -0.0646  0.2200  0.1009
   56MOL    F28 6738   7.230   5.745   6.609 -1.0734 -0.3770  0.0092
   56MOL    C29 6739   7.261   5.636   6.817 -0.3611  1.0829  0.0197
   56MOL    H30 6740   7.244   5.531   6.839  1.5314  0.0575 -3.1018
   56MOL    H31 6741   7.164   5.673   6.851 -1.4841 -3.0974  1.6359
   56MOL    C32 6742   7.368   5.717   6.903 -0.1547 -0.2146  0.0151
   56MOL    F33 6743   7.323   5.711   7.032 -0.0099  0.3093  0.0230
   56MOL    F34 6744   7.480   5.646   6.895 -0.6007  0.6673 -0.7805
   56MOL    C35 6745   7.382   5.863   6.857  0.0576  0.7171 -0.1106
   56MOL    H36 6746   7.288   5.915   6.846 -1.1929 -1.5219 -0.4261
   56MOL    H37 6747   7.430   5.855   6.759  1.4628 -2.8771  0.7870
   56MOL    C38 6748   7.469   5.952   6.949 -0.0839 -0.2309  0.4424
   56MOL    F39 6749   7.397   5.980   7.053  0.6458  0.4467  0.4303
   56MOL    F40 6750   7.575   5.883   6.990 -0.2485 -0.0106  0.4766
   56MOL    C41 6751   7.530   6.084   6.878 -0.2431  0.0182  0.4755
   56MOL    H42 6752   7.448   6.137   6.829  2.3103  1.3277 -2.5154
   56MOL    H43 6753   7.586   6.040   6.795 -2.5959  0.4999 -1.4066
   56MOL    C44 6754   7.614   6.186   6.966 -0.1841 -0.2116 -0.1120
   56MOL    F45 6755   7.647   6.296   6.897 -0.4893 -0.3527 -0.5635
   56MOL    F46 6756   7.547   6.219   7.074 -0.2299  0.0141 -0.4622
   56MOL    C47 6757   7.750   6.128   7.013 -0.4003  0.3171  0.2693
   56MOL    H48 6758   7.727   6.050   7.085 -3.0470  0.2875 -0.5548
   56MOL    H49 6759   7.807   6.206   7.064 -1.2059  1.7193 -0.9427
   56MOL    C50 6760   7.838   6.064   6.900 -0.3955  0.7155 -0.2036
   56MOL    F51 6761   7.793   5.945   6.875  0.5548 -0.1241 -0.0993
   56MOL    F52 6762   7.832   6.137   6.786 -0.4945 -0.1060  0.0300
   56MOL    C53 6763   7.986   6.049   6.942 -0.2904 -0.6330  0.3474
   56MOL    H54 6764   8.007   6.013   7.042  2.5644  1.1834  0.4800
   56MOL    H55 6765   8.022   6.152   6.949  0.3041 -0.8389  0.3700
   56MOL    C56 6766   8.080   5.971   6.843 -0.1966 -0.0006 -0.0158
   56MOL    F57 6767   8.038   5.844   6.832  0.7966 -0.2456  0.3410
   56MOL    F58 6768   8.067   6.024   6.718  0.0312 -0.1064  0.0644
   56MOL    C59 6769   8.229   5.960   6.880  0.0611 -0.1933  0.7300
   56MOL    H60 6770   8.238   5.926   6.984 -1.9286  2.4109  1.8133
   56MOL    H61 6771   8.275   6.059   6.875  0.3569 -0.4255 -1.7053
   56MOL    C62 6772   8.311   5.866   6.795 -0.0113 -0.8651 -0.1550
   56MOL    F63 6773   0.085   5.860   6.844 -0.1770  0.3311  0.1689
   56MOL    F64 6774   8.255   5.738   6.797 -0.0738  0.1962  0.4373
   56MOL    C65 6775   8.304   5.907   6.645 -0.3825 -0.1822  0.3790
   56MOL    H66 6776   8.333   6.012   6.643 -3.5941  0.7649  0.0821
   56MOL    H67 6777   8.204   5.894   6.604 -0.0174  1.1103 -0.9403
   56MOL    C68 6778   0.052   5.820   6.564 -0.2134 -0.0449 -0.7810
   56MOL    F69 6779   0.178   5.831   6.605 -0.1393  0.4849  0.2353
   56MOL    F70 6780   0.012   5.694   6.585  0.3242  0.2463  0.1827
   56MOL    C71 6781   0.063   5.852   6.411  0.7538  1.1926 -0.4595
   56MOL    H72 6782   8.318   5.816   6.369 -0.8075  2.8906  1.5307
   56MOL    H73 6783   0.149   5.803   6.366 -0.0134 -1.1426  0.5088
   56MOL    C74 6784   0.081   6.004   6.388  0.4450 -0.2186 -0.1025
   56MOL    F75 6785   8.313   6.063   6.407 -0.3662  0.6298  0.1096
   56MOL    F76 6786   0.163   6.058   6.475 -0.0241 -0.1923 -0.4450
   56MOL    C77 6787   0.132   6.029   6.243  0.0122 -0.8827  0.6956
   56MOL    H78 6788   0.055   5.990   6.178  0.3519 -1.3552  0.5739
   56MOL    H79 6789   0.217   5.964   6.220  1.7327  1.2049  0.9222
   56MOL    C80 6790   0.169   6.175   6.206  0.5643 -0.4095  0.3769
   56MOL    F81 6791   0.286   6.215   6.261 -0.2331  0.8131  0.1410
   56MOL    F82 6792   0.179   6.178   6.073 -0.0384  0.1155  0.2976
   56MOL    C83 6793   0.065   6.278   6.239  0.2324 -0.3452  0.3875
   56MOL    H84 6794   0.056   6.282   6.347  0.7503 -0.1072  0.4234
   56MOL    H85 6795   8.313   6.247   6.216 -0.7104  1.3125  2.0992
   56MOL    C86 6796   0.082   6.422   6.185 -1.1213  0.5390 -0.0547
   56MOL    F87 6797   0.099   6.439   6.055  0.1168 -0.0509  0.0567
   56MOL    F88 6798   8.321   6.484   6.220 -0.0830  0.5449  0.1042
   56MOL    C89 6799   0.201   6.492   6.251  0.3046 -0.4781  0.3652
   56MOL    H90 6800   0.287   6.460   6.193  0.7386  1.5167 -0.1430
   56MOL    H91 6801   0.218   6.452   6.351 -0.0192  0.0931  0.6518
   56MOL    C92 6802   0.197   6.648   6.243  0.0627 -0.0914 -0.4869
   56MOL    F93 6803   0.186   6.673   6.111 -0.3733  0.3503  0.7360
   56MOL    F94 6804   0.083   6.677   6.314  0.6577 -0.2435  0.0616
   56MOL    C95 6805   0.319   6.721   6.297 -0.2669  0.0782 -0.4140
   56MOL    H96 6806   0.407   6.682   6.246  0.5413  1.2369  0.0601
   56MOL    H97 6807   0.336   6.708   6.404  1.3641  0.3118 -0.6257
   56MOL    C98 6808   0.314   6.873   6.293 -0.2423  0.3513  0.0467
   56MOL    F99 6809   0.434   6.930   6.298 -0.2083 -0.2938  0.4165
   56MOL   F100 6810   0.255   6.896   6.174 -0.0150  0.0658  0.2455
   56MOL   C101 6811   0.235   6.935   6.409  0.0122  0.1108 -0.2728
   56MOL   H102 6812   0.283   6.905   6.502  0.0849  1.3042  0.0811
   56MOL   H103 6813   0.136   6.891   6.415 -0.9149  1.8731 -2.0009
   56MOL   C104 6814   0.218   7.089   6.412  0.1767  0.0369 -0.2942
   56MOL   F105 6815   0.344   7.142   6.430 -0.1224 -0.6444  0.1751
   56MOL   F106 6816   0.174   7.132   6.292 -0.2548  0.2096 -0.3693
   56MOL   C107 6817   0.130   7.132   6.529  0.5720  0.5922  0.2018
   56MOL   H108 6818   0.165   7.087   6.622 -0.7381 -0.6237  0.1353
   56MOL   H109 6819   0.037   7.079   6.507  1.0126  0.8871 -2.6019
   56MOL   C110 6820   0.127   7.287   6.551  0.1304  0.1702  0.2976
   56MOL   F111 6821   0.232   7.316   6.617  0.1150 -0.5666 -0.4855
   56MOL   F112 6822   0.127   7.347   6.436 -0.2255 -0.1591  0.1384
   56MOL   C113 6823   8.348   7.327   6.631 -0.0913 -0.8506  0.1062
   56MOL   H114 6824   0.004   7.435   6.618 -0.0200 -1.1903 -3.1204
   56MOL   H115 6825   0.009   7.296   6.735 -3.0173  2.8613  1.6268
   56MOL   C116 6826   8.214   7.278   6.571 -0.0967  0.1905  0.5466
   56MOL   F117 6827   8.189   7.149   6.599  0.1176 -0.5002  0.6551
   56MOL   F118 6828   8.115   7.357   6.625 -0.0351  0.2028  0.6290
   56MOL   C119 6829   8.196   7.289   6.424 -0.0239 -0.0224  0.1791
   56MOL   H120 6830   8.259   7.217   6.372 -0.5354 -1.7749  1.8995
   56MOL   H121 6831   8.227   7.388   6.390  2.6688 -1.1869 -0.8595
   56MOL   H122 6832   8.093   7.262   6.398  0.2983 -0.3782 -0.7365
   57MOL     C1 6833   5.521   5.204   6.430  0.0948  0.2950  0.2394
   57MOL     F2 6834   5.560   5.149   6.544 -0.3427 -0.3342  0.2606
   57MOL     F3 6835   5.542   5.114   6.336  0.2381  0.0102  0.0086
   57MOL     C4 6836   5.618   5.320   6.402 -0.0842 -0.0411 -0.8051
   57MOL     H5 6837   5.715   5.292   6.361  0.6128  0.1955  0.6548
   57MOL     H6 6838   5.642   5.383   6.488 -0.6623  2.0504 -2.1420
   57MOL     H7 6839   5.415   5.225   6.440 -0.0872 -0.2099 -0.5668
   57MOL     C8 6840   5.559   5.403   6.292  1.0536  0.7601  0.0037
   57MOL     F9 6841   5.447   5.462   6.340 -0.4652 -0.5008 -0.0289
   57MOL    F10 6842   5.644   5.502   6.257  0.4057  0.1395 -0.3419
   57MOL    C11 6843   5.528   5.333   6.159 -0.2534 -0.0119  0.2604
   57MOL    H12 6844   5.454   5.255   6.175 -0.9192  0.8526  1.5437
   57MOL    H13 6845   5.616   5.291   6.111 -0.5399 -1.4204  0.9488
   57MOL    C14 6846   5.461   5.423   6.053  1.2112  0.4485  0.6548
   57MOL    F15 6847   5.353   5.467   6.108 -0.2110 -0.1728 -0.0813
   57MOL    F16 6848   5.535   5.530   6.041 -0.0233  0.3076 -0.1939
   57MOL    C17 6849   5.437   5.366   5.911  0.1319  0.0609 -0.2086
   57MOL    H18 6850   5.534   5.335   5.875  1.2792  1.8431  1.2563
   57MOL    H19 6851   5.402   5.452   5.853  1.1297  1.0290  0.5890
   57MOL    C20 6852   5.342   5.242   5.909  0.1550 -0.4043 -0.9632
   57MOL    F21 6853   5.409   5.132   5.938 -0.2056  0.1985  0.1588
   57MOL    F22 6854   5.247   5.258   6.002  0.1944  0.0777 -0.2336
   57MOL    C23 6855   5.281   5.221   5.773 -0.6160  0.5726 -0.0416
   57MOL    H24 6856   5.215   5.302   5.741  1.7184  1.8074 -1.8726
   57MOL    H25 6857   5.213   5.136   5.785 -2.0201  1.8003  0.8878
   57MOL    C26 6858   5.374   5.208   5.657 -0.2683 -0.1621  0.5997
   57MOL    F27 6859   5.426   5.327   5.627 -0.1931 -0.3072 -0.0606
   57MOL    F28 6860   5.474   5.120   5.682 -0.1884 -0.5719 -0.0844
   57MOL    C29 6861   5.282   5.160   5.539  0.5009 -0.7226  0.6728
   57MOL    H30 6862   5.207   5.237   5.526  0.6446 -0.3262  2.0976
   57MOL    H31 6863   5.227   5.073   5.575 -0.3751  0.2201  1.6258
   57MOL    C32 6864   5.359   5.130   5.410  0.2456 -0.2208 -0.4850
   57MOL    F33 6865   5.256   5.108   5.329 -0.0851 -0.0333  0.0673
   57MOL    F34 6866   5.426   5.231   5.366 -0.2126 -0.0766  0.3289
   57MOL    C35 6867   5.440   4.996   5.404  0.2541 -0.1407  0.4449
   57MOL    H36 6868   5.386   4.919   5.460 -3.4425  0.7012 -1.7929
   57MOL    H37 6869   5.534   5.016   5.456 -0.1820  1.4742  0.6316
   57MOL    C38 6870   5.476   4.944   5.263 -0.3557 -0.3345  0.2767
   57MOL    F39 6871   5.516   5.041   5.181 -0.4402  0.0287  0.1041
   57MOL    F40 6872   5.573   4.850   5.277  1.1392 -0.1078  0.6154
   57MOL    C41 6873   5.363   4.870   5.187 -0.6593  0.9963  0.2200
   57MOL    H42 6874   5.414   4.828   5.100  0.8941  2.3129  0.4670
   57MOL    H43 6875   5.290   4.942   5.149 -1.2289  0.1187 -0.3572
   57MOL    C44 6876   5.272   4.771   5.261  0.2811 -0.4959 -0.0267
   57MOL    F45 6877   5.191   4.829   5.352 -0.4156 -0.5244  0.6099
   57MOL    F46 6878   5.186   4.735   5.164 -0.2507  0.2397 -0.3715
   57MOL    C47 6879   5.338   4.639   5.321  0.0802 -0.1565  0.4783
   57MOL    H48 6880   5.425   4.674   5.375  1.2776 -1.6672 -0.4179
   57MOL    H49 6881   5.374   4.591   5.230 -1.3157  0.0579 -0.2036
   57MOL    C50 6882   5.247   4.553   5.418 -0.5643  0.4821 -0.1003
   57MOL    F51 6883   5.141   4.527   5.347  0.5802  0.2503  0.5262
   57MOL    F52 6884   5.318   4.443   5.439 -0.2217  0.2992  0.3077
   57MOL    C53 6885   5.215   4.624   5.558  0.2358 -0.1616 -0.3257
   57MOL    H54 6886   5.160   4.717   5.539 -0.0383 -0.4116 -0.7451
   57MOL    H55 6887   5.303   4.653   5.615 -1.5209  0.9313  1.9227
   57MOL    C56 6888   5.112   4.540   5.643  0.5220  0.1878  0.2229
   57MOL    F57 6889   5.182   4.435   5.669  0.2589 -0.1605 -0.1693
   57MOL    F58 6890   5.106   4.610   5.749  0.2274 -0.5844 -0.0459
   57MOL    C59 6891   4.974   4.524   5.587  0.0506  0.3091  0.2826
   57MOL    H60 6892   4.967   4.456   5.502  0.4121 -0.3109  0.7431
   57MOL    H61 6893   4.942   4.618   5.543  1.1761  1.9537  2.8315
   57MOL    C62 6894   4.856   4.489   5.688 -0.4073 -0.0893  0.4966
   57MOL    F63 6895   4.841   4.572   5.785  0.2820 -0.4159 -0.3305
   57MOL    F64 6896   4.749   4.485   5.613  0.7196 -0.0094  0.0909
   57MOL    C65 6897   4.886   4.348   5.745  0.0861 -0.4675 -0.2444
   57MOL    H66 6898   4.973   4.356   5.811 -0.4434 -1.4643  0.5867
   57MOL    H67 6899   4.906   4.281   5.662  0.0792  1.5343 -1.8968
   57MOL    C68 6900   4.774   4.280   5.825 -0.0175  0.4298  0.0761
   57MOL    F69 6901   4.767   4.353   5.938 -0.1096  0.3174 -0.2171
   57MOL    F70 6902   4.650   4.270   5.762  0.0269  1.0118 -0.0821
   57MOL    C71 6903   4.826   4.134   5.869 -0.1182  0.3857  0.2979
   57MOL    H72 6904   4.926   4.140   5.912  0.6658  0.2490 -1.4887
   57MOL    H73 6905   4.838   4.076   5.777 -0.5759 -1.0970  1.1438
   57MOL    C74 6906   4.729   4.052   5.960 -1.1817  0.7146  0.1200
   57MOL    F75 6907   4.622   4.022   5.891  0.2282 -0.0869 -0.2794
   57MOL    F76 6908   4.799   3.940   5.980 -0.5899  0.4906  1.0349
   57MOL    C77 6909   4.692   4.123   6.092  0.5596  0.3383  0.2049
   57MOL    H78 6910   4.633   4.207   6.057  2.0613 -0.0793 -3.5511
   57MOL    H79 6911   4.774   4.165   6.151 -1.2947  0.7401  2.5614
   57MOL    C80 6912   4.606   4.043   6.186  0.6717  0.6408 -0.2107
   57MOL    F81 6913   4.553   4.135   6.269 -0.5530 -0.4071  0.6157
   57MOL    F82 6914   4.514   3.977   6.122 -0.3546  0.2632 -0.3399
   57MOL    C83 6915   4.697   3.960   6.283  0.3723  0.2804  0.2445
   57MOL    H84 6916   4.767   4.028   6.331  1.1420  0.4752 -1.1128
   57MOL    H85 6917   4.774   3.901   6.235  0.5958  1.3878 -0.7857
   57MOL    C86 6918   4.621   3.874   6.390  0.0860 -0.1774  0.3161
   57MOL    F87 6919   4.708   3.833   6.480  0.1406  0.3113  0.3276
   57MOL    F88 6920   4.538   3.947   6.455  0.7831 -0.1583  0.4065
   57MOL    C89 6921   4.550   3.759   6.327  0.4510  0.8443  0.1896
   57MOL    H90 6922   4.633   3.721   6.266  0.7982  1.0846  0.5108
   57MOL    H91 6923   4.476   3.801   6.259 -2.9506 -1.7891  2.1512
   57MOL    C92 6924   4.488   3.649   6.429  0.7923 -0.1439 -0.3654
   57MOL    F93 6925   4.440   3.544   6.366  0.5561  0.4668  0.0163
   57MOL    F94 6926   4.594   3.602   6.503  0.4386 -0.0022 -0.2488
   57MOL    C95 6927   4.377   3.704   6.523  0.1245  0.9235  0.2615
   57MOL    H96 6928   4.408   3.799   6.566  4.0405  0.5887 -1.5301
   57MOL    H97 6929   4.355   3.636   6.606 -0.3418  1.3990  0.5239
   57MOL    C98 6930   4.246   3.729   6.438  0.2073 -0.2985 -0.1687
   57MOL    F99 6931   4.267   3.820   6.343  0.1867  0.2581  0.1639
   57MOL   F100 6932   4.199   3.612   6.389  0.0541 -0.2135  0.2238
   57MOL   C101 6933   4.128   3.793   6.520 -0.0369  0.1700 -0.5639
   57MOL   H102 6934   4.067   3.711   6.558 -1.8942  2.4855  1.6230
   57MOL   H103 6935   4.062   3.835   6.444 -1.3426  0.5128  0.7424
   57MOL   C104 6936   4.162   3.904   6.626 -0.0966 -0.0927 -0.3229
   57MOL   F105 6937   4.234   3.856   6.722  0.2593  0.2556 -0.1532
   57MOL   F106 6938   4.236   4.001   6.566 -0.0079  0.1066 -0.3670
   57MOL   C107 6939   4.037   3.959   6.691 -0.2558  0.0157 -0.0598
   57MOL   H108 6940   3.988   3.891   6.761 -0.0170  1.0573  1.1559
   57MOL   H109 6941   3.961   3.982   6.617  0.8961  0.5326 -1.1099
   57MOL   C110 6942   4.059   4.103   6.753  0.5495  0.1953 -0.0465
   57MOL   F111 6943   4.161   4.085   6.826 -0.3223 -0.4488  0.0218
   57MOL   F112 6944   4.090   4.200   6.662  0.4686 -0.2016 -0.2707
   57MOL   C113 6945   3.942   4.167   6.834 -0.3848  0.4034  0.3537
   57MOL   H114 6946   3.977   4.264   6.868 -0.0389  0.1404  0.7725
   57MOL   H115 6947   3.921   4.116   6.928  1.6022 -2.5336 -0.6986
   57MOL   C116 6948   3.810   4.183   6.759  0.3168 -0.0838  0.2220
   57MOL   F117 6949   3.755   4.065   6.728 -0.0960  0.1028 -0.0237
   57MOL   F118 6950   3.736   4.240   6.853  0.1764 -0.3309  0.2731
   57MOL   C119 6951   3.818   4.278   6.635 -0.7247 -0.7164 -1.1092
   57MOL   H120 6952   3.876   4.368   6.656  0.9622 -2.0983  0.3354
   57MOL   H121 6953   3.723   4.322   6.605 -0.3445  1.3775  0.6229
   57MOL   H122 6954   3.854   4.228   6.544  0.8553  0.9093 -1.4060
   58MOL     C1 6955   6.368   4.941   5.529 -0.3707  0.2612  0.6641
   58MOL     F2 6956   6.282   4.966   5.631 -0.4102 -0.3840 -0.1048
   58MOL     F3 6957   6.298   4.905   5.422  0.0799 -0.3862  0.1835
   58MOL     C4 6958   6.471   4.834   5.562  0.1589 -0.4165 -0.1931
   58MOL     H5 6959   6.537   4.828   5.476  1.5690 -0.0654  0.8506
   58MOL     H6 6960   6.426   4.736   5.546  0.9184 -1.1009  1.6927
   58MOL     H7 6961   6.415   5.039   5.514  0.2150 -0.2587 -1.0990
   58MOL     C8 6962   6.547   4.857   5.697 -0.0738  0.1378  0.3214
   58MOL     F9 6963   6.458   4.809   5.787  0.0220  0.3781  0.4627
   58MOL    F10 6964   6.653   4.778   5.706 -0.1854 -0.3804  0.5934
   58MOL    C11 6965   6.586   5.002   5.730  0.1044 -0.2572 -0.0838
   58MOL    H12 6966   6.627   4.996   5.830  0.5823 -0.4580 -0.2880
   58MOL    H13 6967   6.494   5.059   5.736 -0.1634 -0.5698 -1.1264
   58MOL    C14 6968   6.682   5.067   5.634 -0.1655 -0.5529 -0.7859
   58MOL    F15 6969   6.647   5.037   5.506 -0.3266 -0.1184 -0.4250
   58MOL    F16 6970   6.676   5.204   5.652  0.3711  0.1284  0.0763
   58MOL    C17 6971   6.826   5.026   5.660  0.3136 -0.3196 -0.1997
   58MOL    H18 6972   6.834   4.920   5.636 -0.3056 -0.3491 -0.2791
   58MOL    H19 6973   6.849   5.027   5.767  1.7238  1.8276 -0.4839
   58MOL    C20 6974   6.932   5.115   5.582 -0.5061 -0.3639 -0.7736
   58MOL    F21 6975   6.911   5.239   5.621 -0.1613  0.3986 -0.7494
   58MOL    F22 6976   7.051   5.081   5.632 -0.0327  0.1569  0.0416
   58MOL    C23 6977   6.923   5.096   5.432 -0.1917  0.3854  0.1964
   58MOL    H24 6978   6.985   5.171   5.384  1.3127 -1.6297 -1.0612
   58MOL    H25 6979   6.825   5.120   5.391 -0.2680 -1.1791 -0.5721
   58MOL    C26 6980   6.964   4.964   5.374  0.1639  0.3310 -0.4775
   58MOL    F27 6981   7.082   4.926   5.425  0.2436 -0.1048  0.6125
   58MOL    F28 6982   6.880   4.864   5.408 -0.0121 -0.1978  0.0009
   58MOL    C29 6983   6.972   4.965   5.214  0.6957  0.1312  0.4183
   58MOL    H30 6984   7.002   4.866   5.179 -2.0849 -0.9446  0.9461
   58MOL    H31 6985   7.061   5.021   5.183 -0.6158  1.8794 -0.3013
   58MOL    C32 6986   6.859   5.026   5.126  0.2874 -0.6241  0.1789
   58MOL    F33 6987   6.738   4.974   5.148  0.2281  0.3820 -0.1749
   58MOL    F34 6988   6.854   5.158   5.152 -0.2105 -0.2159  0.1450
   58MOL    C35 6989   6.890   4.995   4.974 -0.2505 -0.0186  0.6388
   58MOL    H36 6990   6.861   4.892   4.957  1.8273 -0.7275  1.3327
   58MOL    H37 6991   6.992   5.018   4.944 -0.6081 -0.5773 -1.0904
   58MOL    C38 6992   6.812   5.071   4.864  0.3942 -1.0185  1.1020
   58MOL    F39 6993   6.682   5.072   4.887  0.5260 -0.7359  0.2938
   58MOL    F40 6994   6.851   5.198   4.881 -0.4194  0.2339 -0.4790
   58MOL    C41 6995   6.843   5.035   4.712 -0.2678  0.4291 -0.5238
   58MOL    H42 6996   6.803   4.935   4.694  1.3572 -0.5227  0.8620
   58MOL    H43 6997   6.949   5.023   4.687 -0.5540  1.1099 -2.0696
   58MOL    C44 6998   6.785   5.135   4.611  0.1288  0.3170  0.0324
   58MOL    F45 6999   6.655   5.138   4.637 -0.2197 -0.2885  0.1733
   58MOL    F46 7000   6.831   5.256   4.618 -0.1681 -0.1187 -0.0053
   58MOL    C47 7001   6.810   5.086   4.468  0.4328  0.1368 -0.3589
   58MOL    H48 7002   6.758   4.990   4.457  2.3580 -0.9382 -0.3244
   58MOL    H49 7003   6.915   5.066   4.446  0.2391 -0.7497 -0.5219
   58MOL    C50 7004   6.758   5.187   4.360  0.4498 -0.3720  0.2360
   58MOL    F51 7005   6.628   5.208   4.391  0.1692 -0.4793 -0.2483
   58MOL    F52 7006   6.829   5.300   4.354 -0.1412  0.0721 -0.3763
   58MOL    C53 7007   6.776   5.119   4.224  0.2467  0.3837 -0.1882
   58MOL    H54 7008   6.696   5.046   4.209  1.6868 -1.4554  0.8508
   58MOL    H55 7009   6.862   5.051   4.227 -0.8449 -1.0769 -1.2393
   58MOL    C56 7010   6.782   5.211   4.101 -0.5358  0.2816  0.5991
   58MOL    F57 7011   6.665   5.267   4.116 -0.4068 -0.0495  0.3355
   58MOL    F58 7012   6.882   5.296   4.125 -0.3556  0.0560 -0.0453
   58MOL    C59 7013   6.797   5.148   3.957 -0.1784  0.1235 -0.2815
   58MOL    H60 7014   6.901   5.128   3.930 -0.2658 -1.4074  0.4492
   58MOL    H61 7015   6.758   5.221   3.886 -2.4789  0.1887  0.9946
   58MOL    C62 7016   6.717   5.021   3.925 -0.0397 -0.1269  0.1506
   58MOL    F63 7017   6.751   4.972   3.804 -0.2421  0.0514  0.0396
   58MOL    F64 7018   6.749   4.922   4.009  0.2933 -0.4733 -0.7656
   58MOL    C65 7019   6.562   5.033   3.932  0.4623 -0.2399  0.1451
   58MOL    H66 7020   6.536   5.116   3.866 -0.1966 -1.5639 -1.3057
   58MOL    H67 7021   6.535   5.066   4.032 -0.5316  0.3496 -0.3048
   58MOL    C68 7022   6.473   4.910   3.907  0.1014  0.3917  0.0582
   58MOL    F69 7023   6.500   4.816   4.002  0.1500 -0.3782 -0.1802
   58MOL    F70 7024   6.351   4.945   3.927  0.1708 -0.2627  0.2808
   58MOL    C71 7025   6.481   4.844   3.768 -0.3924  0.0296  1.0152
   58MOL    H72 7026   6.438   4.744   3.773 -0.1125 -0.1628 -0.3617
   58MOL    H73 7027   6.586   4.814   3.764 -0.4753 -0.3710  1.6912
   58MOL    C74 7028   6.448   4.924   3.635 -0.5536 -0.2287  0.4708
   58MOL    F75 7029   6.541   5.022   3.633 -0.0962  0.1970  0.0012
   58MOL    F76 7030   6.473   4.838   3.544 -0.2801 -0.3089 -0.3365
   58MOL    C77 7031   6.306   4.980   3.633  0.2003  0.0434  0.3100
   58MOL    H78 7032   6.287   5.046   3.718 -1.6373 -1.5007  1.1537
   58MOL    H79 7033   6.242   4.894   3.653 -0.6856  1.2535  2.9663
   58MOL    C80 7034   6.263   5.062   3.511 -1.0369  0.3848  0.0179
   58MOL    F81 7035   6.137   5.099   3.542 -0.4472  0.2456 -0.1151
   58MOL    F82 7036   6.342   5.168   3.515 -0.0816  0.6432 -0.2546
   58MOL    C83 7037   6.271   4.984   3.374 -0.1777 -1.5869 -0.6208
   58MOL    H84 7038   6.225   4.885   3.376 -0.3513 -1.4876  2.1138
   58MOL    H85 7039   6.374   4.961   3.349  0.0556  1.1276 -2.3759
   58MOL    C86 7040   6.199   5.058   3.256 -0.5194  0.5540 -0.0160
   58MOL    F87 7041   6.069   5.046   3.279  0.6197 -0.0971 -0.0519
   58MOL    F88 7042   6.232   5.184   3.262 -0.4429  0.3617  0.5301
   58MOL    C89 7043   6.220   5.002   3.118  0.0194 -0.0761  0.2441
   58MOL    H90 7044   6.199   5.081   3.046 -2.6087 -0.8571  0.1082
   58MOL    H91 7045   6.167   4.907   3.112  1.5587 -0.9132 -0.3955
   58MOL    C92 7046   6.368   4.979   3.079  0.4177 -0.8641 -0.5000
   58MOL    F93 7047   6.432   5.083   3.130  0.7663 -0.8643  0.0361
   58MOL    F94 7048   6.411   4.875   3.146 -0.6605 -0.6884  0.0551
   58MOL    C95 7049   6.416   4.967   2.938  0.3254 -0.1985  0.5450
   58MOL    H96 7050   6.523   4.948   2.943  0.4270 -0.0719 -0.9431
   58MOL    H97 7051   6.400   5.063   2.889  1.4646 -1.2493 -1.9883
   58MOL    C98 7052   6.342   4.862   2.848 -0.5413 -0.1359  0.1553
   58MOL    F99 7053   6.349   4.740   2.900  0.0337 -0.2221  0.6048
   58MOL   F100 7054   6.214   4.892   2.839 -0.0547 -0.2738 -0.0570
   58MOL   C101 7055   6.407   4.851   2.708  0.4853 -0.1763 -0.2143
   58MOL   H102 7056   6.514   4.844   2.726  0.1659 -2.1509  1.0722
   58MOL   H103 7057   6.403   4.945   2.653  1.4508 -0.6645 -1.1467
   58MOL   C104 7058   6.359   4.736   2.611 -0.4933 -0.5551  0.0612
   58MOL   F105 7059   6.444   4.739   2.518  0.3547 -0.3599 -0.2552
   58MOL   F106 7060   6.361   4.616   2.671  0.1074  0.7216 -0.3803
   58MOL   C107 7061   6.224   4.760   2.545  0.8245 -0.5197 -0.2147
   58MOL   H108 7062   6.157   4.739   2.628  0.1169 -3.7795 -1.5290
   58MOL   H109 7063   6.211   4.673   2.480  0.8402 -2.1063  1.8776
   58MOL   C110 7064   6.198   4.896   2.480 -0.3077 -0.4372  0.0517
   58MOL   F111 7065   6.183   4.988   2.577  0.1128  0.4799 -0.0003
   58MOL   F112 7066   6.294   4.918   2.395  0.1328  0.1167 -0.8934
   58MOL   C113 7067   6.056   4.900   2.408  0.6407  0.2729 -0.2687
   58MOL   H114 7068   5.980   4.863   2.477 -1.9530  0.4011 -2.9573
   58MOL   H115 7069   6.056   4.822   2.332  1.1214  0.5066 -0.5142
   58MOL   C116 7070   6.019   5.028   2.342  0.1336  0.1234 -0.4098
   58MOL   F117 7071   6.105   5.075   2.252  0.2523  0.7094  0.1175
   58MOL   F118 7072   5.913   5.003   2.277  0.1689 -0.5395  0.0757
   58MOL   C119 7073   5.985   5.140   2.440 -0.1330  0.1536  0.8753
   58MOL   H120 7074   5.921   5.098   2.517 -0.5353 -0.0676  0.4182
   58MOL   H121 7075   5.935   5.214   2.378 -0.4777 -0.5476  0.3018
   58MOL   H122 7076   6.070   5.186   2.490 -0.7172  1.7834  0.3768
   59MOL     C1 7077   0.246   4.376   2.626  0.2590  0.2411  0.4231
   59MOL     F2 7078   0.271   4.478   2.545 -0.8599 -0.2282  0.4564
   59MOL     F3 7079   0.356   4.352   2.689 -0.2724 -0.0718 -0.1201
   59MOL     C4 7080   0.177   4.260   2.557 -0.3390 -0.7692 -0.0032
   59MOL     H5 7081   0.152   4.192   2.638  2.3913 -2.8539 -0.8235
   59MOL     H6 7082   0.245   4.213   2.485 -1.3854  0.5434 -1.9135
   59MOL     H7 7083   0.171   4.413   2.695 -0.1051  2.1794 -0.9459
   59MOL     C8 7084   0.048   4.293   2.482 -0.2064  0.1769  0.7141
   59MOL     F9 7085   8.311   4.340   2.573 -0.1888 -0.2182  0.0620
   59MOL    F10 7086   0.081   4.389   2.395  0.3458 -0.5693  0.0664
   59MOL    C11 7087   8.349   4.168   2.411 -1.1699  0.4510  0.2252
   59MOL    H12 7088   8.318   4.095   2.487  0.4201 -1.6564 -1.1253
   59MOL    H13 7089   0.081   4.122   2.356 -1.0323  1.2687 -0.2585
   59MOL    C14 7090   8.230   4.188   2.313 -0.5374  0.2478 -0.6991
   59MOL    F15 7091   8.128   4.239   2.381 -0.3087  0.6960  0.1547
   59MOL    F16 7092   8.274   4.274   2.228 -0.2311  0.4304  0.3152
   59MOL    C17 7093   8.178   4.062   2.244  0.4808 -0.4290  0.1792
   59MOL    H18 7094   8.139   3.991   2.318  0.3894  0.5299  1.0712
   59MOL    H19 7095   8.259   4.004   2.199  0.7634  0.6370 -0.6907
   59MOL    C20 7096   8.068   4.091   2.133  0.0255 -0.4788 -0.1167
   59MOL    F21 7097   7.950   4.135   2.180 -0.1174 -0.1954  0.0618
   59MOL    F22 7098   8.115   4.191   2.057  0.2774  0.5832 -0.3824
   59MOL    C23 7099   8.048   3.980   2.029  0.3515  0.4269 -0.1713
   59MOL    H24 7100   8.150   3.952   2.000  1.1161  0.2587  2.5481
   59MOL    H25 7101   7.989   4.015   1.944  1.1420 -0.3778 -1.0622
   59MOL    C26 7102   7.976   3.853   2.079 -0.5277 -0.1085 -0.0103
   59MOL    F27 7103   8.028   3.812   2.192  0.2964  0.3763 -0.5170
   59MOL    F28 7104   7.850   3.879   2.106  0.5980 -0.1902  0.4962
   59MOL    C29 7105   7.987   3.736   1.984  0.0312  0.1093  0.3329
   59MOL    H30 7106   7.917   3.662   2.021 -0.4009  0.7176  0.7341
   59MOL    H31 7107   8.092   3.706   1.992  0.5592  0.3094 -4.1619
   59MOL    C32 7108   7.935   3.750   1.845  0.1398 -0.6767 -0.2315
   59MOL    F33 7109   7.820   3.810   1.855  0.0579 -0.3665  0.1109
   59MOL    F34 7110   8.026   3.833   1.786 -0.3348  0.2956 -0.0594
   59MOL    C35 7111   7.902   3.623   1.756  0.2391  0.3084 -0.0489
   59MOL    H36 7112   7.859   3.654   1.661  1.2173  1.9712  0.0445
   59MOL    H37 7113   7.820   3.576   1.810  0.0875 -0.4280 -0.9074
   59MOL    C38 7114   8.017   3.518   1.749  0.2260  0.3912  0.5786
   59MOL    F39 7115   8.134   3.571   1.709 -0.3150  0.2982 -0.2420
   59MOL    F40 7116   8.033   3.468   1.869  0.1884  0.1430 -0.2986
   59MOL    C41 7117   7.981   3.407   1.656  0.0837  0.0589  0.2270
   59MOL    H42 7118   7.957   3.454   1.561  1.7407  1.3114  0.4017
   59MOL    H43 7119   7.887   3.367   1.695  1.7728 -3.7923  0.5800
   59MOL    C44 7120   8.082   3.290   1.634  0.5051 -0.6396  0.1663
   59MOL    F45 7121   8.207   3.320   1.600  0.0923  0.7286  0.0018
   59MOL    F46 7122   8.077   3.226   1.747 -0.4625 -0.7873 -0.0802
   59MOL    C47 7123   8.037   3.190   1.531 -0.0994  0.3873 -0.4403
   59MOL    H48 7124   7.937   3.148   1.547 -0.5778  0.6341 -2.6661
   59MOL    H49 7125   8.101   3.102   1.532  0.2448  0.6329 -0.8330
   59MOL    C50 7126   8.042   3.216   1.379 -0.1072 -0.7468  0.6072
   59MOL    F51 7127   7.937   3.297   1.359  0.1099 -0.2532  0.5288
   59MOL    F52 7128   8.158   3.272   1.355  0.3478  0.4527 -0.3361
   59MOL    C53 7129   8.034   3.085   1.303 -0.4966  0.7090  0.0676
   59MOL    H54 7130   7.940   3.034   1.321  0.4425 -0.7241  1.0223
   59MOL    H55 7131   8.115   3.014   1.322 -1.5207 -0.8050 -1.0688
   59MOL    C56 7132   8.042   3.090   1.148  0.4048 -0.3932 -0.1073
   59MOL    F57 7133   7.976   3.192   1.101  0.7908  0.0371 -1.0254
   59MOL    F58 7134   8.176   3.125   1.129 -0.5832  0.3472 -0.3966
   59MOL    C59 7135   8.009   2.958   1.070  0.0539  0.5741 -0.0507
   59MOL    H60 7136   7.912   2.925   1.105  1.1422  0.3519  2.8952
   59MOL    H61 7137   8.084   2.883   1.096 -0.3023  0.1473 -0.2494
   59MOL    C62 7138   8.016   2.979   0.921 -0.1065  0.5101 -0.5388
   59MOL    F63 7139   8.134   3.026   0.879  0.5010 -0.0979 -0.2251
   59MOL    F64 7140   8.013   2.857   0.866 -0.1632 -0.0738 -0.1226
   59MOL    C65 7141   7.919   3.076   0.856  0.6873 -0.2120  0.0511
   59MOL    H66 7142   7.970   3.172   0.863  2.3926 -1.0885 -0.0411
   59MOL    H67 7143   7.836   3.076   0.927 -0.1419 -0.7964 -0.8917
   59MOL    C68 7144   7.880   3.035   0.709 -0.2052  0.2786  0.2514
   59MOL    F69 7145   7.998   3.018   0.649  0.3001  0.0676  0.3487
   59MOL    F70 7146   7.819   2.920   0.700 -0.3937  0.1714  0.3791
   59MOL    C71 7147   7.805   3.151   0.638  0.4801  0.1525  0.3041
   59MOL    H72 7148   7.867   3.238   0.659 -0.9200  1.6341 -1.4751
   59MOL    H73 7149   7.704   3.154   0.679  0.0720 -0.1676 -0.6452
   59MOL    C74 7150   7.799   3.128   0.481  0.1509 -0.1107 -0.6497
   59MOL    F75 7151   7.917   3.139   0.429 -0.0842 -0.1913  0.2524
   59MOL    F76 7152   7.749   3.002   0.461  0.1573  0.5185 -0.1391
   59MOL    C77 7153   7.716   3.238   0.413 -0.3315 -0.0486  0.1631
   59MOL    H78 7154   7.749   3.328   0.464 -0.2979 -0.5522  1.0446
   59MOL    H79 7155   7.609   3.222   0.431 -0.2393 -1.2990 -0.3293
   59MOL    C80 7156   7.727   3.253   0.259  1.3545  0.4766  0.0177
   59MOL    F81 7157   7.655   3.355   0.234  0.0639  0.2247 -0.2289
   59MOL    F82 7158   7.849   3.291   0.230 -0.3597 -0.0156  0.0381
   59MOL    C83 7159   7.671   3.136   0.168 -0.0028 -0.0654 -0.4056
   59MOL    H84 7160   7.567   3.124   0.201  0.6631 -2.3613  0.9627
   59MOL    H85 7161   7.724   3.052   0.214 -0.4952 -0.0697  0.1625
   59MOL    C86 7162   7.679   3.158   0.015  0.6317  0.9527 -0.0588
   59MOL    F87 7163   7.598   3.071   8.311 -0.0191 -0.6834 -0.1303
   59MOL    F88 7164   7.625   3.279   8.339  0.4401 -0.0557 -0.2813
   59MOL    C89 7165   7.820   3.134   8.312 -0.0482 -0.0506  0.5304
   59MOL    H90 7166   7.879   3.221   8.339  0.1834 -0.9578  3.1446
   59MOL    H91 7167   7.819   3.129   8.203 -0.1459  1.7968  0.4372
   59MOL    C92 7168   7.898   3.006   0.006  0.8739  0.0847  0.0268
   59MOL    F93 7169   7.927   3.005   0.140  0.0065 -0.1332 -0.0352
   59MOL    F94 7170   7.822   2.891   8.328  0.2648  0.0206  0.0369
   59MOL    C95 7171   8.031   2.987   8.282 -0.6133  0.1058 -0.4415
   59MOL    H96 7172   8.092   3.076   8.295 -1.4644  0.4682  1.0975
   59MOL    H97 7173   8.016   2.968   8.175  2.9778 -0.0750 -0.9869
   59MOL    C98 7174   8.114   2.876   8.338 -0.1678 -0.1810  0.4996
   59MOL    F99 7175   8.158   2.909   0.109  0.0397 -0.3535  0.1430
   59MOL   F100 7176   8.044   2.764   8.339  0.0052 -0.0325 -0.3853
   59MOL   C101 7177   8.247   2.853   8.259  0.8029  0.4234  0.2984
   59MOL   H102 7178   8.294   2.775   8.319  1.7958  0.9818  0.2700
   59MOL   H103 7179   8.315   2.938   8.257  1.0880  0.3178  3.1455
   59MOL   C104 7180   8.242   2.799   8.118 -0.5124  0.6152  0.3298
   59MOL   F105 7181   8.179   2.882   8.041  0.4494 -0.3362 -0.1173
   59MOL   F106 7182   0.025   2.813   8.083 -0.4151  0.4141 -0.0876
   59MOL   C107 7183   8.178   2.661   8.112 -0.3137  0.2394 -0.1974
   59MOL   H108 7184   8.076   2.673   8.149 -0.5460  1.4885 -1.2186
   59MOL   H109 7185   8.217   2.603   8.197 -2.0796 -1.3184 -0.4136
   59MOL   C110 7186   8.193   2.595   7.977 -0.0372 -0.6467  0.3676
   59MOL   F111 7187   8.314   2.612   7.921 -0.6360 -0.2519  0.0234
   59MOL   F112 7188   8.194   2.463   8.007  0.2154  0.5252 -0.6711
   59MOL   C113 7189   8.076   2.635   7.886  0.4802 -0.0981 -0.9520
   59MOL   H114 7190   8.077   2.743   7.872  0.5766  0.2415  1.4285
   59MOL   H115 7191   7.980   2.612   7.932  1.8321 -0.6627  1.6813
   59MOL   C116 7192   8.069   2.558   7.754 -0.3947  0.0195  0.4951
   59MOL   F117 7193   8.175   2.587   7.683  0.1662 -0.2355 -0.0471
   59MOL   F118 7194   8.069   2.425   7.774  0.5101  0.9401 -0.4333
   59MOL   C119 7195   7.947   2.603   7.680 -1.0845  0.3722 -0.1755
   59MOL   H120 7196   7.922   2.540   7.594 -2.9527  1.0157 -0.1263
   59MOL   H121 7197   7.951   2.705   7.642 -1.2545  1.1136  1.7925
   59MOL   H122 7198   7.864   2.582   7.747 -0.0758 -0.9982  0.6687
   60MOL     C1 7199   2.109   8.289   0.559 -0.3483  0.0676 -0.4067
   60MOL     F2 7200   2.016   8.265   0.471 -1.1018  0.5693  0.0064
   60MOL     F3 7201   2.161   0.060   0.538 -0.2964 -0.4974  0.3151
   60MOL     C4 7202   2.221   8.188   0.587  0.4914 -0.2203 -0.6075
   60MOL     H5 7203   2.283   8.219   0.671 -0.6276  0.8367 -0.1575
   60MOL     H6 7204   2.290   8.189   0.503 -0.5253  0.8115 -1.4442
   60MOL     H7 7205   2.050   8.303   0.650  1.6044  0.0146  0.8979
   60MOL     C8 7206   2.178   8.045   0.628  1.1458  0.4742  0.9164
   60MOL     F9 7207   2.129   8.060   0.745  0.1394  0.1101 -0.3534
   60MOL    F10 7208   2.082   8.016   0.552 -0.3319  0.2112  0.3444
   60MOL    C11 7209   2.297   7.953   0.647  0.4884 -0.2625 -0.0222
   60MOL    H12 7210   2.375   7.989   0.714 -0.3747 -1.4352  1.6474
   60MOL    H13 7211   2.352   7.942   0.554 -1.2305  2.7217 -1.4757
   60MOL    C14 7212   2.263   7.808   0.679  0.4496  0.1857 -0.2402
   60MOL    F15 7213   2.197   7.815   0.791  0.4311  0.4609  0.1580
   60MOL    F16 7214   2.187   7.765   0.587 -0.5378 -0.3594  0.5740
   60MOL    C17 7215   2.387   7.717   0.689  0.0957 -0.1862  0.7108
   60MOL    H18 7216   2.447   7.765   0.765 -0.7664 -0.6187  1.6710
   60MOL    H19 7217   2.435   7.719   0.591  0.1694  0.6704  0.7660
   60MOL    C20 7218   2.360   7.565   0.717  0.6645 -0.3892  0.1776
   60MOL    F21 7219   2.272   7.539   0.818  0.8774 -0.3910 -0.6046
   60MOL    F22 7220   2.305   7.523   0.605  0.0994 -0.0809  0.5922
   60MOL    C23 7221   2.493   7.499   0.743 -0.2908  1.0542 -0.2368
   60MOL    H24 7222   2.548   7.550   0.822  1.6473 -0.3243 -0.6657
   60MOL    H25 7223   2.564   7.505   0.660 -1.8464 -0.4921 -1.7079
   60MOL    C26 7224   2.494   7.351   0.776  0.5454  0.2921  0.3214
   60MOL    F27 7225   2.627   7.322   0.802  0.1443  0.2245  0.2092
   60MOL    F28 7226   2.426   7.343   0.886  0.4366 -0.5137  0.2317
   60MOL    C29 7227   2.437   7.259   0.659 -0.0460  0.7409 -0.1000
   60MOL    H30 7228   2.502   7.272   0.573  1.9675 -1.1545  1.0849
   60MOL    H31 7229   2.338   7.293   0.629 -0.6007  0.2902  1.1835
   60MOL    C32 7230   2.424   7.115   0.709  0.3262  0.1276 -0.7201
   60MOL    F33 7231   2.539   7.079   0.765  0.0056  0.0579  0.0162
   60MOL    F34 7232   2.337   7.112   0.807 -0.5525  0.0893  0.2204
   60MOL    C35 7233   2.384   7.017   0.605  0.2159  1.1175 -0.2830
   60MOL    H36 7234   2.276   7.015   0.591  0.0917 -2.1986  0.7910
   60MOL    H37 7235   2.401   6.917   0.645  1.8315  1.2585 -0.5716
   60MOL    C38 7236   2.451   7.020   0.464 -0.0573  1.2930  0.0938
   60MOL    F39 7237   2.438   7.139   0.406  0.4949 -0.5834  0.1699
   60MOL    F40 7238   2.580   7.005   0.485  0.0176 -0.2229  0.1077
   60MOL    C41 7239   2.413   6.895   0.372  0.8943  0.4640 -0.1648
   60MOL    H42 7240   2.310   6.915   0.342  0.4028  1.0322  1.8232
   60MOL    H43 7241   2.405   6.795   0.416  1.7775  0.5188  0.1236
   60MOL    C44 7242   2.498   6.862   0.245 -0.0330 -0.5948  0.3401
   60MOL    F45 7243   2.527   6.982   0.189 -0.3447 -0.4850 -0.1981
   60MOL    F46 7244   2.613   6.817   0.299  0.0871  0.1999  0.2711
   60MOL    C47 7245   2.435   6.757   0.148  0.1950  0.0797  0.0019
   60MOL    H48 7246   2.351   6.809   0.102  0.4754 -0.0779 -0.7034
   60MOL    H49 7247   2.389   6.673   0.198 -0.8624  0.7770  0.2219
   60MOL    C50 7248   2.511   6.712   0.030 -0.2876 -0.4139 -0.3641
   60MOL    F51 7249   2.600   6.617   0.080  0.1692 -0.6014 -0.4492
   60MOL    F52 7250   2.412   6.645   8.309 -0.1962 -0.3686  0.2352
   60MOL    C53 7251   2.574   6.809   8.278 -0.3281  0.0977 -0.4587
   60MOL    H54 7252   2.650   6.750   8.228  0.6722  3.6644 -3.3323
   60MOL    H55 7253   2.633   6.880   8.336 -0.5646 -1.1546  1.3403
   60MOL    C56 7254   2.489   6.893   8.188 -0.0920  1.3924  0.8893
   60MOL    F57 7255   2.426   6.810   8.105  0.0409 -0.0366  0.1096
   60MOL    F58 7256   2.395   6.956   8.266 -0.5557  0.2552 -0.0002
   60MOL    C59 7257   2.584   6.989   8.119  0.2306 -0.7312  0.3104
   60MOL    H60 7258   2.668   6.938   8.073  0.8880  1.2811 -0.8000
   60MOL    H61 7259   2.632   7.055   8.192  1.5787  0.7386 -1.8470
   60MOL    C62 7260   2.525   7.061   7.988 -0.2908  0.9285  0.4135
   60MOL    F63 7261   2.634   7.118   7.929  0.7569 -0.0813  0.3401
   60MOL    F64 7262   2.478   6.967   7.907  0.2124  0.2979  0.0212
   60MOL    C65 7263   2.417   7.157   8.018  0.5998  0.0327  0.1491
   60MOL    H66 7264   2.443   7.216   8.106  1.2830  1.6538 -1.1172
   60MOL    H67 7265   2.331   7.098   8.051  1.5979 -0.6041  1.6666
   60MOL    C68 7266   2.365   7.244   7.900  0.0614 -0.0672  0.6031
   60MOL    F69 7267   2.471   7.297   7.839 -0.0236  0.1658 -0.4509
   60MOL    F70 7268   2.306   7.166   7.810  0.2125  0.2376 -0.2273
   60MOL    C71 7269   2.275   7.358   7.932 -0.0899 -0.4679  0.2510
   60MOL    H72 7270   2.223   7.391   7.842  0.0443 -0.0112  0.3370
   60MOL    H73 7271   2.337   7.439   7.971 -0.2741 -0.6192  0.8601
   60MOL    C74 7272   2.157   7.317   8.031 -0.1911 -0.0811 -0.1233
   60MOL    F75 7273   2.093   7.207   7.997  0.0766 -0.3095  0.0427
   60MOL    F76 7274   2.210   7.290   8.146  0.4439 -0.4580  0.4233
   60MOL    C77 7275   2.053   7.427   8.058 -0.0977 -0.1479  0.7503
   60MOL    H78 7276   2.033   7.472   7.961 -0.7434 -1.2805  0.3470
   60MOL    H79 7277   2.107   7.506   8.109 -0.9438  1.9356 -1.4751
   60MOL    C80 7278   1.919   7.381   8.129  0.9397  1.0748 -0.5060
   60MOL    F81 7279   1.851   7.302   8.049  0.1236  0.1666  0.1558
   60MOL    F82 7280   1.948   7.325   8.244  0.0722  0.2321 -0.4606
   60MOL    C83 7281   1.837   7.500   8.174 -0.4665 -0.0737  0.2033
   60MOL    H84 7282   1.907   7.566   8.225 -0.2093  2.3076 -3.0441
   60MOL    H85 7283   1.775   7.459   8.254 -0.6742  0.0496  0.1063
   60MOL    C86 7284   1.754   7.587   8.080  0.2840 -0.3899 -0.0165
   60MOL    F87 7285   1.831   7.643   7.997 -0.1933  0.1077 -0.1325
   60MOL    F88 7286   1.669   7.515   8.008 -0.3401 -0.3871 -0.0355
   60MOL    C89 7287   1.697   7.695   8.178  0.4477  0.5025  0.5796
   60MOL    H90 7288   1.779   7.759   8.213  0.2391  1.3195 -0.4178
   60MOL    H91 7289   1.641   7.657   8.264  1.6043 -0.2473  1.0164
   60MOL    C92 7290   1.593   7.787   8.102  0.5579  1.0147  0.0389
   60MOL    F93 7291   1.641   7.841   7.992 -0.1760 -0.0130 -0.2596
   60MOL    F94 7292   1.487   7.709   8.070  0.2874 -0.0039 -0.4459
   60MOL    C95 7293   1.538   7.902   8.188  0.1247  0.6127  0.7401
   60MOL    H96 7294   1.485   7.983   8.137 -0.3362 -0.0832  0.1096
   60MOL    H97 7295   1.626   7.956   8.224  0.0969  1.4317 -0.3736
   60MOL    C98 7296   1.454   7.858   8.310  0.2765  0.3473 -0.3573
   60MOL    F99 7297   1.527   7.782   0.045 -0.2432 -0.4890 -0.0413
   60MOL   F100 7298   1.423   7.970   0.027 -0.1157 -0.1648 -0.0491
   60MOL   C101 7299   1.314   7.785   8.290 -0.1686  0.1917  0.2374
   60MOL   H102 7300   1.267   7.749   0.032 -1.9329 -0.5356 -0.9171
   60MOL   H103 7301   1.328   7.689   8.239 -1.0918  1.1819 -1.9317
   60MOL   C104 7302   1.204   7.857   8.208 -0.0180  0.5493 -0.3108
   60MOL   F105 7303   1.251   7.901   8.091  0.5914  0.2973 -0.4015
   60MOL   F106 7304   1.103   7.773   8.179  0.7272 -0.4604  0.2630
   60MOL   C107 7305   1.145   7.978   8.279 -0.9402 -0.1715 -0.0627
   60MOL   H108 7306   1.221   8.052   8.304 -0.0774 -0.4075 -1.8468
   60MOL   H109 7307   1.099   7.937   0.019  0.0604 -1.4154 -0.1061
   60MOL   C110 7308   1.032   8.058   8.194  0.6285 -0.7537  0.4274
   60MOL   F111 7309   1.081   8.111   8.082  0.0686 -0.3157  0.0350
   60MOL   F112 7310   0.940   7.962   8.161 -0.2103 -0.0540  0.1198
   60MOL   C113 7311   0.956   8.154   8.279 -0.0897  0.0544  1.1052
   60MOL   H114 7312   0.907   8.109   0.016 -3.7872  3.4293  0.8881
   60MOL   H115 7313   0.873   8.189   8.217  0.0531  0.9245  1.4012
   60MOL   C116 7314   1.040   8.274   8.319  0.7203 -0.3113 -0.0701
   60MOL   F117 7315   0.953   8.343   0.039  0.2042  0.5172 -0.2187
   60MOL   F118 7316   1.141   8.255   0.051  0.1566 -0.0281 -0.9582
   60MOL   C119 7317   1.091   0.021   8.216  0.5250 -0.3600  0.0316
   60MOL   H120 7318   1.167   8.322   8.155  1.1955  1.8398 -0.9528
   60MOL   H121 7319   1.124   0.117   8.258  1.3881 -1.5797  2.2208
   60MOL   H122 7320   1.007   0.038   8.149 -0.7274 -1.3168  1.3300
   61MOL     C1 7321   3.822   4.582   2.683 -0.2633 -0.4983  0.1952
   61MOL     F2 7322   3.815   4.690   2.596 -0.0561  0.2371  0.0226
   61MOL     F3 7323   3.956   4.544   2.698 -0.5999 -0.3008 -0.2678
   61MOL     C4 7324   3.742   4.461   2.632  0.4369 -0.5713  0.2204
   61MOL     H5 7325   3.786   4.373   2.680  1.5215 -0.5502 -0.6980
   61MOL     H6 7326   3.768   4.449   2.527  1.2087 -0.8621  0.4391
   61MOL     H7 7327   3.799   4.617   2.783  0.5929  1.9557 -0.4375
   61MOL     C8 7328   3.586   4.463   2.658 -0.3182  0.1547 -0.4806
   61MOL     F9 7329   3.562   4.447   2.789  0.2299  0.2970 -0.1621
   61MOL    F10 7330   3.551   4.576   2.617  0.2990 -0.5182  0.1062
   61MOL    C11 7331   3.510   4.359   2.579  0.1240 -0.1405  0.2857
   61MOL    H12 7332   3.560   4.266   2.606 -1.5556 -0.9914  0.5024
   61MOL    H13 7333   3.520   4.379   2.472 -3.4856 -0.5209 -0.2026
   61MOL    C14 7334   3.364   4.353   2.605  0.1620  0.4302  0.4017
   61MOL    F15 7335   3.332   4.338   2.736  0.1189 -0.1318  0.4480
   61MOL    F16 7336   3.306   4.467   2.564  0.0676  0.0423 -0.0800
   61MOL    C17 7337   3.285   4.239   2.531 -0.1320  0.0550 -0.2177
   61MOL    H18 7338   3.177   4.254   2.544 -0.2084  0.2589 -1.0412
   61MOL    H19 7339   3.302   4.148   2.587  1.2936  0.7118  0.4507
   61MOL    C20 7340   3.325   4.205   2.382 -0.3340 -0.1080 -0.4199
   61MOL    F21 7341   3.451   4.165   2.372  0.9342  0.1443  0.0662
   61MOL    F22 7342   3.243   4.115   2.344  0.1595  0.7174 -0.5701
   61MOL    C23 7343   3.300   4.325   2.288  0.5522  0.4254 -0.0576
   61MOL    H24 7344   3.347   4.412   2.334 -1.0494  0.4071  1.6700
   61MOL    H25 7345   3.194   4.349   2.290 -0.4411 -3.3613 -1.9872
   61MOL    C26 7346   3.341   4.305   2.140 -0.5597 -0.2336  0.5034
   61MOL    F27 7347   3.469   4.291   2.134 -0.4106  0.1644  0.0635
   61MOL    F28 7348   3.282   4.199   2.087 -0.0495 -0.0423 -0.0675
   61MOL    C29 7349   3.304   4.420   2.042 -0.5072 -0.1798  0.0774
   61MOL    H30 7350   3.196   4.418   2.024 -0.5426  1.1033  0.0743
   61MOL    H31 7351   3.360   4.401   1.950  0.4271 -0.1710  0.6353
   61MOL    C32 7352   3.324   4.565   2.080  0.3397 -0.0135 -0.5655
   61MOL    F33 7353   3.263   4.635   1.983  0.3249  0.1421  0.0302
   61MOL    F34 7354   3.261   4.592   2.204 -0.2041  0.0266  0.3289
   61MOL    C35 7355   3.480   4.601   2.086 -0.1351 -0.5090 -0.3931
   61MOL    H36 7356   3.516   4.611   1.983  2.2338 -1.2948  0.3241
   61MOL    H37 7357   3.519   4.512   2.135  0.9775  0.9446  1.4224
   61MOL    C38 7358   3.519   4.724   2.169  0.3673 -0.5350 -0.0714
   61MOL    F39 7359   3.482   4.822   2.092  0.1120 -0.3830  0.1364
   61MOL    F40 7360   3.452   4.725   2.283  0.1606  0.2198  0.1305
   61MOL    C41 7361   3.671   4.745   2.172  0.1349 -0.0858 -0.1704
   61MOL    H42 7362   3.683   4.843   2.217  0.0266  0.3374 -1.0554
   61MOL    H43 7363   3.712   4.747   2.071 -2.1479 -1.2512 -1.1593
   61MOL    C44 7364   3.757   4.638   2.237  0.2230  0.0492  0.7252
   61MOL    F45 7365   3.705   4.613   2.350  0.2102 -0.0273  0.1107
   61MOL    F46 7366   3.752   4.523   2.174  0.0450  0.0074  0.3544
   61MOL    C47 7367   3.897   4.687   2.272 -0.7064  0.4351 -0.6737
   61MOL    H48 7368   3.934   4.608   2.338 -3.5930 -0.7562 -0.3854
   61MOL    H49 7369   3.888   4.770   2.343 -0.5514 -0.7203  0.7350
   61MOL    C50 7370   4.004   4.699   2.167  0.1369  0.0432 -0.3398
   61MOL    F51 7371   4.013   4.577   2.106  0.3645 -0.9709  0.6413
   61MOL    F52 7372   3.959   4.786   2.075 -0.1568  0.0715 -0.0338
   61MOL    C53 7373   4.155   4.736   2.208  0.1798 -0.4233  0.6417
   61MOL    H54 7374   4.187   4.675   2.293  2.3500 -0.0133  0.1382
   61MOL    H55 7375   4.150   4.840   2.240  2.1169 -0.0831 -0.1217
   61MOL    C56 7376   4.270   4.729   2.098  0.1222 -0.0397 -0.6791
   61MOL    F57 7377   4.386   4.776   2.131  0.2111  0.4801  0.2981
   61MOL    F58 7378   4.279   4.606   2.050 -0.0895  0.3992  0.1256
   61MOL    C59 7379   4.237   4.818   1.972  0.7587  0.1312 -0.8847
   61MOL    H60 7380   4.217   4.917   2.013 -0.4378 -1.1596  1.7437
   61MOL    H61 7381   4.152   4.773   1.920  2.4860 -1.6228 -2.2938
   61MOL    C62 7382   4.343   4.853   1.865  0.2896  0.4667 -0.0374
   61MOL    F63 7383   4.281   4.923   1.770  0.0851 -0.1608  0.4356
   61MOL    F64 7384   4.446   4.920   1.916  0.2840 -0.6864 -0.5376
   61MOL    C65 7385   4.394   4.730   1.792  0.1988 -0.4164  0.3797
   61MOL    H66 7386   4.310   4.666   1.765  0.8527 -1.8071  1.5342
   61MOL    H67 7387   4.443   4.656   1.857  0.1744 -0.9659 -0.2200
   61MOL    C68 7388   4.476   4.754   1.662 -0.7919 -0.5184  0.1767
   61MOL    F69 7389   4.404   4.804   1.561  0.1482  0.2500 -0.4125
   61MOL    F70 7390   4.572   4.841   1.690  0.0375  0.3075  0.7291
   61MOL    C71 7391   4.539   4.620   1.613 -0.3979  0.5534 -0.1720
   61MOL    H72 7392   4.467   4.538   1.619 -2.6194  2.4611 -0.1583
   61MOL    H73 7393   4.632   4.608   1.668  0.2799  0.6329 -1.2822
   61MOL    C74 7394   4.591   4.609   1.469 -0.8177 -0.1960 -0.5163
   61MOL    F75 7395   4.645   4.490   1.453 -0.1866  0.1539 -0.0479
   61MOL    F76 7396   4.492   4.617   1.389 -0.1355  0.6617 -0.1047
   61MOL    C77 7397   4.701   4.712   1.432  0.1586  0.1129  0.4276
   61MOL    H78 7398   4.660   4.813   1.444 -1.1614 -0.4685  0.8741
   61MOL    H79 7399   4.711   4.707   1.324  1.1277  2.6239  0.3585
   61MOL    C80 7400   4.837   4.721   1.506 -0.8280 -1.0015 -0.5416
   61MOL    F81 7401   4.889   4.835   1.464  0.0477 -0.1601 -0.0052
   61MOL    F82 7402   4.822   4.733   1.640 -0.2696 -0.5302  0.0907
   61MOL    C83 7403   4.932   4.601   1.481  1.3457 -0.1480 -0.3063
   61MOL    H84 7404   4.883   4.516   1.528  1.7911 -0.1999  0.0712
   61MOL    H85 7405   5.020   4.617   1.544  0.4244 -1.4283  1.3638
   61MOL    C86 7406   4.975   4.576   1.336  0.7560  0.3063  0.3050
   61MOL    F87 7407   5.055   4.468   1.344 -0.3385  0.2465  0.3784
   61MOL    F88 7408   4.876   4.552   1.258 -0.0055  0.0870  0.3718
   61MOL    C89 7409   5.062   4.691   1.275  0.5317 -0.0526  0.2400
   61MOL    H90 7410   5.125   4.710   1.361 -0.9292  1.1081  1.0834
   61MOL    H91 7411   5.003   4.782   1.265  0.6836  0.1174  0.8989
   61MOL    C92 7412   5.131   4.667   1.135 -0.4187 -0.4621 -0.6336
   61MOL    F93 7413   5.202   4.777   1.103 -0.0192  0.2712  0.0253
   61MOL    F94 7414   5.224   4.574   1.146 -0.2280  0.8244  0.2715
   61MOL    C95 7415   5.038   4.626   1.023  0.0679  0.3307  0.3991
   61MOL    H96 7416   4.954   4.695   1.023 -0.4778 -0.3324 -0.7065
   61MOL    H97 7417   4.999   4.526   1.040 -0.8933  0.9109  1.7640
   61MOL    C98 7418   5.087   4.643   0.875 -0.7544 -0.4920  0.3758
   61MOL    F99 7419   5.116   4.770   0.855  0.1537  0.4999  0.1214
   61MOL   F100 7420   5.201   4.588   0.853  0.0725  0.0928  0.3231
   61MOL   C101 7421   4.982   4.592   0.770  0.4942 -0.2981 -0.3753
   61MOL   H102 7422   4.883   4.638   0.780  0.6578 -0.3005  1.4901
   61MOL   H103 7423   4.962   4.488   0.795 -0.7192  0.2884  1.1722
   61MOL   C104 7424   5.038   4.605   0.624 -0.8625  0.0214 -0.1858
   61MOL   F105 7425   5.067   4.731   0.607  0.1468 -0.1178  0.4016
   61MOL   F106 7426   5.152   4.524   0.608  0.2126  0.1358  0.4412
   61MOL   C107 7427   4.935   4.563   0.513  0.0012 -0.0298  0.8033
   61MOL   H108 7428   4.982   4.580   0.416 -0.9401  1.7020  0.6275
   61MOL   H109 7429   4.854   4.635   0.524 -0.9117 -0.7005 -1.2875
   61MOL   C110 7430   4.881   4.415   0.526 -0.3993 -0.0629 -0.0889
   61MOL   F111 7431   4.982   4.327   0.525 -0.3591  0.3885  0.3417
   61MOL   F112 7432   4.812   4.408   0.642 -0.3555 -0.0470 -0.3780
   61MOL   C113 7433   4.795   4.376   0.400  0.7993 -0.4988  0.0078
   61MOL   H114 7434   4.765   4.271   0.399  0.1524 -0.3085 -0.9131
   61MOL   H115 7435   4.858   4.397   0.314  0.1423  0.0899 -0.3338
   61MOL   C116 7436   4.674   4.468   0.383  0.2799  0.6200  0.3885
   61MOL   F117 7437   4.579   4.461   0.482 -0.2228  0.1980 -0.4476
   61MOL   F118 7438   4.697   4.591   0.363  0.8186 -0.0510  0.5040
   61MOL   C119 7439   4.595   4.431   0.253  0.2846 -0.0692 -0.0431
   61MOL   H120 7440   4.507   4.494   0.241 -0.1571 -0.6212  0.2823
   61MOL   H121 7441   4.565   4.327   0.253 -1.9746  0.5413  1.8869
   61MOL   H122 7442   4.656   4.467   0.170  0.9324 -3.1156 -0.9289
   62MOL     C1 7443   1.143   2.795   1.135 -0.9051 -0.3599  0.3192
   62MOL     F2 7444   1.269   2.826   1.152  0.0549  0.0901  0.3475
   62MOL     F3 7445   1.118   2.828   1.013  0.2756 -0.2724  0.5449
   62MOL     C4 7446   1.056   2.856   1.244 -0.1007 -0.2433  0.3555
   62MOL     H5 7447   0.955   2.827   1.217 -0.2688  0.1442  0.5617
   62MOL     H6 7448   1.063   2.965   1.253  1.3181 -0.2385 -0.6108
   62MOL     H7 7449   1.139   2.686   1.137 -1.1337 -0.3580  0.0451
   62MOL     C8 7450   1.070   2.794   1.382 -1.0182  0.5005  0.9351
   62MOL     F9 7451   0.962   2.833   1.449 -0.2196 -0.5226 -0.2121
   62MOL    F10 7452   1.059   2.662   1.381 -0.1981  0.1740 -0.3696
   62MOL    C11 7453   1.194   2.844   1.451 -0.2000 -0.8082 -0.3425
   62MOL    H12 7454   1.182   2.952   1.460  1.3447 -0.5712 -0.9460
   62MOL    H13 7455   1.275   2.833   1.378 -0.2191  0.2187 -0.5234
   62MOL    C14 7456   1.248   2.777   1.578 -0.6973  0.4152 -0.1332
   62MOL    F15 7457   1.332   2.864   1.628  0.2920  0.1737  0.7125
   62MOL    F16 7458   1.156   2.770   1.673 -0.3102  0.3644 -0.3445
   62MOL    C17 7459   1.325   2.639   1.561 -0.2629 -0.1986 -0.3932
   62MOL    H18 7460   1.248   2.574   1.518 -0.5559 -0.5073  0.5958
   62MOL    H19 7461   1.338   2.596   1.660 -3.0059  0.9116  0.4843
   62MOL    C20 7462   1.450   2.625   1.476  0.5448  0.1907  0.1904
   62MOL    F21 7463   1.413   2.638   1.350 -0.1497  0.1708  0.3943
   62MOL    F22 7464   1.534   2.721   1.512 -0.2383 -0.2541 -0.3232
   62MOL    C23 7465   1.533   2.489   1.508  0.2830  0.4908  0.7444
   62MOL    H24 7466   1.564   2.485   1.612 -1.7922  0.0546  1.3649
   62MOL    H25 7467   1.622   2.497   1.445  1.0732 -3.3387  1.2484
   62MOL    C26 7468   1.453   2.356   1.493 -1.0114 -0.1621  0.7787
   62MOL    F27 7469   1.546   2.257   1.501  0.0760  0.3567  0.3448
   62MOL    F28 7470   1.367   2.348   1.597 -0.0004 -0.0593  0.4238
   62MOL    C29 7471   1.389   2.332   1.363  0.3045  0.7002 -0.2305
   62MOL    H30 7472   1.462   2.316   1.283 -1.2038 -2.2025 -1.0776
   62MOL    H31 7473   1.342   2.423   1.325  0.2747  1.0021  0.5305
   62MOL    C32 7474   1.279   2.222   1.367 -0.2192  0.6595 -0.5115
   62MOL    F33 7475   1.337   2.113   1.409  0.5625 -0.1729 -0.1502
   62MOL    F34 7476   1.184   2.263   1.456  0.6259  0.1264 -0.1412
   62MOL    C35 7477   1.220   2.200   1.229 -0.1158 -0.7709 -1.1927
   62MOL    H36 7478   1.149   2.118   1.240  0.3826 -1.0786 -0.2900
   62MOL    H37 7479   1.294   2.148   1.168  0.9911  0.3763 -0.8539
   62MOL    C38 7480   1.175   2.323   1.145  0.2617 -0.0747 -0.2455
   62MOL    F39 7481   1.094   2.403   1.212  0.1053  0.2667  0.5795
   62MOL    F40 7482   1.279   2.391   1.112 -0.0923  0.2030  0.2474
   62MOL    C41 7483   1.101   2.280   1.016  0.0612 -0.7729  0.1457
   62MOL    H42 7484   1.064   2.364   0.958 -0.9971 -1.9683 -0.9264
   62MOL    H43 7485   1.007   2.229   1.035 -0.8133  0.6417 -0.3171
   62MOL    C44 7486   1.174   2.188   0.917 -0.3484 -0.7188  0.0625
   62MOL    F45 7487   1.296   2.236   0.889  0.0245 -0.1945  0.1698
   62MOL    F46 7488   1.182   2.072   0.981 -0.0687 -0.3710 -0.2008
   62MOL    C47 7489   1.105   2.159   0.782  0.5166 -0.1654 -0.1801
   62MOL    H48 7490   1.124   2.255   0.733  1.3246 -0.3868 -0.3015
   62MOL    H49 7491   0.997   2.154   0.798  0.4741 -2.1722 -0.9684
   62MOL    C50 7492   1.153   2.043   0.694  0.0298 -0.4460 -0.2934
   62MOL    F51 7493   1.285   2.039   0.695  0.3586  0.2335 -0.0492
   62MOL    F52 7494   1.121   1.929   0.754  0.1581 -0.3258 -0.3749
   62MOL    C53 7495   1.088   2.037   0.554  0.8311 -0.3334 -0.4822
   62MOL    H54 7496   1.113   2.135   0.513  2.2938 -0.6581 -0.4109
   62MOL    H55 7497   0.981   2.032   0.573  1.1803 -3.7315  0.9185
   62MOL    C56 7498   1.119   1.902   0.473  0.0710 -0.0302 -0.3247
   62MOL    F57 7499   1.240   1.859   0.500 -0.0710  0.0337  0.1574
   62MOL    F58 7500   1.028   1.809   0.511  0.1704  0.1409  0.6953
   62MOL    C59 7501   1.118   1.918   0.316  0.1581  0.1174 -0.1594
   62MOL    H60 7502   1.141   1.816   0.286 -0.9963 -0.8544  2.0812
   62MOL    H61 7503   1.200   1.984   0.290 -0.2789  1.9626  2.9334
   62MOL    C62 7504   0.992   1.978   0.254  0.5836 -0.5724  0.2621
   62MOL    F63 7505   0.968   2.090   0.326 -0.1201  0.6507 -0.1612
   62MOL    F64 7506   1.009   2.024   0.131 -0.5449  0.2011 -0.2335
   62MOL    C65 7507   0.873   1.884   0.245  0.2319  0.0997  0.3412
   62MOL    H66 7508   0.782   1.933   0.208  0.7497 -0.5967 -1.9050
   62MOL    H67 7509   0.857   1.848   0.347  1.1071 -1.0335  0.0869
   62MOL    C68 7510   0.867   1.759   0.160  0.2530 -0.0558 -0.0025
   62MOL    F69 7511   0.953   1.674   0.217  0.6659  0.2685 -0.1764
   62MOL    F70 7512   0.749   1.705   0.176  0.4194 -0.2020 -0.2762
   62MOL    C71 7513   0.911   1.783   0.010  0.1470 -0.4874  0.3681
   62MOL    H72 7514   0.907   1.688   8.306  0.1285 -0.1302 -0.2792
   62MOL    H73 7515   1.016   1.814   0.009 -0.0189  0.0751 -0.5823
   62MOL    C74 7516   0.827   1.881   8.263  0.1702 -0.5999  0.0803
   62MOL    F75 7517   0.709   1.827   8.262 -0.1903  0.8032 -0.1094
   62MOL    F76 7518   0.818   2.000   8.313  0.4262 -0.8279 -0.0209
   62MOL    C77 7519   0.889   1.876   8.124 -0.0593 -0.5055  0.5959
   62MOL    H78 7520   0.903   1.770   8.107  1.9238 -0.0339 -0.9073
   62MOL    H79 7521   0.991   1.914   8.127 -0.5575  1.1806 -1.7812
   62MOL    C80 7522   0.815   1.934   8.010 -0.2721 -0.0373  0.1135
   62MOL    F81 7523   0.897   1.939   7.914  0.1706 -0.2067  0.0769
   62MOL    F82 7524   0.722   1.845   7.978 -0.1181  0.0258 -0.0213
   62MOL    C83 7525   0.753   2.076   8.029 -0.1137 -0.3952 -0.4130
   62MOL    H84 7526   0.830   2.138   8.074  0.4368 -1.0715 -0.3971
   62MOL    H85 7527   0.676   2.083   8.105 -0.5904  0.5934 -0.9781
   62MOL    C86 7528   0.710   2.146   7.895  0.7586 -1.0655  0.1215
   62MOL    F87 7529   0.817   2.155   7.823 -0.1932  0.1779  0.7763
   62MOL    F88 7530   0.616   2.062   7.849 -0.9554 -0.1944 -0.1881
   62MOL    C89 7531   0.652   2.292   7.909  0.6554 -0.3699  0.5043
   62MOL    H90 7532   0.736   2.351   7.946  0.5684  0.6910 -0.9548
   62MOL    H91 7533   0.569   2.284   7.980  1.8650  1.3527  2.1693
   62MOL    C92 7534   0.607   2.363   7.778 -0.5517  0.5760 -0.1778
   62MOL    F93 7535   0.516   2.281   7.726 -0.3994  0.5960 -0.4171
   62MOL    F94 7536   0.545   2.470   7.824  0.3735  0.1535 -0.0703
   62MOL    C95 7537   0.716   2.401   7.680 -0.6282  0.0999 -0.2628
   62MOL    H96 7538   0.750   2.306   7.638 -1.0134  0.4289 -1.3281
   62MOL    H97 7539   0.797   2.458   7.726 -0.1115  0.5069 -1.6523
   62MOL    C98 7540   0.667   2.494   7.571 -0.0510 -0.5026  0.6930
   62MOL    F99 7541   0.568   2.440   7.497  0.2195  1.3738  0.1307
   62MOL   F100 7542   0.620   2.606   7.626  0.4615  0.0751  0.3101
   62MOL   C101 7543   0.774   2.524   7.459  0.0208  0.6884  0.0325
   62MOL   H102 7544   0.730   2.590   7.384 -0.7980  0.9041  0.6896
   62MOL   H103 7545   0.787   2.435   7.398 -0.3985 -0.7862  2.0428
   62MOL   C104 7546   0.910   2.571   7.513 -0.0421 -0.0762 -0.0854
   62MOL   F105 7547   0.891   2.655   7.618 -0.1874  0.0485  0.6089
   62MOL   F106 7548   0.976   2.468   7.556 -0.1058  0.3672 -0.3834
   62MOL   C107 7549   1.014   2.642   7.416  0.1405 -0.7279  0.5280
   62MOL   H108 7550   1.032   2.576   7.331  0.9189  0.3381 -0.1506
   62MOL   H109 7551   1.110   2.652   7.467  0.3666  2.0561 -0.3718
   62MOL   C110 7552   0.986   2.791   7.366  0.1162 -0.1910 -0.2192
   62MOL   F111 7553   0.860   2.794   7.318  0.5877 -0.4538  0.6809
   62MOL   F112 7554   0.995   2.874   7.469 -0.2181  0.2468  0.4364
   62MOL   C113 7555   1.083   2.826   7.252  0.3820  0.4593  0.6431
   62MOL   H114 7556   1.054   2.928   7.228  0.4976 -0.1513 -2.2457
   62MOL   H115 7557   1.057   2.764   7.167  3.0829 -1.0324  0.8678
   62MOL   C116 7558   1.231   2.830   7.291 -0.4545 -0.1944 -0.2062
   62MOL   F117 7559   1.256   2.914   7.395  0.3752  0.2718 -0.0399
   62MOL   F118 7560   1.283   2.714   7.318  0.2571  0.7874  0.4925
   62MOL   C119 7561   1.311   2.886   7.171 -0.3171 -0.3690 -0.3748
   62MOL   H120 7562   1.420   2.891   7.182 -0.3296 -0.3721 -0.2554
   62MOL   H121 7563   1.277   2.988   7.155  0.0890  0.0920  1.5264
   62MOL   H122 7564   1.288   2.831   7.080  3.5845 -0.9556 -1.1076
   63MOL     C1 7565   5.183   7.749   4.445  0.4035  0.3693 -1.2406
   63MOL     F2 7566   5.307   7.762   4.488 -0.2748  0.0618  0.3318
   63MOL     F3 7567   5.162   7.631   4.382  0.3652  0.1980 -0.2212
   63MOL     C4 7568   5.139   7.859   4.358  0.1059 -0.1622 -0.9140
   63MOL     H5 7569   5.160   7.826   4.256 -2.3799 -1.1064 -1.1413
   63MOL     H6 7570   5.195   7.948   4.388  0.1840 -0.3769 -0.4119
   63MOL     H7 7571   5.125   7.740   4.537  0.1648  1.1465 -1.3140
   63MOL     C8 7572   4.987   7.888   4.371 -0.2922 -1.0999  0.1743
   63MOL     F9 7573   4.917   7.774   4.348  0.0264 -0.6961 -0.1832
   63MOL    F10 7574   4.961   7.941   4.489 -0.0081  0.1083 -0.1610
   63MOL    C11 7575   4.934   7.981   4.265  0.2483 -0.1991 -0.3480
   63MOL    H12 7576   4.832   7.994   4.302  0.4596  1.1053 -0.1967
   63MOL    H13 7577   4.936   7.934   4.167 -0.2948 -0.6274 -0.1568
   63MOL    C14 7578   5.010   8.116   4.244 -0.6127  0.1712 -0.9653
   63MOL    F15 7579   5.017   8.176   4.363 -0.3957 -0.3816 -0.9050
   63MOL    F16 7580   5.131   8.089   4.203  0.4716  0.5022 -0.5420
   63MOL    C17 7581   4.942   8.209   4.141 -0.4957 -0.6756  0.2229
   63MOL    H18 7582   4.926   8.147   4.052  0.2171 -1.0050  0.3178
   63MOL    H19 7583   5.010   8.293   4.126 -1.4126  0.1357  0.6179
   63MOL    C20 7584   4.808   8.278   4.174  0.8855 -0.1411  0.0451
   63MOL    F21 7585   4.717   8.181   4.190 -0.2124  0.2308 -0.6416
   63MOL    F22 7586   4.823   8.339   4.294 -0.3318  0.2237  0.1168
   63MOL    C23 7587   4.761   0.036   4.081 -0.5305  0.2931  0.7794
   63MOL    H24 7588   4.822   0.125   4.095 -0.3739  0.1869  0.7827
   63MOL    H25 7589   4.659   0.057   4.113 -1.3184  1.7645 -2.4683
   63MOL    C26 7590   4.769   8.341   3.926 -0.5279 -0.4494  0.6343
   63MOL    F27 7591   4.898   8.335   3.897  0.1167  0.1100 -0.1289
   63MOL    F28 7592   4.717   8.225   3.896 -0.0474 -0.0272  0.4047
   63MOL    C29 7593   4.708   0.090   3.824  0.1322 -0.0787 -0.1287
   63MOL    H30 7594   4.706   0.036   3.729 -0.9630  0.3824 -0.3663
   63MOL    H31 7595   4.772   0.178   3.815  1.0009 -0.6013  0.8592
   63MOL    C32 7596   4.559   0.125   3.845 -0.4889  0.7424  0.1207
   63MOL    F33 7597   4.493   0.012   3.853 -0.7238 -0.6409  0.0418
   63MOL    F34 7598   4.547   0.200   3.956 -0.1160 -0.0097 -0.0072
   63MOL    C35 7599   4.506   0.192   3.712 -1.0203 -0.6774  0.4131
   63MOL    H36 7600   4.530   0.123   3.632  0.9984 -0.2402  0.6254
   63MOL    H37 7601   4.567   0.280   3.691 -0.0847 -1.5666 -0.5660
   63MOL    C38 7602   4.351   0.234   3.704  0.4708  1.0708 -0.1860
   63MOL    F39 7603   4.317   0.278   3.588 -0.0827 -0.0587  0.2898
   63MOL    F40 7604   4.296   0.115   3.715 -0.5815  0.4405  0.0973
   63MOL    C41 7605   4.292   0.309   3.823  0.3191 -0.7171  0.2065
   63MOL    H42 7606   4.292   0.247   3.912 -0.0787  0.3543  0.9661
   63MOL    H43 7607   4.186   0.329   3.806  0.3508 -0.1560  0.6534
   63MOL    C44 7608   4.351   0.449   3.852  0.0557 -0.2224 -0.2286
   63MOL    F45 7609   4.484   0.449   3.863  0.4647  0.2122  0.0121
   63MOL    F46 7610   4.315   0.521   3.745  0.3350 -0.1434 -0.0509
   63MOL    C47 7611   4.289   0.512   3.981 -0.0639 -0.3840 -0.7770
   63MOL    H48 7612   4.318   0.617   3.994  0.0794 -0.3183 -1.5738
   63MOL    H49 7613   4.336   0.465   4.067 -1.5547 -1.7071 -0.6718
   63MOL    C50 7614   4.136   0.522   3.989  0.1638 -0.0937 -0.3601
   63MOL    F51 7615   4.079   0.556   3.869  0.2926  0.0232  0.5345
   63MOL    F52 7616   4.091   0.403   4.023 -0.7978 -0.0263 -0.1470
   63MOL    C53 7617   4.077   0.614   4.103  0.1286  0.1037 -0.0588
   63MOL    H54 7618   4.113   0.716   4.090  2.8145 -0.7698  0.2802
   63MOL    H55 7619   4.123   0.582   4.196 -1.1420 -0.0718  0.5182
   63MOL    C56 7620   3.921   0.612   4.125 -0.5181 -0.2596  0.5186
   63MOL    F57 7621   3.853   0.648   4.019  0.1553  0.3404  0.5226
   63MOL    F58 7622   3.889   0.487   4.173 -0.0914 -0.1134  0.4415
   63MOL    C59 7623   3.879   0.714   4.242  0.5022 -0.3501  0.1024
   63MOL    H60 7624   3.772   0.725   4.256  0.7267  0.4911  1.2735
   63MOL    H61 7625   3.930   0.808   4.221 -0.7139  0.3932  0.4258
   63MOL    C62 7626   3.927   0.683   4.396 -0.3582 -0.8078 -0.3022
   63MOL    F63 7627   3.903   0.556   4.436 -0.1424  0.1414  0.0248
   63MOL    F64 7628   4.062   0.691   4.388  0.1275  0.1293  0.3046
   63MOL    C65 7629   3.876   0.787   4.499 -0.0645 -0.4690 -0.3036
   63MOL    H66 7630   3.936   0.768   4.589 -1.6202 -1.8663  0.4650
   63MOL    H67 7631   3.777   0.743   4.515 -0.1724  0.3500  1.4766
   63MOL    C68 7632   3.873   0.936   4.466  0.1268  0.1220  0.5274
   63MOL    F69 7633   3.991   0.978   4.427 -0.3386 -0.1781  0.3973
   63MOL    F70 7634   3.788   0.945   4.367 -0.4047  0.0883 -0.2531
   63MOL    C71 7635   3.810   1.015   4.581  0.1630 -0.7530 -1.2225
   63MOL    H72 7636   3.864   0.974   4.667  0.6363  0.8038 -0.7644
   63MOL    H73 7637   3.711   0.975   4.602  0.0127  0.2253 -0.0119
   63MOL    C74 7638   3.809   1.177   4.593  0.3404  0.4926 -0.1000
   63MOL    F75 7639   3.775   1.216   4.709 -0.0380 -0.3561  0.3046
   63MOL    F76 7640   3.936   1.219   4.583  0.2540  0.3223  0.0379
   63MOL    C77 7641   3.730   1.246   4.480 -0.8176 -0.7585  0.0382
   63MOL    H78 7642   3.765   1.208   4.384 -0.8678 -1.7159  0.3955
   63MOL    H79 7643   3.742   1.354   4.470  2.9068 -1.3122 -2.5777
   63MOL    C80 7644   3.575   1.217   4.486 -0.4014 -0.7419 -0.3118
   63MOL    F81 7645   3.546   1.092   4.471 -0.4464 -0.0866  0.2961
   63MOL    F82 7646   3.540   1.258   4.601 -0.2937  0.3328 -0.5683
   63MOL    C83 7647   3.492   1.301   4.392  0.6302 -0.2978  0.2608
   63MOL    H84 7648   3.509   1.408   4.406  0.3073 -0.1577 -0.3964
   63MOL    H85 7649   3.385   1.284   4.406  1.0523 -2.0996  1.5312
   63MOL    C86 7650   3.530   1.292   4.246  0.3604  0.2172  0.3998
   63MOL    F87 7651   3.461   1.375   4.160  0.0586  0.4550 -0.5961
   63MOL    F88 7652   3.662   1.317   4.231 -0.1626 -0.0235 -0.3711
   63MOL    C89 7653   3.502   1.150   4.188  0.3232 -0.0585 -0.4916
   63MOL    H90 7654   3.569   1.078   4.235 -1.0888 -0.4717  0.9443
   63MOL    H91 7655   3.540   1.147   4.086 -0.3649  0.7708 -0.7785
   63MOL    C92 7656   3.363   1.086   4.185  0.4792  0.0315 -0.4120
   63MOL    F93 7657   3.319   1.067   4.304 -0.0487 -0.3158 -0.3937
   63MOL    F94 7658   3.273   1.176   4.137 -0.8422  0.8078 -0.2690
   63MOL    C95 7659   3.351   0.966   4.089  0.0537 -0.5283 -0.2416
   63MOL    H96 7660   3.359   0.989   3.983  0.5938 -0.8870 -0.2802
   63MOL    H97 7661   3.249   0.927   4.097  1.0427 -3.5380 -1.3643
   63MOL    C98 7662   3.430   0.834   4.123  0.0317  0.5013 -0.2035
   63MOL    F99 7663   3.561   0.859   4.151 -0.3012 -0.3079 -0.2235
   63MOL   F100 7664   3.387   0.792   4.242 -0.3814 -1.0771 -0.0658
   63MOL   C101 7665   3.436   0.710   4.029  0.1580 -1.0618 -0.2138
   63MOL   H102 7666   3.494   0.630   4.075 -0.0543 -3.3475 -3.7236
   63MOL   H103 7667   3.486   0.757   3.945 -0.6332  1.6902  0.8174
   63MOL   C104 7668   3.286   0.672   3.988 -0.0547  0.3085  0.3996
   63MOL   F105 7669   3.209   0.670   4.099 -0.2586 -0.6211 -0.0356
   63MOL   F106 7670   3.234   0.762   3.905 -0.6829 -0.0077 -0.1532
   63MOL   C107 7671   3.289   0.533   3.919  0.1135 -0.1443 -0.2010
   63MOL   H108 7672   3.270   0.471   4.007  3.3895  1.2940  1.6045
   63MOL   H109 7673   3.385   0.509   3.872  0.1855  2.5738 -1.5219
   63MOL   C110 7674   3.180   0.506   3.816 -0.3112 -0.0861  0.0065
   63MOL   F111 7675   3.213   0.582   3.706 -0.0760  0.5120  0.2610
   63MOL   F112 7676   3.203   0.374   3.785 -0.3159  0.5174  0.2947
   63MOL   C113 7677   3.038   0.539   3.866  0.4026 -0.3293  0.3428
   63MOL   H114 7678   3.033   0.641   3.907 -0.8004 -0.9319  1.7431
   63MOL   H115 7679   3.021   0.473   3.951  4.6249 -2.5234 -0.4278
   63MOL   C116 7680   2.924   0.505   3.778  0.0189  0.3794  0.3034
   63MOL   F117 7681   2.917   0.591   3.674  0.4746  0.1266 -0.5501
   63MOL   F118 7682   2.945   0.383   3.729  0.3145  0.2290 -0.6720
   63MOL   C119 7683   2.785   0.513   3.854 -0.1299  0.0813  0.2349
   63MOL   H120 7684   2.763   0.614   3.888 -0.8026  0.3083 -0.8360
   63MOL   H121 7685   2.788   0.443   3.937  2.1600 -1.2048 -0.8819
   63MOL   H122 7686   2.697   0.497   3.791  0.1676  3.2634 -1.0554
   64MOL     C1 7687   2.266   1.555   2.954  0.6576  0.6429  0.2551
   64MOL     F2 7688   2.297   1.664   2.892 -0.3823  0.0700 -0.0993
   64MOL     F3 7689   2.223   1.468   2.860  0.4394  0.6335 -0.6113
   64MOL     C4 7690   2.171   1.570   3.079 -0.9790 -0.2153 -0.4372
   64MOL     H5 7691   2.224   1.630   3.153  0.6769 -0.0272 -1.7457
   64MOL     H6 7692   2.168   1.477   3.136 -0.7643  0.3450  0.4967
   64MOL     H7 7693   2.359   1.504   2.979  0.0546 -0.5034  0.1709
   64MOL     C8 7694   2.030   1.629   3.056  0.0754  1.0959  0.1377
   64MOL     F9 7695   2.034   1.741   2.981 -0.5484 -0.4185 -0.1043
   64MOL    F10 7696   1.975   1.529   2.982  0.1529 -0.6183 -0.2378
   64MOL    C11 7697   1.946   1.647   3.183 -0.3995 -0.0552 -0.6373
   64MOL    H12 7698   2.017   1.681   3.258  0.4386  0.1233 -1.5024
   64MOL    H13 7699   1.927   1.541   3.204 -1.1146  0.8245  3.5345
   64MOL    C14 7700   1.812   1.730   3.185  0.6828  0.7167 -0.7259
   64MOL    F15 7701   1.854   1.849   3.149 -0.0868  0.0000 -0.1346
   64MOL    F16 7702   1.727   1.675   3.097  0.5263 -0.0187  0.2169
   64MOL    C17 7703   1.754   1.722   3.327  0.1199 -0.0020  0.3671
   64MOL    H18 7704   1.838   1.733   3.396  0.8099  1.2535 -0.6507
   64MOL    H19 7705   1.730   1.623   3.366 -1.0550  0.9635  2.1207
   64MOL    C20 7706   1.643   1.818   3.363 -0.3521 -0.9474 -0.6138
   64MOL    F21 7707   1.532   1.781   3.292 -0.0606  0.3171  0.3471
   64MOL    F22 7708   1.614   1.802   3.488 -0.0103  0.1894 -0.1714
   64MOL    C23 7709   1.669   1.966   3.352 -0.0054  0.0690 -0.4345
   64MOL    H24 7710   1.577   2.017   3.379  0.1149  1.1062 -1.9397
   64MOL    H25 7711   1.686   1.992   3.247 -0.7020  4.1771  0.3732
   64MOL    C26 7712   1.779   2.034   3.437 -0.8144 -0.0088 -0.0772
   64MOL    F27 7713   1.743   2.002   3.563  0.2933  0.1319  0.6332
   64MOL    F28 7714   1.900   1.984   3.407 -0.3238  0.4708 -0.0628
   64MOL    C29 7715   1.783   2.192   3.416 -0.1737 -0.0286 -0.1225
   64MOL    H30 7716   1.698   2.235   3.469  0.2395  1.4072 -0.6125
   64MOL    H31 7717   1.770   2.221   3.312 -0.0340  1.5925  0.2970
   64MOL    C32 7718   1.908   2.271   3.478 -0.4716  0.5015  0.5775
   64MOL    F33 7719   1.932   2.214   3.596  0.2483 -0.5774 -0.1477
   64MOL    F34 7720   2.018   2.244   3.411  0.2330  0.2007  0.2178
   64MOL    C35 7721   1.899   2.425   3.497 -0.8886 -0.4302  0.4400
   64MOL    H36 7722   1.994   2.458   3.538 -0.0918 -2.3100  0.1575
   64MOL    H37 7723   1.828   2.457   3.573  1.2099  0.4323  2.0786
   64MOL    C38 7724   1.868   2.518   3.379 -0.1194 -0.0921  0.2591
   64MOL    F39 7725   1.968   2.519   3.289  0.2705  0.0416 -0.0658
   64MOL    F40 7726   1.753   2.480   3.318  0.0332 -0.4622 -0.5296
   64MOL    C41 7727   1.846   2.667   3.422 -0.5710  0.8264  0.1521
   64MOL    H42 7728   1.925   2.706   3.486  2.0121 -0.4100 -2.1570
   64MOL    H43 7729   1.764   2.691   3.490 -1.3805 -0.8506 -0.1946
   64MOL    C44 7730   1.832   2.756   3.300 -0.4895 -0.1013 -0.1467
   64MOL    F45 7731   1.944   2.771   3.231  0.2551 -0.6155  0.0282
   64MOL    F46 7732   1.747   2.700   3.219 -0.4974  0.1078 -0.3853
   64MOL    C47 7733   1.774   2.896   3.328  0.8253  0.6907 -0.5051
   64MOL    H48 7734   1.668   2.884   3.351  1.1031 -0.6050  0.1862
   64MOL    H49 7735   1.778   2.945   3.231  1.1611 -1.8788 -1.8247
   64MOL    C50 7736   1.851   2.988   3.431 -0.0433 -0.5468 -0.3054
   64MOL    F51 7737   1.809   2.945   3.546 -0.2931  0.3104 -0.0336
   64MOL    F52 7738   1.984   2.957   3.418 -0.0704  0.0851 -0.0281
   64MOL    C53 7739   1.809   3.135   3.426  0.3084  0.2872  0.2332
   64MOL    H54 7740   1.701   3.149   3.432  0.3985  0.1774  2.5243
   64MOL    H55 7741   1.830   3.157   3.322 -1.1268 -4.2135 -1.1452
   64MOL    C56 7742   1.886   3.234   3.512  0.4469  0.3141  0.6751
   64MOL    F57 7743   2.010   3.208   3.488 -0.4168  0.0582  0.1218
   64MOL    F58 7744   1.862   3.362   3.485  0.4710  0.1118  1.2398
   64MOL    C59 7745   1.875   3.203   3.666 -0.5041  0.1153  0.9419
   64MOL    H60 7746   1.966   3.230   3.720 -0.6528  1.4609  0.5368
   64MOL    H61 7747   1.905   3.099   3.678  1.2438  0.1986 -2.0600
   64MOL    C62 7748   1.747   3.226   3.750  0.3106  0.3176 -0.8600
   64MOL    F63 7749   1.725   3.354   3.768 -0.1937 -0.0964  0.2299
   64MOL    F64 7750   1.641   3.189   3.677 -0.2009  0.3177 -0.0336
   64MOL    C65 7751   1.753   3.152   3.887 -0.2469  0.1354  0.4730
   64MOL    H66 7752   1.855   3.171   3.921  0.5642 -1.6624 -0.8588
   64MOL    H67 7753   1.739   3.045   3.874  0.1614  0.2626 -1.0416
   64MOL    C68 7754   1.656   3.190   3.998 -0.2070 -0.1280  0.1143
   64MOL    F69 7755   1.651   3.324   4.016 -0.2448  0.5466 -0.0503
   64MOL    F70 7756   1.539   3.143   3.956  0.1972  0.3406  0.3092
   64MOL    C71 7757   1.678   3.123   4.132 -0.0784  0.5393 -0.1029
   64MOL    H72 7758   1.672   3.015   4.116  1.2571  0.2315  1.3661
   64MOL    H73 7759   1.596   3.149   4.199 -0.2769 -0.8585  0.2283
   64MOL    C74 7760   1.814   3.159   4.203  0.4406  0.5693 -0.3098
   64MOL    F75 7761   1.810   3.108   4.327 -0.0256 -0.0037 -0.3325
   64MOL    F76 7762   1.906   3.094   4.129 -0.0029 -0.1344  0.1508
   64MOL    C77 7763   1.851   3.309   4.229  0.4020 -0.0999  0.1886
   64MOL    H78 7764   1.777   3.365   4.285 -0.1128 -1.5618  0.9861
   64MOL    H79 7765   1.844   3.366   4.136 -0.1007 -1.0007 -0.3341
   64MOL    C80 7766   1.999   3.328   4.292  0.2584  0.3489 -0.0606
   64MOL    F81 7767   2.000   3.254   4.405  0.5158 -0.8225  0.3379
   64MOL    F82 7768   2.092   3.283   4.209 -0.8425  0.0917 -0.1831
   64MOL    C83 7769   2.044   3.471   4.337  0.2050 -0.1132  0.0695
   64MOL    H84 7770   1.977   3.503   4.417  0.6326  2.6651 -0.6340
   64MOL    H85 7771   2.017   3.534   4.252 -0.4033  1.7066  1.5655
   64MOL    C86 7772   2.184   3.473   4.393 -0.1176 -0.2308  0.3302
   64MOL    F87 7773   2.195   3.401   4.502  0.3165  0.3001  0.1688
   64MOL    F88 7774   2.268   3.429   4.299  0.0087  0.4240  0.0901
   64MOL    C89 7775   2.217   3.627   4.424  0.1747  0.2462  0.5720
   64MOL    H90 7776   2.317   3.649   4.460  0.1601  0.9546  0.1836
   64MOL    H91 7777   2.155   3.668   4.503  0.4955 -1.9313  1.9796
   64MOL    C92 7778   2.191   3.731   4.309 -0.2166  0.1942  0.2102
   64MOL    F93 7779   2.242   3.689   4.198  0.0632  0.5538 -0.0081
   64MOL    F94 7780   2.060   3.742   4.297 -0.1400 -0.0560  0.2231
   64MOL    C95 7781   2.251   3.870   4.356  0.4106 -0.8129 -0.1901
   64MOL    H96 7782   2.360   3.867   4.360  0.3647 -1.3988  0.5901
   64MOL    H97 7783   2.226   3.889   4.460 -1.2168 -4.0067  0.0668
   64MOL    C98 7784   2.200   3.994   4.278  0.0696  0.1949 -0.0050
   64MOL    F99 7785   2.077   4.010   4.307  0.0919  0.0547  0.1617
   64MOL   F100 7786   2.273   4.095   4.316 -0.1543 -0.1405  1.0227
   64MOL   C101 7787   2.219   3.975   4.123 -0.0339  0.0424  0.3621
   64MOL   H102 7788   2.169   3.888   4.081  3.5687 -1.3274 -1.3905
   64MOL   H103 7789   2.325   3.959   4.104 -0.6745 -1.4146 -2.2085
   64MOL   C104 7790   2.149   4.088   4.044 -0.1143 -0.0576 -0.0440
   64MOL   F105 7791   2.179   4.067   3.915  0.0716 -0.1126  0.6098
   64MOL   F106 7792   2.015   4.084   4.048 -0.5788 -0.5522 -0.5445
   64MOL   C107 7793   2.195   4.224   4.083 -0.0541 -0.1325  0.3624
   64MOL   H108 7794   2.303   4.234   4.079 -0.4034  3.9863 -1.5239
   64MOL   H109 7795   2.163   4.250   4.184 -1.4798  0.9497 -0.3445
   64MOL   C110 7796   2.139   4.339   3.987  0.6524  0.5479 -0.0642
   64MOL   F111 7797   2.201   4.309   3.874 -0.3710  0.6083 -0.4616
   64MOL   F112 7798   2.004   4.339   3.976 -0.0682  0.8522 -0.1225
   64MOL   C113 7799   2.199   4.474   4.028  0.1487 -0.5398 -0.2006
   64MOL   H114 7800   2.180   4.541   3.944  2.2853 -0.5928 -0.7743
   64MOL   H115 7801   2.306   4.480   4.010 -0.1120 -0.7281 -1.9143
   64MOL   C116 7802   2.146   4.547   4.162  0.0345 -0.1919 -0.2843
   64MOL   F117 7803   2.161   4.468   4.267 -0.2141  0.1365 -0.2734
   64MOL   F118 7804   2.225   4.652   4.174  0.2428  0.0229 -0.3097
   64MOL   C119 7805   2.004   4.600   4.149 -0.5449  0.8670  0.3675
   64MOL   H120 7806   1.960   4.642   4.240 -2.1392  0.8471 -0.3809
   64MOL   H121 7807   1.938   4.520   4.115  0.3298 -1.0100  2.8794
   64MOL   H122 7808   1.982   4.670   4.069 -1.5775 -1.3913 -1.3832
   65MOL     C1 7809   2.512   4.223   5.745 -0.3089 -0.0506 -0.3318
   65MOL     F2 7810   2.475   4.245   5.614  0.6526  0.0180  0.0332
   65MOL     F3 7811   2.604   4.312   5.782 -0.1068  0.3691  0.0575
   65MOL     C4 7812   2.565   4.075   5.760 -0.0329  0.4327  0.1959
   65MOL     H5 7813   2.610   4.072   5.859  0.6267  0.1828 -0.1067
   65MOL     H6 7814   2.641   4.053   5.685 -0.2151 -0.7050  0.3300
   65MOL     H7 7815   2.429   4.237   5.813 -0.5906 -1.3941 -0.3965
   65MOL     C8 7816   2.445   3.978   5.746  0.4572  0.0469 -0.3347
   65MOL     F9 7817   2.360   4.012   5.849 -0.1745  0.3751  0.0190
   65MOL    F10 7818   2.383   4.004   5.627 -0.2902  0.8589  0.1614
   65MOL    C11 7819   2.473   3.826   5.750 -0.1480  0.1775 -0.0750
   65MOL    H12 7820   2.515   3.809   5.650  1.5749  1.5042  0.3962
   65MOL    H13 7821   2.384   3.763   5.746  0.6240 -1.0531  1.7669
   65MOL    C14 7822   2.572   3.778   5.857  0.3764  0.4920 -0.4433
   65MOL    F15 7823   2.695   3.820   5.837 -0.3006  0.3190 -0.3132
   65MOL    F16 7824   2.527   3.822   5.975  0.2886 -0.0012 -0.3027
   65MOL    C17 7825   2.560   3.620   5.858  0.2771  0.3568 -0.4744
   65MOL    H18 7826   2.583   3.583   5.758 -0.1066 -1.0860 -0.0339
   65MOL    H19 7827   2.460   3.589   5.887 -0.9899  2.9289 -1.8777
   65MOL    C20 7828   2.648   3.540   5.964 -0.7451 -0.1125 -0.6320
   65MOL    F21 7829   2.774   3.563   5.942  0.3130 -0.1824 -0.1732
   65MOL    F22 7830   2.618   3.560   6.094  0.3590 -0.4562 -0.2358
   65MOL    C23 7831   2.637   3.383   5.942  0.0214  0.0472 -1.1492
   65MOL    H24 7832   2.666   3.369   5.838  0.5648 -0.1345 -0.9733
   65MOL    H25 7833   2.534   3.350   5.957  0.9731 -2.7134 -0.3601
   65MOL    C26 7834   2.721   3.300   6.034 -0.0715 -0.2380  0.1077
   65MOL    F27 7835   2.702   3.326   6.165 -0.1621  0.3624 -0.4504
   65MOL    F28 7836   2.668   3.179   6.010  0.4663 -0.2938 -0.1694
   65MOL    C29 7837   2.874   3.302   6.004  0.2369 -0.7930 -0.3860
   65MOL    H30 7838   2.920   3.401   5.999  0.6181 -1.0586 -2.5533
   65MOL    H31 7839   2.889   3.275   5.900 -0.0948  0.3509 -0.7394
   65MOL    C32 7840   2.957   3.208   6.097  0.0926  0.3752 -0.4729
   65MOL    F33 7841   2.889   3.099   6.126 -0.4615 -0.3875  0.2344
   65MOL    F34 7842   3.055   3.173   6.020  0.0007 -0.0080 -0.1294
   65MOL    C35 7843   3.009   3.263   6.233 -0.2083  0.0900 -0.3712
   65MOL    H36 7844   3.025   3.177   6.298 -0.9102 -0.3132 -0.7213
   65MOL    H37 7845   2.938   3.335   6.273  0.0289 -0.8932  1.9124
   65MOL    C38 7846   3.150   3.339   6.220  1.1522  0.5987  0.0398
   65MOL    F39 7847   3.245   3.249   6.190 -0.2448 -0.7801 -0.3420
   65MOL    F40 7848   3.130   3.427   6.125  0.6042  0.2868 -0.2941
   65MOL    C41 7849   3.201   3.408   6.347 -0.0506 -0.6468 -0.1197
   65MOL    H42 7850   3.129   3.489   6.359 -1.7018 -2.1837  0.5848
   65MOL    H43 7851   3.291   3.462   6.317 -0.5877  0.9727  1.0631
   65MOL    C44 7852   3.197   3.334   6.483  0.4536  0.0018 -0.5832
   65MOL    F45 7853   3.238   3.409   6.585 -0.4927  0.1008 -0.0176
   65MOL    F46 7854   3.067   3.313   6.499  0.1549  0.0516  0.3173
   65MOL    C47 7855   3.254   3.192   6.486 -0.1246 -0.1307 -0.2475
   65MOL    H48 7856   3.203   3.135   6.408 -0.2620 -0.0850 -0.1919
   65MOL    H49 7857   3.207   3.140   6.570  1.6337 -2.5515 -0.7093
   65MOL    C50 7858   3.406   3.181   6.487 -0.1832 -0.7335 -0.4992
   65MOL    F51 7859   3.447   3.228   6.371  0.6545  0.6487  0.2571
   65MOL    F52 7860   3.471   3.258   6.579 -0.2797  0.2514 -0.3887
   65MOL    C53 7861   3.448   3.032   6.507 -0.4399 -0.8758  0.3231
   65MOL    H54 7862   3.394   2.989   6.422  0.3503  0.0628 -0.6599
   65MOL    H55 7863   3.409   2.986   6.598 -0.1584 -2.0427 -0.1295
   65MOL    C56 7864   3.604   3.006   6.484  0.1183 -0.0097 -0.0272
   65MOL    F57 7865   3.658   3.061   6.370 -0.1877 -0.1526 -0.1783
   65MOL    F58 7866   3.658   3.062   6.595  0.1579 -0.3627  0.0979
   65MOL    C59 7867   3.627   2.853   6.487  0.4360 -0.1216  0.3064
   65MOL    H60 7868   3.566   2.787   6.426  0.7141 -0.7070  0.6651
   65MOL    H61 7869   3.597   2.814   6.584 -2.5252  1.4436  0.0795
   65MOL    C62 7870   3.778   2.820   6.462 -0.0594 -0.5532  0.7176
   65MOL    F63 7871   3.847   2.878   6.564 -0.0902  0.3003  0.0849
   65MOL    F64 7872   3.780   2.686   6.476  0.1580  0.3840 -0.3839
   65MOL    C65 7873   3.823   2.845   6.320  0.6321  0.2286  0.3787
   65MOL    H66 7874   3.841   2.952   6.321  2.5160 -0.0640  1.3602
   65MOL    H67 7875   3.740   2.815   6.256  0.4667 -2.4263  1.7317
   65MOL    C68 7876   3.951   2.774   6.272  0.4471  0.3877 -0.6099
   65MOL    F69 7877   4.044   2.774   6.375 -0.0897 -0.4153  0.1308
   65MOL    F70 7878   3.912   2.651   6.234 -0.0173 -0.4107  0.3188
   65MOL    C71 7879   4.018   2.851   6.155 -0.9727  0.9900  0.4720
   65MOL    H72 7880   4.113   2.799   6.141 -2.2660 -1.0963 -0.9106
   65MOL    H73 7881   4.052   2.949   6.187 -1.2617  0.9261  0.9868
   65MOL    C74 7882   3.947   2.864   6.022 -0.0301 -0.0705 -0.1082
   65MOL    F75 7883   3.943   2.739   5.970 -0.3123 -0.4454  0.1629
   65MOL    F76 7884   3.823   2.916   6.043 -0.5900  0.1254  0.0936
   65MOL    C77 7885   4.029   2.950   5.931  0.2047  0.3960  0.6129
   65MOL    H78 7886   4.133   2.916   5.926 -0.3985 -1.2025 -1.8022
   65MOL    H79 7887   4.026   3.049   5.976  1.9442  1.4781 -1.5077
   65MOL    C80 7888   3.994   2.964   5.785  0.9991  0.2500 -0.2421
   65MOL    F81 7889   4.014   2.849   5.722 -0.1556  0.0904  0.2817
   65MOL    F82 7890   3.862   2.989   5.777  0.2588  0.3299 -0.2435
   65MOL    C83 7891   4.078   3.078   5.718  0.0448  0.1561 -0.3209
   65MOL    H84 7892   4.182   3.080   5.749 -0.1833  0.5798  0.4476
   65MOL    H85 7893   4.046   3.177   5.753  0.3353  0.1925 -0.1554
   65MOL    C86 7894   4.070   3.088   5.563 -0.5210 -0.3072  0.0765
   65MOL    F87 7895   4.075   2.968   5.516 -0.3877 -0.1619  0.4842
   65MOL    F88 7896   3.954   3.133   5.520  0.5552  0.1317 -0.0707
   65MOL    C89 7897   4.185   3.163   5.485  0.2381 -0.2267  0.4123
   65MOL    H90 7898   4.208   3.128   5.384 -2.8537  2.2797 -1.2656
   65MOL    H91 7899   4.273   3.143   5.546  0.5496  0.2202  0.1136
   65MOL    C92 7900   4.163   3.315   5.484  0.0009  0.2988  0.6267
   65MOL    F93 7901   4.056   3.345   5.414  0.2783 -0.0679  0.1647
   65MOL    F94 7902   4.138   3.340   5.613  0.1054  0.5610 -0.2591
   65MOL    C95 7903   4.283   3.401   5.437  0.6429  0.0160 -0.2366
   65MOL    H96 7904   4.311   3.371   5.336 -0.7482 -0.1047 -0.6045
   65MOL    H97 7905   4.364   3.364   5.499 -0.5258  1.0216  1.9363
   65MOL    C98 7906   4.264   3.550   5.471  0.7078  0.1116  0.5036
   65MOL    F99 7907   4.255   3.570   5.601 -0.1958 -0.2308 -0.4232
   65MOL   F100 7908   4.373   3.614   5.432  0.0065  0.2498 -0.6802
   65MOL   C101 7909   4.154   3.625   5.397  0.0584 -0.4888  0.0000
   65MOL   H102 7910   4.156   3.729   5.429  3.7106 -0.9529  1.5927
   65MOL   H103 7911   4.055   3.588   5.424 -0.4908  0.1610 -1.1084
   65MOL   C104 7912   4.146   3.626   5.243 -0.4308 -0.4182  0.4451
   65MOL   F105 7913   4.253   3.668   5.175 -0.4086  0.1711  0.3677
   65MOL   F106 7914   4.121   3.500   5.198  0.2513  0.0791  0.2350
   65MOL   C107 7915   4.025   3.706   5.188  0.1652  1.0238  0.5161
   65MOL   H108 7916   3.937   3.645   5.211  0.0049  0.7880 -0.7052
   65MOL   H109 7917   4.028   3.716   5.080 -3.2624  0.0105  0.2345
   65MOL   C110 7918   4.001   3.844   5.245  0.1619 -0.6234  0.8772
   65MOL   F111 7919   3.954   3.835   5.365 -0.3511 -0.8685 -0.2402
   65MOL   F112 7920   4.121   3.896   5.242 -0.1933  0.2607 -0.1941
   65MOL   C113 7921   3.921   3.946   5.164 -0.6793  0.2189  0.0303
   65MOL   H114 7922   3.826   3.892   5.165 -0.2098 -0.6164  1.3212
   65MOL   H115 7923   3.960   3.965   5.064 -0.4832 -0.2748  0.0135
   65MOL   C116 7924   3.888   4.084   5.227  0.1920  0.0704 -0.2417
   65MOL   F117 7925   3.803   4.058   5.321  0.3476  0.0811  0.2018
   65MOL   F118 7926   3.996   4.141   5.279  0.2631  0.3244  0.2568
   65MOL   C119 7927   3.809   4.177   5.139  0.9768  0.0558  0.2226
   65MOL   H120 7928   3.868   4.220   5.058 -1.3756  1.2708 -0.8938
   65MOL   H121 7929   3.785   4.260   5.205  1.1825 -0.9297  1.5600
   65MOL   H122 7930   3.722   4.132   5.092  0.2948 -0.6081  2.0759
   66MOL     C1 7931   7.335   7.098   4.151 -0.1845 -0.6366 -0.8325
   66MOL     F2 7932   7.244   7.085   4.050 -0.1800  0.6829  0.2177
   66MOL     F3 7933   7.457   7.073   4.100  0.0979 -0.3971 -0.6329
   66MOL     C4 7934   7.302   7.005   4.265  0.0966 -0.1031  0.6082
   66MOL     H5 7935   7.391   6.997   4.328  0.0661  2.0375  0.9286
   66MOL     H6 7936   7.297   6.907   4.215  0.2369  0.7308 -1.0877
   66MOL     H7 7937   7.345   7.196   4.197 -0.0407 -0.4449 -1.2676
   66MOL     C8 7938   7.168   7.036   4.344 -0.1421  0.4365 -0.3406
   66MOL     F9 7939   7.187   7.127   4.428  0.5932 -0.2095  0.2955
   66MOL    F10 7940   7.070   7.065   4.265  0.3933  0.4560 -0.0237
   66MOL    C11 7941   7.129   6.911   4.433  0.1698 -0.0584  0.0013
   66MOL    H12 7942   7.098   6.845   4.351  3.7440 -0.3287 -1.2005
   66MOL    H13 7943   7.037   6.939   4.485  0.0795 -2.0922  0.9673
   66MOL    C14 7944   7.240   6.851   4.514  0.3242 -0.1225 -0.3360
   66MOL    F15 7945   7.307   6.766   4.436 -1.1178 -0.3050 -0.0435
   66MOL    F16 7946   7.320   6.950   4.562  0.3390  0.4531  0.6031
   66MOL    C17 7947   7.191   6.778   4.636 -0.0357  0.1834 -0.1787
   66MOL    H18 7948   7.109   6.714   4.604  0.7972 -1.0217  0.1011
   66MOL    H19 7949   7.148   6.847   4.709 -0.6598 -1.1353  0.7095
   66MOL    C20 7950   7.303   6.710   4.723 -0.1843  0.6498  0.1007
   66MOL    F21 7951   7.364   6.631   4.640 -0.3120  0.3743 -0.6219
   66MOL    F22 7952   7.396   6.794   4.766 -1.0877  0.3376 -0.1340
   66MOL    C23 7953   7.250   6.631   4.843  0.1623 -0.4347 -0.7794
   66MOL    H24 7954   7.227   6.703   4.921 -0.6757 -0.6555 -0.8215
   66MOL    H25 7955   7.324   6.565   4.888 -1.3100 -1.0104  0.8236
   66MOL    C26 7956   7.129   6.556   4.819 -0.1839  0.6059 -0.2924
   66MOL    F27 7957   7.020   6.642   4.819 -0.2977  0.3613 -0.7276
   66MOL    F28 7958   7.125   6.494   4.699  0.0927  0.6921 -0.1801
   66MOL    C29 7959   7.106   6.463   4.936  0.5684  0.1806  0.0770
   66MOL    H30 7960   7.093   6.523   5.026  1.4777  0.1580  0.2319
   66MOL    H31 7961   7.197   6.404   4.951 -0.3088 -1.3599 -0.6181
   66MOL    C32 7962   6.987   6.361   4.917  0.2045  0.0010 -0.4243
   66MOL    F33 7963   7.034   6.275   4.823  0.4231  0.7228  0.0489
   66MOL    F34 7964   6.967   6.289   5.033 -0.1598  0.4050  0.1698
   66MOL    C35 7965   6.852   6.426   4.866  0.4773  0.7096 -0.0451
   66MOL    H36 7966   6.869   6.484   4.776  0.8916 -0.0213 -0.4421
   66MOL    H37 7967   6.814   6.494   4.942 -0.2244 -1.1957  1.3530
   66MOL    C38 7968   6.732   6.327   4.833  0.3363 -0.2837  0.3893
   66MOL    F39 7969   6.745   6.263   4.716 -0.0772 -0.4635  0.1970
   66MOL    F40 7970   6.732   6.238   4.933 -0.0921  0.5817  0.4857
   66MOL    C41 7971   6.591   6.381   4.838  0.2934  0.0384  0.0529
   66MOL    H42 7972   6.578   6.447   4.924  0.3667 -1.7761  1.4690
   66MOL    H43 7973   6.526   6.294   4.836  0.2404  0.0947 -0.7478
   66MOL    C44 7974   6.548   6.463   4.715  0.1449 -0.6936  0.7817
   66MOL    F45 7975   6.655   6.547   4.696  0.2397  0.7004 -0.2875
   66MOL    F46 7976   6.543   6.384   4.610 -0.3813 -0.1082  0.0015
   66MOL    C47 7977   6.418   6.540   4.725  0.1298  0.5891 -0.7956
   66MOL    H48 7978   6.422   6.591   4.822 -0.0603 -0.8484 -0.0258
   66MOL    H49 7979   6.354   6.454   4.744  1.2959 -0.0872  0.1988
   66MOL    C50 7980   6.379   6.631   4.603  0.2980  0.0039  0.3992
   66MOL    F51 7981   6.474   6.725   4.584  0.2369  0.2491 -0.1391
   66MOL    F52 7982   6.360   6.565   4.494  0.1236  0.7419  0.4506
   66MOL    C53 7983   6.243   6.714   4.628 -0.4226  0.4287  0.2379
   66MOL    H54 7984   6.217   6.786   4.551 -0.7144 -1.4842 -1.4840
   66MOL    H55 7985   6.274   6.780   4.710 -2.0103  1.2747  0.1925
   66MOL    C56 7986   6.109   6.639   4.663  0.1310 -0.0862 -0.6125
   66MOL    F57 7987   6.121   6.568   4.776  0.1084 -0.3583  0.3044
   66MOL    F58 7988   6.028   6.744   4.699 -0.3877 -0.0969  0.0745
   66MOL    C59 7989   6.049   6.558   4.548  0.4415  0.0315  0.0217
   66MOL    H60 7990   6.112   6.471   4.530  0.7992 -0.5691  3.7865
   66MOL    H61 7991   6.063   6.604   4.450 -1.8506  1.7701  0.4641
   66MOL    C62 7992   5.910   6.501   4.558 -0.0348 -0.7666  0.5249
   66MOL    F63 7993   5.822   6.596   4.584 -0.0504 -0.2596 -0.1033
   66MOL    F64 7994   5.890   6.440   4.441 -0.0688 -0.4792  0.2201
   66MOL    C65 7995   5.897   6.392   4.668 -0.2790  0.1107  1.0679
   66MOL    H66 7996   5.928   6.433   4.764 -2.2564  0.5084  1.5464
   66MOL    H67 7997   5.972   6.316   4.646 -1.4664 -0.3369 -1.7142
   66MOL    C68 7998   5.752   6.339   4.684  0.2690  0.1100  0.0206
   66MOL    F69 7999   5.672   6.435   4.717  0.0408  0.2516 -0.1017
   66MOL    F70 8000   5.711   6.285   4.568 -0.1903  0.4107  0.6639
   66MOL    C71 8001   5.743   6.228   4.780  1.0119 -0.3215  0.3411
   66MOL    H72 8002   5.814   6.237   4.863 -0.3850 -0.8159  1.6271
   66MOL    H73 8003   5.778   6.139   4.728  0.1156 -1.3580  1.4580
   66MOL    C74 8004   5.596   6.193   4.837  0.2397  0.5552  0.2057
   66MOL    F75 8005   5.555   6.303   4.902 -0.4506  0.1087 -0.3770
   66MOL    F76 8006   5.522   6.169   4.726  0.2772  0.5399 -0.1510
   66MOL    C77 8007   5.603   6.073   4.934  0.0948  0.1013 -1.1313
   66MOL    H78 8008   5.679   6.091   5.010  0.5531 -1.1779 -1.2742
   66MOL    H79 8009   5.637   5.984   4.880 -0.1214 -0.7529  0.1063
   66MOL    C80 8010   5.480   6.035   5.012  0.1610  0.2577 -0.2451
   66MOL    F81 8011   5.380   6.021   4.925  0.0070  0.3653  0.0638
   66MOL    F82 8012   5.511   5.919   5.074 -0.2055 -0.0978  0.0692
   66MOL    C83 8013   5.444   6.144   5.119 -0.3842 -0.2736 -0.4889
   66MOL    H84 8014   5.411   6.236   5.070  2.2255  0.1344 -1.5779
   66MOL    H85 8015   5.529   6.172   5.180 -2.0834  0.1055  1.7798
   66MOL    C86 8016   5.323   6.109   5.213 -0.1891 -0.0038 -0.0966
   66MOL    F87 8017   5.369   6.003   5.279  0.0540 -0.0732  0.0545
   66MOL    F88 8018   5.322   6.210   5.299  0.0728 -0.4281 -0.0307
   66MOL    C89 8019   5.184   6.075   5.145  0.4059  0.0041 -0.2926
   66MOL    H90 8020   5.204   5.977   5.101  1.5023  0.0531  0.0755
   66MOL    H91 8021   5.159   6.150   5.069  2.5112 -0.1967 -1.2415
   66MOL    C92 8022   5.077   6.073   5.255 -0.0130  0.0410 -0.4779
   66MOL    F93 8023   5.082   5.986   5.360 -0.4162 -0.1260  0.1202
   66MOL    F94 8024   5.067   6.198   5.306  0.7345  0.1466 -0.4164
   66MOL    C95 8025   4.945   6.039   5.177  0.3926 -0.1606  0.0735
   66MOL    H96 8026   4.970   5.946   5.127  2.9481  0.3209  0.3740
   66MOL    H97 8027   4.939   6.109   5.094  0.1825  0.4777  0.6201
   66MOL    C98 8028   4.813   6.036   5.262 -0.6487 -0.4955 -0.3695
   66MOL    F99 8029   4.816   5.934   5.351  0.2875 -0.0436 -0.0515
   66MOL   F100 8030   4.805   6.148   5.329 -0.7225 -0.0558 -0.1537
   66MOL   C101 8031   4.698   6.032   5.167 -0.2973  0.2862 -0.6492
   66MOL   H102 8032   4.718   5.936   5.120  1.0137  0.4406 -0.4371
   66MOL   H103 8033   4.692   6.112   5.093 -0.5972  1.4694  0.6299
   66MOL   C104 8034   4.559   6.027   5.236  0.8600 -0.2530 -0.1010
   66MOL   F105 8035   4.540   5.913   5.307 -0.4833 -0.1659  0.2646
   66MOL   F106 8036   4.547   6.129   5.315  0.1710  0.4181 -0.0811
   66MOL   C107 8037   4.437   6.043   5.139  0.1362 -0.2775 -1.1290
   66MOL   H108 8038   4.447   6.143   5.096  2.2659  1.0753  2.2825
   66MOL   H109 8039   4.342   6.050   5.193  1.7820 -0.4599  1.9350
   66MOL   C110 8040   4.409   5.931   5.032 -0.0677  0.4140  0.1101
   66MOL   F111 8041   4.520   5.935   4.963 -0.4997  0.5183  0.1773
   66MOL   F112 8042   4.396   5.806   5.077 -0.0928 -0.2230 -0.3760
   66MOL   C113 8043   4.291   5.957   4.936 -0.1333  0.0467 -0.6285
   66MOL   H114 8044   4.220   5.990   5.012  0.3669  0.8332 -0.4977
   66MOL   H115 8045   4.256   5.864   4.893 -0.6974 -0.5872  1.1824
   66MOL   C116 8046   4.298   6.064   4.830  0.0027 -0.0739 -0.0645
   66MOL   F117 8047   4.348   6.184   4.862  0.1333 -0.0259 -0.3372
   66MOL   F118 8048   4.369   6.023   4.728 -0.3908  0.3584  0.3917
   66MOL   C119 8049   4.160   6.101   4.773 -0.0837  0.1947 -0.2077
   66MOL   H120 8050   4.104   6.029   4.714 -0.2571  0.7507 -0.7237
   66MOL   H121 8051   4.166   6.186   4.705 -3.4554  0.1792 -0.6165
   66MOL   H122 8052   4.097   6.128   4.858 -0.0260 -2.2772  0.6589
   67MOL     C1 8053   4.271   0.683   3.190 -0.0993  0.3064 -0.1225
   67MOL     F2 8054   4.352   0.578   3.182 -0.0637 -0.7200 -0.8689
   67MOL     F3 8055   4.343   0.789   3.161 -0.2017 -0.0922 -0.0182
   67MOL     C4 8056   4.211   0.698   3.329 -0.1151  0.7343 -0.3790
   67MOL     H5 8057   4.149   0.787   3.329  0.0852  0.8713 -0.8650
   67MOL     H6 8058   4.295   0.720   3.396 -0.2146  1.9822 -0.6605
   67MOL     H7 8059   4.191   0.668   3.117 -1.1259 -2.4418  1.5008
   67MOL     C8 8060   4.137   0.573   3.371  0.3545  0.5379  0.3997
   67MOL     F9 8061   4.044   0.558   3.278  0.9298 -0.7883 -0.6439
   67MOL    F10 8062   4.208   0.453   3.380 -0.3358 -0.1198  0.6665
   67MOL    C11 8063   4.064   0.585   3.502 -0.5623  0.5032  0.4152
   67MOL    H12 8064   4.000   0.672   3.495 -0.2911  0.5521 -1.7583
   67MOL    H13 8065   4.139   0.617   3.574 -0.4731  0.7531  0.2121
   67MOL    C14 8066   3.971   0.471   3.551 -0.1391  0.0557  0.0159
   67MOL    F15 8067   3.910   0.434   3.441  0.1830  0.2118  0.4289
   67MOL    F16 8068   4.046   0.366   3.598 -0.2106 -0.2981 -0.0647
   67MOL    C17 8069   3.857   0.533   3.641  0.1287 -0.2571  0.0232
   67MOL    H18 8070   3.806   0.610   3.582 -0.0107 -0.8928 -0.6846
   67MOL    H19 8071   3.909   0.598   3.712 -0.7915  0.2073  0.2843
   67MOL    C20 8072   3.748   0.445   3.711 -0.2108  0.2478  0.3518
   67MOL    F21 8073   3.671   0.527   3.781  0.1000  0.6107 -0.2676
   67MOL    F22 8074   3.681   0.374   3.620  0.1869  0.0975 -0.4280
   67MOL    C23 8075   3.814   0.346   3.801 -0.2564  0.2671  0.1099
   67MOL    H24 8076   3.873   0.406   3.870 -0.5362  1.0754 -0.3539
   67MOL    H25 8077   3.883   0.286   3.742 -1.1253 -0.5803 -0.0568
   67MOL    C26 8078   3.720   0.260   3.885 -0.5566  0.0162 -0.1065
   67MOL    F27 8079   3.646   0.337   3.966 -0.2646  0.3933 -0.0051
   67MOL    F28 8080   3.641   0.196   3.801 -0.7504  0.2020 -0.8149
   67MOL    C29 8081   3.807   0.160   3.969  0.6351  0.0743 -0.0294
   67MOL    H30 8082   3.876   0.218   4.031  0.9489 -0.8431  0.4991
   67MOL    H31 8083   3.868   0.116   3.890 -2.2979  0.1875 -2.4257
   67MOL    C32 8084   3.727   0.056   4.046 -0.1527  0.0799 -0.1774
   67MOL    F33 8085   3.819   8.341   4.117 -0.4284  0.2151  0.1433
   67MOL    F34 8086   3.654   0.118   4.138 -0.0935  0.0942  0.3696
   67MOL    C35 8087   3.648   8.301   3.959  0.5630  0.0200 -0.0983
   67MOL    H36 8088   3.704   8.271   3.871 -1.5866  3.2873 -2.7262
   67MOL    H37 8089   3.563   0.008   3.921 -0.7188 -1.7931  0.0108
   67MOL    C38 8090   3.588   8.185   4.038  0.6334 -0.7991 -0.1787
   67MOL    F39 8091   3.525   8.105   3.953 -0.4570 -0.0799 -0.2337
   67MOL    F40 8092   3.688   8.108   4.092 -0.5810  0.6239 -0.0247
   67MOL    C41 8093   3.487   8.216   4.152 -0.6149  0.8320 -0.0465
   67MOL    H42 8094   3.413   8.288   4.118 -0.3987  0.4492 -1.3649
   67MOL    H43 8095   3.543   8.265   4.232 -0.8934  0.8866  0.1156
   67MOL    C44 8096   3.410   8.097   4.218  0.6885 -0.3916  0.0508
   67MOL    F45 8097   3.332   8.142   4.309  0.4425 -0.3209  0.0854
   67MOL    F46 8098   3.329   8.056   4.126  0.2221 -0.1887  0.2825
   67MOL    C47 8099   3.495   7.982   4.275 -0.1130 -0.6246  0.0468
   67MOL    H48 8100   3.545   8.014   4.366  2.6777 -1.1715 -1.2369
   67MOL    H49 8101   3.573   7.949   4.207 -0.9869 -0.4064 -1.0750
   67MOL    C50 8102   3.412   7.866   4.321  0.0518  0.5194  0.6067
   67MOL    F51 8103   3.497   7.785   4.384  0.2208  0.5005 -0.1522
   67MOL    F52 8104   3.310   7.906   4.405 -0.2752 -0.6818 -0.1996
   67MOL    C53 8105   3.339   7.779   4.210 -0.4649 -0.1693 -0.0092
   67MOL    H54 8106   3.410   7.758   4.130  1.1161  0.4752  1.1887
   67MOL    H55 8107   3.249   7.826   4.172 -0.4392 -0.3618 -0.3095
   67MOL    C56 8108   3.296   7.637   4.253  0.2108  0.0890 -0.4389
   67MOL    F57 8109   3.398   7.550   4.266 -0.3048 -0.3932  0.6306
   67MOL    F58 8110   3.235   7.646   4.373  0.0154 -0.1528 -0.1322
   67MOL    C59 8111   3.190   7.576   4.147 -0.2737 -0.4594 -0.6519
   67MOL    H60 8112   3.240   7.592   4.051  1.4432 -1.3842  0.0689
   67MOL    H61 8113   3.097   7.631   4.161  0.2870  0.5524 -0.8333
   67MOL    C62 8114   3.172   7.419   4.154 -0.1272 -0.1010 -0.5876
   67MOL    F63 8115   3.286   7.360   4.123 -0.0667 -0.2458 -0.0057
   67MOL    F64 8116   3.154   7.392   4.283 -0.0864 -0.4162  0.6081
   67MOL    C65 8117   3.064   7.360   4.068  0.2122  0.4946 -0.0990
   67MOL    H66 8118   3.100   7.363   3.965  0.4326 -0.8371 -0.0635
   67MOL    H67 8119   2.980   7.430   4.060 -1.0571 -0.6979  2.3345
   67MOL    C68 8120   3.012   7.216   4.105 -0.7213 -0.2448 -0.4027
   67MOL    F69 8121   3.117   7.136   4.114 -0.0649 -1.0953 -0.1271
   67MOL    F70 8122   2.969   7.216   4.228  0.2599 -0.4028 -0.4585
   67MOL    C71 8123   2.914   7.164   3.999 -0.0958 -0.6113 -0.2626
   67MOL    H72 8124   2.974   7.145   3.910  2.0346  0.6776  0.8350
   67MOL    H73 8125   2.865   7.255   3.967  1.0623  0.8482  1.9506
   67MOL    C74 8126   2.822   7.045   4.027 -0.6860 -0.0784  0.7124
   67MOL    F75 8127   2.743   7.067   4.130  0.2449 -0.3982  0.3464
   67MOL    F76 8128   2.750   7.028   3.914  0.0278 -0.2779  0.2748
   67MOL    C77 8129   2.890   6.914   4.055 -0.0504  0.2118 -0.2484
   67MOL    H78 8130   2.962   6.928   4.135 -1.7964  1.2053  1.1802
   67MOL    H79 8131   2.956   6.888   3.972  0.1424 -3.0117  0.8520
   67MOL    C80 8132   2.791   6.800   4.103 -0.1522  0.8747 -0.8553
   67MOL    F81 8133   2.869   6.690   4.118  0.1597 -0.0562  0.0657
   67MOL    F82 8134   2.741   6.830   4.222  0.0604  0.0826  0.3622
   67MOL    C83 8135   2.693   6.761   3.995 -0.0031  0.0324 -0.0367
   67MOL    H84 8136   2.739   6.747   3.897  1.4012 -2.7630  0.9644
   67MOL    H85 8137   2.624   6.845   3.982  1.9657  1.1289 -3.9600
   67MOL    C86 8138   2.587   6.649   4.023  0.6721  0.4516  0.1245
   67MOL    F87 8139   2.513   6.678   4.127 -0.3216 -0.0169  0.3383
   67MOL    F88 8140   2.515   6.650   3.911 -0.0044 -0.3772 -0.2735
   67MOL    C89 8141   2.655   6.504   4.034  0.3439 -0.3699  0.3998
   67MOL    H90 8142   2.573   6.440   4.065 -0.9085 -0.2495 -2.4931
   67MOL    H91 8143   2.718   6.505   4.123 -0.1340  2.2853  0.7372
   67MOL    C92 8144   2.730   6.440   3.911 -0.2253  0.2566  0.2870
   67MOL    F93 8145   2.653   6.424   3.800 -0.0335 -0.4667  0.7405
   67MOL    F94 8146   2.825   6.521   3.882  0.5391  0.1472 -0.2327
   67MOL    C95 8147   2.797   6.301   3.947  0.3184  0.5086 -0.1014
   67MOL    H96 8148   2.871   6.309   4.027  1.1959  0.8072 -0.9377
   67MOL    H97 8149   2.860   6.275   3.862  0.1470 -2.0643  0.5350
   67MOL    C98 8150   2.702   6.197   4.002 -0.1666  0.7464 -0.7909
   67MOL    F99 8151   2.679   6.225   4.131 -0.3277  0.5482  0.0077
   67MOL   F100 8152   2.585   6.202   3.939  0.1650  0.3974  0.1474
   67MOL   C101 8153   2.741   6.046   3.993 -0.4744 -0.2390 -0.0681
   67MOL   H102 8154   2.836   6.031   4.044 -0.0329  0.5212 -0.6614
   67MOL   H103 8155   2.767   6.022   3.890  1.1841  2.1565 -0.2501
   67MOL   C104 8156   2.637   5.947   4.043 -0.2839  0.3498  0.2570
   67MOL   F105 8157   2.516   5.960   3.979  0.3289 -0.4816  0.1012
   67MOL   F106 8158   2.672   5.824   4.006 -0.0960  0.0937  0.5451
   67MOL   C107 8159   2.617   5.940   4.197 -0.4533  0.3181 -0.2264
   67MOL   H108 8160   2.554   5.856   4.225 -2.7696  1.4974 -1.6954
   67MOL   H109 8161   2.576   6.037   4.225 -1.5424 -0.0158 -0.6453
   67MOL   C110 8162   2.747   5.920   4.282  0.2246  0.6876  0.0710
   67MOL   F111 8163   2.811   5.813   4.220 -0.0947  0.2769  0.6783
   67MOL   F112 8164   2.825   6.028   4.268  0.0901  0.0771 -0.4484
   67MOL   C113 8165   2.723   5.895   4.427 -1.0432 -0.1803  0.5457
   67MOL   H114 8166   2.827   5.889   4.459 -1.5280  0.0876  2.2197
   67MOL   H115 8167   2.684   5.794   4.440  0.8435 -0.7469  1.9812
   67MOL   C116 8168   2.640   6.000   4.514 -0.4065  0.0432  0.2026
   67MOL   F117 8169   2.516   5.994   4.487 -0.5210 -0.6021  0.0697
   67MOL   F118 8170   2.652   5.970   4.645 -0.6497  0.2440  0.1144
   67MOL   C119 8171   2.677   6.148   4.498 -0.2087  0.5015 -0.4236
   67MOL   H120 8172   2.783   6.166   4.519 -0.0553 -2.2594  1.4472
   67MOL   H121 8173   2.616   6.205   4.567  0.2662  0.1593  0.2793
   67MOL   H122 8174   2.651   6.194   4.402  1.5598 -1.1239 -1.7383
   68MOL     C1 8175   5.771   5.873   3.628 -0.1300 -0.2991 -0.8120
   68MOL     F2 8176   5.679   5.794   3.682 -0.2806  0.1945  0.0835
   68MOL     F3 8177   5.704   5.956   3.553 -0.3637 -0.1196  0.0265
   68MOL     C4 8178   5.848   5.777   3.532  0.2181 -0.1041  0.4405
   68MOL     H5 8179   5.769   5.728   3.475 -0.7976  2.1288 -0.1361
   68MOL     H6 8180   5.888   5.691   3.585 -2.6319 -2.1829 -0.6405
   68MOL     H7 8181   5.835   5.929   3.697 -1.5102 -1.2145  1.2463
   68MOL     C8 8182   5.958   5.842   3.437  0.4953  0.3251 -0.2164
   68MOL     F9 8183   5.907   5.952   3.381  0.2938 -0.4531  0.6086
   68MOL    F10 8184   6.058   5.888   3.509  0.4175 -0.9213 -0.3545
   68MOL    C11 8185   6.002   5.759   3.313  0.0716 -0.2838 -0.1526
   68MOL    H12 8186   6.069   5.829   3.262  0.9135 -0.7094  0.3545
   68MOL    H13 8187   5.925   5.749   3.237  0.3513 -2.5819 -0.1487
   68MOL    C14 8188   6.069   5.624   3.344 -0.6831  0.0556  0.2548
   68MOL    F15 8189   6.173   5.643   3.420  0.4038 -0.1079 -0.0714
   68MOL    F16 8190   5.989   5.540   3.413  0.4968 -0.4208  0.1737
   68MOL    C17 8191   6.133   5.567   3.211 -0.1969 -0.4416  0.3842
   68MOL    H18 8192   6.199   5.485   3.239  3.6409  2.7976  1.2487
   68MOL    H19 8193   6.209   5.638   3.179 -0.2411  0.4596  2.2209
   68MOL    C20 8194   6.048   5.502   3.106 -0.1894 -0.2381  0.3337
   68MOL    F21 8195   5.993   5.395   3.147  0.2225 -0.0158 -0.2632
   68MOL    F22 8196   5.957   5.591   3.073  0.2237 -0.3855  0.3005
   68MOL    C23 8197   6.124   5.467   2.975 -0.3016  0.2783 -0.5118
   68MOL    H24 8198   6.064   5.403   2.910  0.4737 -0.1230 -0.8477
   68MOL    H25 8199   6.212   5.409   3.007  1.0393  2.5673  0.0547
   68MOL    C26 8200   6.168   5.586   2.884  0.0076  0.0178  0.5428
   68MOL    F27 8201   6.068   5.674   2.861  0.0989 -0.1951 -0.3793
   68MOL    F28 8202   6.257   5.658   2.950 -0.2479 -0.2390  0.2571
   68MOL    C29 8203   6.251   5.538   2.758  0.3495 -0.0012 -0.4185
   68MOL    H30 8204   6.322   5.464   2.793 -1.3558 -1.0145  0.9715
   68MOL    H31 8205   6.324   5.613   2.729  1.1667 -0.5576  0.1864
   68MOL    C32 8206   6.170   5.476   2.636  0.7495  0.2766  0.5486
   68MOL    F33 8207   6.133   5.350   2.664  0.1456  0.2520 -0.3026
   68MOL    F34 8208   6.068   5.557   2.610  0.2003 -0.4270 -0.0736
   68MOL    C35 8209   6.268   5.472   2.511  0.6069 -0.1955 -0.1402
   68MOL    H36 8210   6.298   5.568   2.469  0.5735 -1.3774 -2.9983
   68MOL    H37 8211   6.202   5.426   2.438 -0.0050 -0.0265  0.3060
   68MOL    C38 8212   6.398   5.387   2.526 -0.8179 -0.0890 -0.3552
   68MOL    F39 8213   6.471   5.437   2.628  0.3100 -0.6154  0.2467
   68MOL    F40 8214   6.348   5.268   2.551 -0.8139  0.3432 -0.2729
   68MOL    C41 8215   6.479   5.391   2.395  0.1618 -0.0710  0.4366
   68MOL    H42 8216   6.475   5.497   2.368  2.0076  0.0145  0.4254
   68MOL    H43 8217   6.430   5.342   2.311 -1.9381  1.7038  0.5807
   68MOL    C44 8218   6.622   5.334   2.400 -0.2020 -0.1133 -0.6411
   68MOL    F45 8219   6.677   5.351   2.284 -0.6661 -0.2814 -0.2434
   68MOL    F46 8220   6.693   5.408   2.481  0.2408  0.5111 -0.3453
   68MOL    C47 8221   6.637   5.185   2.448 -0.8411  0.0080  0.3993
   68MOL    H48 8222   6.585   5.185   2.544 -0.3729 -1.9166  0.6695
   68MOL    H49 8223   6.742   5.173   2.474 -0.4390  2.2907 -0.0603
   68MOL    C50 8224   6.582   5.074   2.362 -0.2823 -0.1697  0.1446
   68MOL    F51 8225   6.580   4.949   2.424 -0.7985  0.1465 -0.2117
   68MOL    F52 8226   6.458   5.108   2.338  0.4517 -0.4625 -0.1746
   68MOL    C53 8227   6.649   5.056   2.218  0.9641  0.6747 -0.8018
   68MOL    H54 8228   6.629   5.153   2.171 -4.0598 -0.9630 -2.3339
   68MOL    H55 8229   6.579   5.004   2.153  2.8991  1.5766 -3.7317
   68MOL    C56 8230   6.787   4.990   2.213 -0.3639  0.1010 -0.3644
   68MOL    F57 8231   6.809   4.978   2.081 -0.1043 -0.0903  0.2279
   68MOL    F58 8232   6.880   5.067   2.264  0.4565  0.0510  0.0150
   68MOL    C59 8233   6.802   4.849   2.269 -0.1309 -0.7369 -0.5998
   68MOL    H60 8234   6.720   4.786   2.232 -1.3944  0.3229  0.3617
   68MOL    H61 8235   6.789   4.858   2.377  0.1226 -1.0525 -0.5412
   68MOL    C62 8236   6.938   4.785   2.245 -0.8549 -0.6929  0.4071
   68MOL    F63 8237   6.931   4.661   2.298 -0.2642 -0.2255  0.6563
   68MOL    F64 8238   6.958   4.766   2.111 -0.7366 -0.6368 -0.5907
   68MOL    C65 8239   7.064   4.851   2.308  1.0430 -0.2916 -0.2756
   68MOL    H66 8240   7.045   4.896   2.406 -1.0865 -3.0142  0.6212
   68MOL    H67 8241   7.105   4.932   2.247 -0.5356  1.7363  1.2753
   68MOL    C68 8242   7.188   4.761   2.321 -0.1322 -0.0810  0.1361
   68MOL    F69 8243   7.294   4.837   2.351  0.0371  0.3638  0.4905
   68MOL    F70 8244   7.158   4.681   2.414 -0.2437 -0.3365 -0.0192
   68MOL    C71 8245   7.219   4.687   2.192  0.0575 -0.2946 -0.0709
   68MOL    H72 8246   7.217   4.762   2.112  0.0295  0.3070  0.4897
   68MOL    H73 8247   7.144   4.610   2.175 -0.2032  0.0277 -0.4047
   68MOL    C74 8248   7.358   4.616   2.183 -0.3548  0.1226  0.0933
   68MOL    F75 8249   7.362   4.555   2.069 -0.0099 -0.0660  0.3654
   68MOL    F76 8250   7.454   4.710   2.189 -0.2035 -0.4707 -0.1649
   68MOL    C77 8251   7.385   4.515   2.302 -0.2917 -0.4182 -0.9377
   68MOL    H78 8252   7.389   4.574   2.394  0.7194 -0.3626 -1.0073
   68MOL    H79 8253   7.485   4.472   2.291 -0.3333 -0.9790  0.6975
   68MOL    C80 8254   7.287   4.388   2.316 -0.2368 -0.8984  0.0261
   68MOL    F81 8255   7.333   4.319   2.424  0.2087 -0.2873  0.7091
   68MOL    F82 8256   7.166   4.439   2.345 -0.0626 -0.0006 -0.1592
   68MOL    C83 8257   7.294   4.290   2.204  0.4513  0.1686 -0.2616
   68MOL    H84 8258   7.383   4.227   2.215 -1.7739 -3.0174  0.3669
   68MOL    H85 8259   7.323   4.345   2.114  1.1500  0.4042  0.1049
   68MOL    C86 8260   7.179   4.188   2.187  0.1457 -0.0876 -0.0998
   68MOL    F87 8261   7.219   4.089   2.105  0.0714  0.2264 -0.5305
   68MOL    F88 8262   7.142   4.127   2.306  0.3669 -0.2478 -0.1831
   68MOL    C89 8263   7.043   4.238   2.128  0.0977  0.1367 -0.6086
   68MOL    H90 8264   7.007   4.307   2.205 -2.3170  0.2598 -1.8068
   68MOL    H91 8265   6.980   4.149   2.140  2.3590 -1.3849  0.3865
   68MOL    C92 8266   7.034   4.292   1.979 -0.1596  0.6811 -0.1943
   68MOL    F93 8267   6.910   4.348   1.970 -0.0722  0.1119  0.8561
   68MOL    F94 8268   7.127   4.389   1.967  0.1038  0.1597 -0.1320
   68MOL    C95 8269   7.067   4.200   1.860  0.2555  0.1059  0.1717
   68MOL    H96 8270   7.173   4.176   1.873  0.0582 -0.3353  1.0106
   68MOL    H97 8271   7.055   4.248   1.763  0.7636  0.0343  0.0700
   68MOL    C98 8272   6.980   4.068   1.848 -0.5263 -0.4939  0.1423
   68MOL    F99 8273   6.993   3.988   1.958  0.0638 -0.2587  0.2157
   68MOL   F100 8274   6.852   4.089   1.814 -0.3771 -0.7597 -0.2003
   68MOL   C101 8275   7.044   3.980   1.735  0.1507  0.6314  1.0014
   68MOL   H102 8276   7.145   3.948   1.758 -0.0226 -0.2886  0.5240
   68MOL   H103 8277   7.038   4.053   1.654 -0.2513 -0.4183  0.0548
   68MOL   C104 8278   6.967   3.842   1.699 -0.2916  0.3896 -0.2280
   68MOL   F105 8279   6.977   3.768   1.807 -0.3380 -0.1265  0.0846
   68MOL   F106 8280   6.838   3.866   1.671  0.2552 -0.0366  0.2159
   68MOL   C107 8281   7.025   3.777   1.576 -0.2401  0.1040 -0.0332
   68MOL   H108 8282   7.131   3.784   1.597 -0.4616 -0.1937  1.1991
   68MOL   H109 8283   7.013   3.859   1.506  0.2455  1.8368  1.8956
   68MOL   C110 8284   6.974   3.641   1.523  0.0477  0.1377  0.2402
   68MOL   F111 8285   6.856   3.643   1.465 -0.2981 -0.0882 -0.4264
   68MOL   F112 8286   7.049   3.593   1.422  0.4169 -0.0635 -0.0279
   68MOL   C113 8287   6.977   3.527   1.626 -0.2968 -0.6683 -0.1416
   68MOL   H114 8288   6.936   3.439   1.575 -2.0988 -0.4292  0.8547
   68MOL   H115 8289   6.895   3.550   1.694 -2.2585 -2.7579 -1.7148
   68MOL   C116 8290   7.114   3.488   1.686 -0.3820  0.1422  0.0540
   68MOL   F117 8291   7.198   3.463   1.579 -0.0386  0.2641 -0.5629
   68MOL   F118 8292   7.158   3.583   1.763 -0.3459 -0.2598  0.0104
   68MOL   C119 8293   7.121   3.357   1.773  0.7755 -1.3362  0.4179
   68MOL   H120 8294   7.077   3.276   1.716  2.1560 -0.7866 -1.4581
   68MOL   H121 8295   7.065   3.377   1.865  1.0191 -1.2418  0.5453
   68MOL   H122 8296   7.219   3.336   1.815  0.4201 -2.0432  0.9066
   69MOL     C1 8297   1.502   0.979   4.434  0.2221 -0.0388 -0.2606
   69MOL     F2 8298   1.472   1.084   4.512 -0.3523 -0.0860 -0.3873
   69MOL     F3 8299   1.630   0.991   4.388 -0.2404 -0.4143 -0.1851
   69MOL     C4 8300   1.422   0.955   4.308  0.6930 -0.2526 -0.2988
   69MOL     H5 8301   1.471   0.882   4.242  1.9637  0.8321 -0.5757
   69MOL     H6 8302   1.432   1.041   4.242  0.7555  0.3501  0.4945
   69MOL     H7 8303   1.499   0.894   4.503  0.0007 -0.1372 -0.3939
   69MOL     C8 8304   1.276   0.920   4.344  0.1566  0.0364  0.6913
   69MOL     F9 8305   1.267   0.805   4.412  0.1933  0.3307  0.6202
   69MOL    F10 8306   1.223   1.012   4.418 -0.0956  0.0574 -0.4661
   69MOL    C11 8307   1.186   0.906   4.214  0.2205  0.8258 -0.1637
   69MOL    H12 8308   1.090   0.862   4.241  1.6310 -1.6878  0.9228
   69MOL    H13 8309   1.234   0.828   4.156  1.0058 -0.2444  1.8695
   69MOL    C14 8310   1.173   1.033   4.126  0.7939 -0.2288 -0.5818
   69MOL    F15 8311   1.129   1.134   4.202  0.1800  0.1909 -0.3188
   69MOL    F16 8312   1.288   1.069   4.074  0.2675 -0.0070 -0.1873
   69MOL    C17 8313   1.064   1.029   4.014  0.2525 -0.1227  0.1558
   69MOL    H18 8314   1.062   1.129   3.969  2.3703 -0.0455  0.1754
   69MOL    H19 8315   0.968   1.011   4.063  0.8539  1.5805  2.0070
   69MOL    C20 8316   1.097   0.914   3.912 -0.5179 -0.3797 -0.1772
   69MOL    F21 8317   1.226   0.935   3.875  0.1278 -0.3165  0.2524
   69MOL    F22 8318   1.089   0.791   3.966  0.4188  0.0068 -0.2276
   69MOL    C23 8319   1.004   0.919   3.791  0.2752 -0.5687  0.0905
   69MOL    H24 8320   0.966   1.017   3.762 -0.9818 -1.7017 -2.2173
   69MOL    H25 8321   0.907   0.874   3.813 -0.1864  0.6916  0.6795
   69MOL    C26 8322   1.056   0.850   3.655  0.6774 -0.0325  0.5217
   69MOL    F27 8323   1.151   0.919   3.590 -0.6316 -0.0417 -0.5527
   69MOL    F28 8324   1.095   0.730   3.694 -0.5377 -0.1602  0.7834
   69MOL    C29 8325   0.940   0.839   3.544 -0.3393  0.2157 -0.1108
   69MOL    H30 8326   0.908   0.940   3.518 -0.6331  0.2179  0.2541
   69MOL    H31 8327   0.862   0.786   3.597 -0.8735  0.4784 -0.6274
   69MOL    C32 8328   0.968   0.751   3.423 -0.7396  0.3958  0.6254
   69MOL    F33 8329   1.079   0.800   3.367 -0.6311 -0.4239 -0.1945
   69MOL    F34 8330   0.988   0.623   3.463  0.8001  0.2151  0.1416
   69MOL    C35 8331   0.854   0.759   3.324 -0.9827  0.4965  0.5125
   69MOL    H36 8332   0.889   0.725   3.227  1.4218  1.3167  1.0387
   69MOL    H37 8333   0.836   0.861   3.289  0.4975  0.0481 -1.6340
   69MOL    C38 8334   0.724   0.685   3.355 -0.2239  0.4265  0.5342
   69MOL    F39 8335   0.759   0.555   3.361  0.6752 -0.4597  0.0151
   69MOL    F40 8336   0.681   0.721   3.479  0.5038  0.0921 -0.9280
   69MOL    C41 8337   0.613   0.704   3.246 -0.6102 -0.4063 -0.3233
   69MOL    H42 8338   0.599   0.806   3.210 -0.3184 -0.2748 -0.0647
   69MOL    H43 8339   0.519   0.677   3.294 -1.1238  1.5606 -0.1701
   69MOL    C44 8340   0.645   0.625   3.113 -0.2665 -0.4260  0.0949
   69MOL    F45 8341   0.751   0.670   3.047 -0.7770 -0.4207  0.3915
   69MOL    F46 8342   0.662   0.501   3.143 -0.0898 -0.0405 -0.3723
   69MOL    C47 8343   0.525   0.624   3.008 -0.9568  0.0339  0.0198
   69MOL    H48 8344   0.435   0.608   3.067 -0.1671 -2.8568  0.5113
   69MOL    H49 8345   0.533   0.533   2.948 -0.1496  0.2303 -0.1719
   69MOL    C50 8346   0.512   0.755   2.928 -0.1533 -0.1081 -0.1929
   69MOL    F51 8347   0.517   0.854   3.014 -0.5002 -0.2918 -0.3292
   69MOL    F52 8348   0.617   0.768   2.841  0.5418 -0.0783 -0.1488
   69MOL    C53 8349   0.375   0.753   2.849 -0.6941  0.1740 -0.3527
   69MOL    H54 8350   0.295   0.722   2.917 -1.5446  1.7651 -0.6149
   69MOL    H55 8351   0.379   0.675   2.773 -0.4492 -0.4422  0.2903
   69MOL    C56 8352   0.334   0.893   2.790 -0.5472  0.0042  0.0279
   69MOL    F57 8353   0.231   0.886   2.713  0.2496  0.2994  0.3093
   69MOL    F58 8354   0.305   0.970   2.895  0.0958  0.0248 -0.3908
   69MOL    C59 8355   0.440   0.958   2.715  0.2173  0.1022  0.5725
   69MOL    H60 8356   0.476   0.891   2.637  0.7390 -0.0434  0.9296
   69MOL    H61 8357   0.522   0.982   2.784  2.0555 -0.3965 -1.3820
   69MOL    C62 8358   0.403   1.091   2.643  0.4676  0.2011  1.3006
   69MOL    F63 8359   0.285   1.086   2.579  0.1381  0.4152 -0.4723
   69MOL    F64 8360   0.398   1.192   2.730 -0.0797  0.2530  0.0238
   69MOL    C65 8361   0.514   1.130   2.535  0.3945  0.2460 -0.4679
   69MOL    H66 8362   0.527   1.041   2.473  1.7451  0.6046 -0.7305
   69MOL    H67 8363   0.602   1.145   2.598  0.0145  1.0498 -0.1257
   69MOL    C68 8364   0.497   1.256   2.439  0.6199 -0.6574 -0.3054
   69MOL    F69 8365   0.602   1.260   2.358  0.1450  0.3323  0.1030
   69MOL    F70 8366   0.386   1.223   2.369 -0.4792  0.2344 -1.0349
   69MOL    C71 8367   0.465   1.392   2.503 -0.4717  0.4962 -0.4583
   69MOL    H72 8368   0.556   1.409   2.561 -1.5748 -0.7484  1.6667
   69MOL    H73 8369   0.380   1.382   2.570  0.4835  0.4110  0.7597
   69MOL    C74 8370   0.434   1.503   2.410 -0.2064 -0.0351 -0.2220
   69MOL    F75 8371   0.545   1.528   2.347 -0.5493  0.2105 -0.0844
   69MOL    F76 8372   0.335   1.464   2.323  0.0743  0.3349 -0.2153
   69MOL    C77 8373   0.390   1.631   2.481  0.0756  0.1532  1.0267
   69MOL    H78 8374   0.473   1.665   2.543  0.8949 -0.2090  0.1352
   69MOL    H79 8375   0.305   1.613   2.548 -1.8791  2.0296 -0.8515
   69MOL    C80 8376   0.347   1.739   2.382 -0.4669  0.4324 -0.3408
   69MOL    F81 8377   0.440   1.759   2.299 -0.3813  0.0316  0.3946
   69MOL    F82 8378   0.236   1.704   2.310 -0.1370 -0.3703 -0.3966
   69MOL    C83 8379   0.296   1.866   2.446  0.0892  0.2918 -0.3992
   69MOL    H84 8380   0.276   1.932   2.362 -2.3913  0.9554  0.6751
   69MOL    H85 8381   0.375   1.900   2.513 -0.6301  1.8245 -0.3143
   69MOL    C86 8382   0.157   1.858   2.517 -0.3638  0.3962 -0.2518
   69MOL    F87 8383   0.056   1.821   2.442  0.1935  0.3241  0.1260
   69MOL    F88 8384   0.156   1.766   2.615 -0.3086  0.1423  0.6234
   69MOL    C89 8385   0.109   1.996   2.591  0.8721 -0.4906  0.2596
   69MOL    H90 8386   0.190   2.034   2.653  2.0878 -2.2168 -0.2542
   69MOL    H91 8387   0.035   1.969   2.667 -0.4997  0.0260 -0.8622
   69MOL    C92 8388   0.050   2.101   2.493  0.1096 -0.4161 -0.7053
   69MOL    F93 8389   0.143   2.146   2.403 -0.3398 -0.2256 -0.0155
   69MOL    F94 8390   8.302   2.053   2.421 -0.5612  0.1147 -0.2351
   69MOL    C95 8391   8.336   2.226   2.567 -0.1814  0.2187  0.5802
   69MOL    H96 8392   8.345   2.314   2.503  0.3986 -1.3125 -1.5223
   69MOL    H97 8393   0.050   2.265   2.646  2.1605 -2.4199  0.0941
   69MOL    C98 8394   8.198   2.215   2.619  0.3038 -0.2074 -0.6128
   69MOL    F99 8395   8.113   2.199   2.513 -0.1577  0.3286 -0.3626
   69MOL   F100 8396   8.194   2.113   2.709 -0.4109 -0.2563 -0.0181
   69MOL   C101 8397   8.144   2.336   2.707  0.2942 -0.5862 -0.6023
   69MOL   H102 8398   8.197   2.346   2.802  0.2935  0.0711 -0.6706
   69MOL   H103 8399   8.043   2.306   2.736  0.5226 -0.7998 -0.0134
   69MOL   C104 8400   8.152   2.479   2.657 -0.2405 -0.5241 -0.4831
   69MOL   F105 8401   8.272   2.528   2.662  0.0374 -0.2982 -0.7591
   69MOL   F106 8402   8.118   2.484   2.524 -0.4402  0.0157  0.2434
   69MOL   C107 8403   8.050   2.575   2.722  0.3474  0.2208  0.3633
   69MOL   H108 8404   7.955   2.542   2.681  0.9885 -2.1743  0.7270
   69MOL   H109 8405   8.065   2.678   2.690 -2.0801 -0.0183 -1.7086
   69MOL   C110 8406   8.037   2.559   2.875  0.4915  0.5294  0.0659
   69MOL   F111 8407   7.987   2.443   2.911 -0.0668 -0.2140 -0.4042
   69MOL   F112 8408   8.161   2.570   2.915 -0.0148 -0.2695  0.7589
   69MOL   C113 8409   7.958   2.672   2.948 -0.1341 -0.7530 -0.7519
   69MOL   H114 8410   7.995   2.764   2.903  0.3953 -0.5650  0.0455
   69MOL   H115 8411   7.992   2.677   3.052 -2.4371 -0.2469  0.0005
   69MOL   C116 8412   7.809   2.668   2.934  0.4650  0.5847  0.2232
   69MOL   F117 8413   7.749   2.775   2.985 -0.1247  0.3883  0.2794
   69MOL   F118 8414   7.784   2.663   2.809 -0.1925  0.3111 -0.4033
   69MOL   C119 8415   7.752   2.548   3.008 -0.5284  0.0260  0.3330
   69MOL   H120 8416   7.643   2.555   3.008 -0.5255  0.0983 -0.4689
   69MOL   H121 8417   7.786   2.542   3.111 -0.1159  2.1733  0.3448
   69MOL   H122 8418   7.782   2.459   2.953 -1.1015 -0.1388  0.2875
   70MOL     C1 8419   7.547   6.027   8.114 -0.1289 -0.2170 -0.6374
   70MOL     F2 8420   7.588   6.097   8.216 -0.0248  0.0500  0.0840
   70MOL     F3 8421   7.621   6.042   8.012 -0.4972 -0.0043  0.0618
   70MOL     C4 8422   7.407   6.067   8.065  0.1665  0.0979 -0.9226
   70MOL     H5 8423   7.399   6.052   7.958 -0.9387 -2.0761 -0.5505
   70MOL     H6 8424   7.396   6.175   8.081 -1.2893 -0.1423 -0.2022
   70MOL     H7 8425   7.549   5.920   8.133  1.3967 -0.3692 -1.5300
   70MOL     C8 8426   7.287   6.002   8.134  0.3939 -0.1658  0.2012
   70MOL     F9 8427   7.249   5.892   8.074 -0.3971 -0.1781 -0.4565
   70MOL    F10 8428   7.321   5.963   8.255 -0.2216  0.0651  0.2102
   70MOL    C11 8429   7.162   6.096   8.134 -0.3109  0.3339  0.7186
   70MOL    H12 8430   7.182   6.181   8.200 -0.4738  0.0775  1.0990
   70MOL    H13 8431   7.084   6.043   8.188  0.5468 -1.1729  0.5031
   70MOL    C14 8432   7.102   6.142   7.998 -0.1950  0.3507  0.1196
   70MOL    F15 8433   7.179   6.236   7.936 -0.0507 -0.3888  0.5245
   70MOL    F16 8434   7.092   6.041   7.909  0.2056  0.0517 -0.2413
   70MOL    C17 8435   6.963   6.211   8.017 -0.2252  0.1372  0.6670
   70MOL    H18 8436   6.896   6.136   8.061 -0.6069  0.2721  0.3264
   70MOL    H19 8437   6.927   6.221   7.914 -0.3559 -0.8130  0.6086
   70MOL    C20 8438   6.952   6.353   8.078 -0.0156  0.1114 -0.9873
   70MOL    F21 8439   6.993   6.353   8.208 -0.3558 -0.1965  0.0946
   70MOL    F22 8440   7.025   6.439   8.003 -0.2062 -0.1795  0.1120
   70MOL    C23 8441   6.803   6.387   8.080 -0.1929 -0.0892  0.4180
   70MOL    H24 8442   6.755   6.315   8.146 -0.4824 -0.6344 -0.3889
   70MOL    H25 8443   6.758   6.366   7.983  1.9970 -0.4253 -0.5529
   70MOL    C26 8444   6.755   6.534   8.103 -0.6770 -0.4249 -0.1296
   70MOL    F27 8445   6.800   6.607   7.994 -0.0112 -0.1954  0.1306
   70MOL    F28 8446   6.620   6.534   8.100  0.3718  0.5277 -0.1870
   70MOL    C29 8447   6.807   6.604   8.228  0.0342  0.6219  0.3575
   70MOL    H30 8448   6.914   6.594   8.243  0.2719  0.1902 -1.5357
   70MOL    H31 8449   6.769   6.541   8.309 -3.9498  0.5910 -1.3968
   70MOL    C32 8450   6.760   6.753   8.255 -0.0746 -0.3483 -0.6607
   70MOL    F33 8451   6.818   6.797   0.021 -0.0077  0.2319  0.0229
   70MOL    F34 8452   6.806   6.833   8.154 -0.0879  0.0802  0.0494
   70MOL    C35 8453   6.604   6.761   8.278 -0.0938  0.6406  0.3154
   70MOL    H36 8454   6.579   6.676   8.342 -1.9385  1.1565  0.3134
   70MOL    H37 8455   6.545   6.751   8.187 -0.2900  0.5596  0.4500
   70MOL    C38 8456   6.570   6.878   0.011  0.2189 -0.8516 -0.3006
   70MOL    F39 8457   6.435   6.886   0.020 -0.3229 -0.2884  0.4478
   70MOL    F40 8458   6.607   6.866   0.135 -0.2973  0.0575 -0.2902
   70MOL    C41 8459   6.619   7.012   8.299  0.5641  0.1108  0.2926
   70MOL    H42 8460   6.583   7.016   8.196  0.9434 -1.7485  0.0561
   70MOL    H43 8461   6.728   7.009   8.302  0.6353 -1.0481 -1.9716
   70MOL    C44 8462   6.586   7.141   0.024  0.6933  0.0569 -1.0254
   70MOL    F45 8463   6.674   7.162   0.120 -0.0887 -0.2968 -0.2734
   70MOL    F46 8464   6.609   7.237   8.279 -0.1984  0.1936 -0.8432
   70MOL    C47 8465   6.436   7.169   0.072  0.2768 -0.6315 -0.7295
   70MOL    H48 8466   6.416   7.096   0.151 -3.2745  2.3448  1.2445
   70MOL    H49 8467   6.358   7.153   8.348 -0.5992 -1.3800  0.3427
   70MOL    C50 8468   6.411   7.304   0.136  0.2200 -0.3420 -0.2935
   70MOL    F51 8469   6.489   7.314   0.240 -0.1202 -0.5455 -0.4450
   70MOL    F52 8470   6.433   7.407   0.044  0.5313  0.7727 -0.7925
   70MOL    C53 8471   6.276   7.325   0.202 -0.1221 -0.6851 -0.4585
   70MOL    H54 8472   6.271   7.423   0.248 -1.6273 -1.5900  1.4042
   70MOL    H55 8473   6.254   7.264   0.290 -1.4435  0.7917  0.2563
   70MOL    C56 8474   6.151   7.303   0.119  0.0354  0.8133 -0.7603
   70MOL    F57 8475   6.163   7.375   0.011 -0.3949 -0.5460 -0.0444
   70MOL    F58 8476   6.142   7.172   0.099  0.0377 -0.4784 -0.2239
   70MOL    C59 8477   6.034   7.368   0.192  0.0706  0.5232  0.1340
   70MOL    H60 8478   6.057   7.465   0.237 -0.4801  1.0617 -0.7323
   70MOL    H61 8479   6.001   7.309   0.278  0.1065 -0.6904 -0.6674
   70MOL    C62 8480   5.901   7.388   0.115  0.6541 -0.3846  1.3660
   70MOL    F63 8481   5.865   7.266   0.079 -0.0542 -0.3481 -0.2405
   70MOL    F64 8482   5.813   7.436   0.199 -0.2255  0.3097 -0.0738
   70MOL    C65 8483   5.900   7.480   8.337 -0.1152 -0.5126 -0.2418
   70MOL    H66 8484   5.805   7.482   8.284  0.0175  2.4876 -0.4255
   70MOL    H67 8485   5.964   7.435   8.261 -0.6420  0.8288 -1.5061
   70MOL    C68 8486   5.942   7.623   0.009  0.9149 -0.2759 -0.1664
   70MOL    F69 8487   5.870   7.665   0.116  0.2753  0.1686  0.1843
   70MOL    F70 8488   6.067   7.639   0.037  0.0736  0.0154 -0.6222
   70MOL    C71 8489   5.906   7.712   8.230  0.7301 -0.6826 -0.4027
   70MOL    H72 8490   5.797   7.703   8.230  0.7830 -1.4029 -0.0290
   70MOL    H73 8491   5.938   7.662   8.138  1.1591 -1.2730  0.0626
   70MOL    C74 8492   5.958   7.855   8.232  0.5505  0.6344  0.1768
   70MOL    F75 8493   5.889   7.914   8.332  0.3321  0.1711 -0.0656
   70MOL    F76 8494   6.084   7.839   8.252  0.0650  0.0928 -0.0797
   70MOL    C77 8495   5.929   7.937   8.105 -0.4678 -0.3456 -0.9399
   70MOL    H78 8496   5.821   7.946   8.093 -0.6600 -2.4239 -1.0027
   70MOL    H79 8497   5.963   7.885   8.016 -2.6509 -1.5148 -1.1410
   70MOL    C80 8498   5.988   8.075   8.111  0.5594  0.2671 -0.4151
   70MOL    F81 8499   5.988   8.128   8.232 -0.3658  0.3418 -0.0308
   70MOL    F82 8500   6.117   8.060   8.078  0.5059  0.5407  0.0364
   70MOL    C83 8501   5.931   8.171   8.003 -0.2535  0.2675  0.1312
   70MOL    H84 8502   5.825   8.196   8.008 -0.6287 -0.9980 -1.2234
   70MOL    H85 8503   5.929   8.110   7.913 -0.1165 -1.0168  0.9804
   70MOL    C86 8504   6.017   8.298   7.984  0.1851 -0.0761 -0.3614
   70MOL    F87 8505   6.012   0.019   8.096 -0.0562 -0.2770 -0.6350
   70MOL    F88 8506   6.143   8.273   7.960 -0.6914 -0.0104  0.3922
   70MOL    C89 8507   5.959   0.051   7.880  0.8273  0.4259 -0.3845
   70MOL    H90 8508   6.011   0.147   7.876 -0.3224  1.0580 -0.3255
   70MOL    H91 8509   5.855   0.070   7.903  0.5218 -1.7437  0.1384
   70MOL    C92 8510   5.946   0.010   7.738 -0.5915  0.1931 -0.3021
   70MOL    F93 8511   5.859   8.261   7.721  0.1607  0.3492 -0.2300
   70MOL    F94 8512   5.897   0.107   7.666 -0.3566  0.0228 -0.0392
   70MOL    C95 8513   6.079   8.321   7.664  0.5139  0.4901  0.4789
   70MOL    H96 8514   6.052   8.288   7.563 -0.3539  1.7259  0.2952
   70MOL    H97 8515   6.105   8.219   7.694  0.9651  0.3194 -0.4653
   70MOL    C98 8516   6.196   0.070   7.663 -0.5706  0.0716 -0.5292
   70MOL    F99 8517   6.172   0.177   7.590 -0.0886 -0.1750 -0.1460
   70MOL   F100 8518   6.225   0.122   7.778  0.1580 -0.2996  0.0082
   70MOL   C101 8519   6.327   0.013   7.610 -0.3894 -0.2212 -0.3577
   70MOL   H102 8520   6.410   0.084   7.606 -1.5818  1.2443  0.1953
   70MOL   H103 8521   6.318   8.330   7.506  1.6830 -1.1869 -0.2569
   70MOL   C104 8522   6.399   8.244   7.670 -0.1821  1.2428  0.4180
   70MOL   F105 8523   6.415   8.262   7.800 -1.1899 -0.1980  0.0333
   70MOL   F106 8524   6.322   8.145   7.647 -0.0432 -0.3965  0.3045
   70MOL   C107 8525   6.531   8.220   7.598  0.2089 -0.7276 -0.1659
   70MOL   H108 8526   6.604   8.301   7.599  0.9807 -1.3804  2.6199
   70MOL   H109 8527   6.504   8.213   7.493 -1.3040  0.2982  0.1455
   70MOL   C110 8528   6.614   8.099   7.644  0.5978 -0.6110  0.0408
   70MOL   F111 8529   6.682   8.121   7.756  0.9882 -0.5359  0.2816
   70MOL   F112 8530   6.537   7.988   7.649 -0.2281  0.3284 -0.4744
   70MOL   C113 8531   6.712   8.051   7.534  0.6038 -0.3082  0.4864
   70MOL   H114 8532   6.764   8.136   7.491 -1.1327 -0.3609 -1.7584
   70MOL   H115 8533   6.653   8.018   7.449  2.3927 -1.3808 -0.3751
   70MOL   C116 8534   6.819   7.951   7.570 -0.4334 -0.3951 -0.1968
   70MOL   F117 8535   6.762   7.833   7.579  0.0147  0.1510  0.1754
   70MOL   F118 8536   6.914   7.933   7.477  0.4556 -0.1507 -0.1863
   70MOL   C119 8537   6.895   7.975   7.702 -0.3097 -0.1178 -0.3508
   70MOL   H120 8538   6.828   7.958   7.787 -1.6004 -0.4806 -1.4165
   70MOL   H121 8539   6.942   8.073   7.712 -0.8087 -0.1242  2.8643
   70MOL   H122 8540   6.984   7.915   7.718 -0.0777  0.3933  0.3301
   71MOL     C1 8541   4.984   0.497   4.747  0.0280  0.1960 -0.0374
   71MOL     F2 8542   4.963   0.560   4.628  0.2333 -0.2083 -0.7334
   71MOL     F3 8543   5.108   0.535   4.788  0.2401 -0.0826  0.3020
   71MOL     C4 8544   4.982   0.341   4.743  0.0836 -0.7357 -0.9826
   71MOL     H5 8545   5.011   0.303   4.842 -1.7172  3.1957  1.1664
   71MOL     H6 8546   5.063   0.308   4.678  0.4521 -0.7771 -0.5108
   71MOL     H7 8547   4.916   0.540   4.821  0.2653 -0.4683  0.5722
   71MOL     C8 8548   4.839   0.285   4.703 -0.2666  0.3764 -0.3519
   71MOL     F9 8549   4.756   0.322   4.800 -0.0950  0.3139  1.0453
   71MOL    F10 8550   4.800   0.334   4.586 -0.5358 -0.1093 -0.5669
   71MOL    C11 8551   4.840   0.131   4.694 -0.0764  0.0595 -0.1064
   71MOL    H12 8552   4.871   0.087   4.789  1.0600 -0.0735 -0.5295
   71MOL    H13 8553   4.918   0.109   4.621 -2.2759  0.2831 -2.5811
   71MOL    C14 8554   4.707   0.078   4.652 -0.1742  0.5594 -0.5312
   71MOL    F15 8555   4.609   0.111   4.735  0.1971  0.0159  0.1283
   71MOL    F16 8556   4.673   0.126   4.529  0.0097  0.1175  0.1887
   71MOL    C17 8557   4.717   8.271   4.641  0.1185 -0.0760  0.3145
   71MOL    H18 8558   4.771   8.228   4.725 -2.6482 -2.0008  1.1842
   71MOL    H19 8559   4.778   8.251   4.553 -0.0404  0.5145  0.0690
   71MOL    C20 8560   4.582   8.201   4.620 -0.0122 -0.3715 -0.1761
   71MOL    F21 8561   4.522   8.205   4.742  0.1179 -0.0324  0.0986
   71MOL    F22 8562   4.516   8.268   4.530  0.0710 -0.3045  0.2869
   71MOL    C23 8563   4.588   8.053   4.561  0.4252  0.4643 -0.4685
   71MOL    H24 8564   4.648   8.041   4.470 -0.1410  1.4843 -0.9761
   71MOL    H25 8565   4.489   8.026   4.525  1.0376 -0.6688 -1.3855
   71MOL    C26 8566   4.628   7.943   4.656 -0.0940  0.3685 -0.3228
   71MOL    F27 8567   4.725   7.990   4.738  0.3085  0.1249 -0.5721
   71MOL    F28 8568   4.528   7.905   4.737 -0.1801 -0.2782 -0.5686
   71MOL    C29 8569   4.678   7.812   4.585  0.0043  0.0995 -1.2243
   71MOL    H30 8570   4.720   7.826   4.485  0.1215  0.8861 -1.0690
   71MOL    H31 8571   4.580   7.774   4.555 -0.9061 -0.2918  2.0376
   71MOL    C32 8572   4.757   7.712   4.677  0.8385 -0.5883 -0.0195
   71MOL    F33 8573   4.866   7.774   4.710 -0.2338 -0.0955 -0.2598
   71MOL    F34 8574   4.692   7.686   4.789  0.2561 -0.2690  0.1414
   71MOL    C35 8575   4.794   7.577   4.616  0.1949  0.3747  0.0353
   71MOL    H36 8576   4.837   7.600   4.519  2.8306 -2.2823  0.5127
   71MOL    H37 8577   4.706   7.513   4.607 -0.4968  0.9355  2.2402
   71MOL    C38 8578   4.899   7.493   4.699  0.1374 -0.7332 -0.0585
   71MOL    F39 8579   4.943   7.399   4.618  0.4053 -0.3102 -0.1746
   71MOL    F40 8580   5.011   7.575   4.716 -0.1274  0.1386  0.0205
   71MOL    C41 8581   4.856   7.426   4.827 -0.5381 -0.9936 -0.0300
   71MOL    H42 8582   4.828   7.506   4.895 -0.8807 -0.2924 -0.9899
   71MOL    H43 8583   4.949   7.385   4.866  0.5607  2.0703  0.6752
   71MOL    C44 8584   4.761   7.307   4.836  0.3415  0.0556  0.0948
   71MOL    F45 8585   4.751   7.260   4.958 -0.2282 -0.4591  0.2231
   71MOL    F46 8586   4.643   7.344   4.796 -0.5113  0.4355  0.1159
   71MOL    C47 8587   4.793   7.181   4.745  0.1069 -0.2847  0.6415
   71MOL    H48 8588   4.893   7.143   4.766 -0.2061 -1.8780 -0.5741
   71MOL    H49 8589   4.806   7.212   4.641  0.9857  2.9362  1.6474
   71MOL    C50 8590   4.687   7.071   4.739  0.1720  0.1806  0.3861
   71MOL    F51 8591   4.665   7.031   4.861 -0.2035  0.3648  0.4130
   71MOL    F52 8592   4.574   7.110   4.689 -0.2447  0.1425  0.0361
   71MOL    C53 8593   4.734   6.946   4.649 -0.2249  0.2698 -0.1677
   71MOL    H54 8594   4.835   6.911   4.674 -0.0929 -0.6037 -1.8598
   71MOL    H55 8595   4.755   6.984   4.549 -1.9018 -0.2343 -0.7282
   71MOL    C56 8596   4.639   6.819   4.652 -0.0503  0.6910  0.4860
   71MOL    F57 8597   4.692   6.710   4.598  0.3393 -0.1439 -0.1128
   71MOL    F58 8598   4.611   6.806   4.788  0.5564 -0.2238  0.2553
   71MOL    C59 8599   4.508   6.829   4.576  0.1163  0.3918  0.4205
   71MOL    H60 8600   4.529   6.836   4.469  2.2484  0.7305  0.8354
   71MOL    H61 8601   4.454   6.919   4.606  0.3961  0.5415  0.4779
   71MOL    C62 8602   4.416   6.703   4.578  0.1209 -0.6385 -0.5125
   71MOL    F63 8603   4.479   6.606   4.518 -0.2966  0.0305 -0.1246
   71MOL    F64 8604   4.395   6.673   4.709  0.2796 -0.4285 -0.4143
   71MOL    C65 8605   4.265   6.724   4.534  0.0839  0.2937 -0.0552
   71MOL    H66 8606   4.226   6.784   4.616 -1.4638 -1.0902  0.2714
   71MOL    H67 8607   4.219   6.627   4.557 -0.4731  0.8249  1.1476
   71MOL    C68 8608   4.236   6.790   4.401  0.6290  0.8409 -0.4110
   71MOL    F69 8609   4.270   6.923   4.422  0.0389  0.3005  0.7917
   71MOL    F70 8610   4.310   6.728   4.303 -0.7775  0.1356  0.4976
   71MOL    C71 8611   4.083   6.784   4.371 -0.1737  0.1547  0.1239
   71MOL    H72 8612   4.027   6.793   4.464  2.0222  0.6677  1.4466
   71MOL    H73 8613   4.067   6.688   4.322 -0.8081  1.0843 -1.5267
   71MOL    C74 8614   4.023   6.893   4.271  0.4625 -0.2898 -0.4864
   71MOL    F75 8615   3.896   6.863   4.253  0.7302  0.0407  0.2707
   71MOL    F76 8616   4.036   7.010   4.337 -0.1301 -0.0393  0.1277
   71MOL    C77 8617   4.103   6.892   4.148 -0.0452  0.4407 -0.0168
   71MOL    H78 8618   4.103   6.789   4.112 -0.4456  0.5904 -0.4453
   71MOL    H79 8619   4.209   6.914   4.162 -0.0625 -0.9811  2.7321
   71MOL    C80 8620   4.054   6.986   4.040  0.1469  0.7555  0.7416
   71MOL    F81 8621   3.922   6.957   4.006  0.1693 -0.1588 -0.0467
   71MOL    F82 8622   4.058   7.110   4.090  0.2923  0.2909  0.0831
   71MOL    C83 8623   4.131   6.989   3.909 -0.9817  0.0816  0.6175
   71MOL    H84 8624   4.160   6.891   3.872 -0.5207  0.8865 -1.2022
   71MOL    H85 8625   4.230   7.027   3.936 -0.9724  0.3868  0.1534
   71MOL    C86 8626   4.071   7.050   3.782 -0.6549  0.2756  1.0397
   71MOL    F87 8627   4.152   7.009   3.684 -0.6252  0.3053 -0.3879
   71MOL    F88 8628   3.945   7.009   3.740  0.0490 -0.7005 -0.4017
   71MOL    C89 8629   4.083   7.207   3.784  0.6978  0.3639  0.7642
   71MOL    H90 8630   4.186   7.230   3.809  0.7182 -2.1471  3.2448
   71MOL    H91 8631   4.018   7.243   3.864 -1.7001 -2.1060  0.0255
   71MOL    C92 8632   4.025   7.286   3.661 -0.1617 -0.2590 -0.6202
   71MOL    F93 8633   4.093   7.245   3.556  0.5058  0.0529  0.1941
   71MOL    F94 8634   3.899   7.244   3.637  0.2437  0.2867  0.4934
   71MOL    C95 8635   4.021   7.432   3.685  0.3032  0.6727  0.1336
   71MOL    H96 8636   3.984   7.450   3.786 -0.7283 -1.2478  0.1383
   71MOL    H97 8637   3.939   7.483   3.633  1.5791  0.2823 -2.3578
   71MOL    C98 8638   4.169   7.496   3.673 -0.2949 -0.5578  1.0653
   71MOL    F99 8639   4.152   7.619   3.725  0.4058  0.2968 -0.0867
   71MOL   F100 8640   4.257   7.440   3.753  0.1477  0.1478  0.4739
   71MOL   C101 8641   4.225   7.488   3.526  0.9898  0.3217 -0.2042
   71MOL   H102 8642   4.153   7.534   3.458 -0.7728 -0.3407  1.1543
   71MOL   H103 8643   4.239   7.382   3.505  1.3738  0.2732  0.3035
   71MOL   C104 8644   4.356   7.573   3.510  0.7073  0.0016  0.3170
   71MOL   F105 8645   4.349   7.707   3.523 -0.1211 -0.0047  0.2980
   71MOL   F106 8646   4.435   7.525   3.605 -0.5243  0.0941  0.0334
   71MOL   C107 8647   4.434   7.545   3.386 -0.8741  0.4087 -0.2902
   71MOL   H108 8648   4.423   7.438   3.374 -2.0901  0.4918 -0.0056
   71MOL   H109 8649   4.541   7.566   3.398 -0.6670  0.1816 -1.6711
   71MOL   C110 8650   4.391   7.622   3.259  0.0971  0.2854 -0.1095
   71MOL   F111 8651   4.257   7.602   3.242 -0.0346  0.0027 -0.3009
   71MOL   F112 8652   4.426   7.752   3.271  0.4522  0.0597  0.5608
   71MOL   C113 8653   4.456   7.573   3.129 -0.0559  0.8457  0.3948
   71MOL   H114 8654   4.423   7.471   3.110  2.7298 -0.1534  0.7037
   71MOL   H115 8655   4.563   7.562   3.148  0.0077 -0.4587 -0.6660
   71MOL   C116 8656   4.440   7.666   3.006  0.3132  0.1629  0.3428
   71MOL   F117 8657   4.509   7.783   3.030 -0.1861  0.2799  0.1831
   71MOL   F118 8658   4.506   7.597   2.910 -0.2461  0.4277 -0.5864
   71MOL   C119 8659   4.304   7.694   2.957  0.0508  0.1070 -0.7758
   71MOL   H120 8660   4.258   7.776   3.013  1.6996 -0.9178  2.1883
   71MOL   H121 8661   4.239   7.608   2.975  2.3278 -1.2484  1.2687
   71MOL   H122 8662   4.302   7.716   2.850  1.8575 -1.8999 -1.2448
   72MOL     C1 8663   5.618   8.062   0.759 -0.1324  0.5182  0.2698
   72MOL     F2 8664   5.526   8.110   0.850 -0.3598 -0.1337  0.5880
   72MOL     F3 8665   5.684   7.958   0.822  0.0597 -0.3638  0.3430
   72MOL     C4 8666   5.724   8.165   0.719 -0.6197 -0.2933 -0.3164
   72MOL     H5 8667   5.798   8.114   0.656 -1.5711 -0.0967 -1.6090
   72MOL     H6 8668   5.771   8.195   0.813  0.4156  0.0808 -0.9460
   72MOL     H7 8669   5.562   8.012   0.680  1.9062  0.0459 -0.9129
   72MOL     C8 8670   5.685   8.291   0.646 -0.2118  0.0442 -0.7131
   72MOL     F9 8671   5.789   0.006   0.603  0.0437 -0.2260  0.6441
   72MOL    F10 8672   5.623   8.241   0.529 -0.2221 -0.1433  0.0565
   72MOL    C11 8673   5.575   0.030   0.707 -0.2366 -0.3998 -0.2568
   72MOL    H12 8674   5.490   8.315   0.727 -2.2501  1.9795 -0.8381
   72MOL    H13 8675   5.549   0.106   0.633 -1.3071  1.5607  2.0466
   72MOL    C14 8676   5.611   0.101   0.843 -0.5817 -0.4847 -0.9416
   72MOL    F15 8677   5.585   0.008   0.937 -0.2268  0.3559  0.7034
   72MOL    F16 8678   5.736   0.130   0.852  0.1011  0.2711  0.2024
   72MOL    C17 8679   5.527   0.220   0.879  0.4837 -0.1062  0.4055
   72MOL    H18 8680   5.556   0.236   0.983 -1.1378  1.8979  0.5906
   72MOL    H19 8681   5.422   0.195   0.897  0.1668 -0.9665 -2.4543
   72MOL    C20 8682   5.535   0.343   0.801  0.4151 -0.4191  0.1776
   72MOL    F21 8683   5.664   0.374   0.799 -0.0105 -0.2106  0.0958
   72MOL    F22 8684   5.496   0.315   0.678 -0.2842 -0.0613 -0.0828
   72MOL    C23 8685   5.462   0.467   0.861 -0.3182 -0.0557  0.1219
   72MOL    H24 8686   5.500   0.493   0.960  3.4115  0.4331 -1.3375
   72MOL    H25 8687   5.355   0.445   0.862 -0.3688  0.1413  2.5341
   72MOL    C26 8688   5.462   0.595   0.777  0.1390 -0.2645  0.0498
   72MOL    F27 8689   5.387   0.569   0.669 -0.1841  0.6188  0.3419
   72MOL    F28 8690   5.404   0.695   0.842 -0.3745  0.6717 -0.1675
   72MOL    C29 8691   5.587   0.660   0.713  0.0084 -0.0305  0.6052
   72MOL    H30 8692   5.556   0.741   0.647  0.5116 -0.1382  0.2289
   72MOL    H31 8693   5.637   0.584   0.652  0.4990  2.0263 -1.6459
   72MOL    C32 8694   5.692   0.714   0.813 -0.3846 -0.1547 -0.1029
   72MOL    F33 8695   5.739   0.612   0.890  0.0341  0.1101 -0.4771
   72MOL    F34 8696   5.798   0.752   0.741 -0.0944  0.1856  0.6817
   72MOL    C35 8697   5.634   0.832   0.889  0.1268 -0.4381  0.4950
   72MOL    H36 8698   5.561   0.798   0.962 -0.0613 -2.8830 -0.7878
   72MOL    H37 8699   5.582   0.893   0.815  2.2519  0.2595 -0.4676
   72MOL    C38 8700   5.736   0.912   0.964 -0.1724 -0.2243  0.2467
   72MOL    F39 8701   5.831   0.832   1.020  0.1653  0.1840  0.6387
   72MOL    F40 8702   5.806   0.988   0.881 -0.3970 -0.1762 -0.1996
   72MOL    C41 8703   5.681   1.005   1.075 -0.6953  0.2268 -0.1273
   72MOL    H42 8704   5.761   1.065   1.119 -1.6267  0.7738  0.8341
   72MOL    H43 8705   5.630   0.948   1.153  1.6138 -2.1465 -0.2595
   72MOL    C44 8706   5.578   1.109   1.034  0.1350 -0.6968  1.0921
   72MOL    F45 8707   5.479   1.047   0.965  0.1517 -0.0169 -0.5601
   72MOL    F46 8708   5.528   1.157   1.151 -0.5077  0.0238 -0.4798
   72MOL    C47 8709   5.635   1.225   0.952 -0.4331 -0.0154 -0.5299
   72MOL    H48 8710   5.686   1.192   0.862  0.4125 -2.6860  0.8899
   72MOL    H49 8711   5.713   1.279   1.006 -0.7729  2.7053 -2.6644
   72MOL    C50 8712   5.540   1.333   0.903 -0.1868 -0.7978 -0.1554
   72MOL    F51 8713   5.626   1.429   0.858 -0.3481 -0.2653 -0.3317
   72MOL    F52 8714   5.476   1.273   0.809  0.7718  0.1449 -0.1811
   72MOL    C53 8715   5.456   1.398   1.006 -0.4905  0.8512  0.0171
   72MOL    H54 8716   5.515   1.438   1.089 -3.1813  1.9033  1.4988
   72MOL    H55 8717   5.389   1.322   1.044  0.7224  0.0421  0.5742
   72MOL    C56 8718   5.368   1.509   0.939  0.1298 -0.1530 -0.2173
   72MOL    F57 8719   5.286   1.565   1.026 -0.4168 -0.1247 -0.2641
   72MOL    F58 8720   5.459   1.602   0.909  0.0477  0.6774  0.2666
   72MOL    C59 8721   5.291   1.472   0.816 -1.0010  0.1135 -0.1789
   72MOL    H60 8722   5.260   1.370   0.837 -0.5357 -0.2173 -1.0723
   72MOL    H61 8723   5.368   1.465   0.739  0.9490  0.5133  1.6772
   72MOL    C62 8724   5.187   1.570   0.761 -0.3065  0.5113 -1.0906
   72MOL    F63 8725   5.084   1.603   0.850  0.0598  0.1480 -0.2161
   72MOL    F64 8726   5.262   1.685   0.744  0.4114  0.2434 -0.0238
   72MOL    C65 8727   5.129   1.523   0.629  0.5899 -0.1619  0.0030
   72MOL    H66 8728   5.093   1.420   0.632  2.7517 -0.9857 -1.4185
   72MOL    H67 8729   5.208   1.517   0.554  0.3556  2.5513 -0.5059
   72MOL    C68 8730   5.010   1.606   0.566  0.2620 -0.3704 -0.3218
   72MOL    F69 8731   4.907   1.617   0.642  0.5003 -0.7594  0.1178
   72MOL    F70 8732   5.057   1.728   0.536 -0.1282 -0.1402 -0.3093
   72MOL    C71 8733   4.975   1.536   0.431  0.6979 -0.0492 -0.0833
   72MOL    H72 8734   4.951   1.430   0.443 -2.7340  0.8426  1.4199
   72MOL    H73 8735   5.072   1.543   0.381  0.2610  1.1203 -0.7782
   72MOL    C74 8736   4.860   1.602   0.350 -0.1760 -0.2045  0.4097
   72MOL    F75 8737   4.743   1.590   0.424  0.1270  0.5424  0.7026
   72MOL    F76 8738   4.892   1.725   0.336  0.2015 -0.8892 -0.2954
   72MOL    C77 8739   4.839   1.541   0.207  0.7753  0.1272  0.3939
   72MOL    H78 8740   4.852   1.432   0.208  1.1262  0.1746  1.0455
   72MOL    H79 8741   4.912   1.575   0.133 -0.8696  1.2939 -0.7234
   72MOL    C80 8742   4.700   1.570   0.149  0.0806 -0.6218 -0.7346
   72MOL    F81 8743   4.692   1.531   0.021  0.5754 -0.5175 -0.8089
   72MOL    F82 8744   4.605   1.502   0.221  0.0048 -0.8178 -0.3503
   72MOL    C83 8745   4.667   1.719   0.162  0.2105 -0.3369  0.2634
   72MOL    H84 8746   4.755   1.776   0.133 -1.3782  2.6903  1.2101
   72MOL    H85 8747   4.664   1.751   0.266  2.0406 -2.7785  1.1193
   72MOL    C86 8748   4.546   1.775   0.086 -0.1785 -1.0838  0.2817
   72MOL    F87 8749   4.556   1.907   0.101  0.1194  0.0291  0.1938
   72MOL    F88 8750   4.556   1.746   8.306 -0.3411 -0.8610  0.4472
   72MOL    C89 8751   4.413   1.726   0.144  0.0718 -0.5512  0.2641
   72MOL    H90 8752   4.396   1.621   0.123 -0.2515 -0.4800  0.1713
   72MOL    H91 8753   4.335   1.774   0.085 -0.1926  1.6172  2.2663
   72MOL    C92 8754   4.387   1.746   0.296  0.1553  0.6196 -0.5022
   72MOL    F93 8755   4.268   1.701   0.316 -0.2291 -0.2696  0.0583
   72MOL    F94 8756   4.457   1.662   0.370  0.1616 -0.2832 -0.6002
   72MOL    C95 8757   4.411   1.893   0.347  0.7330 -0.6369 -0.0413
   72MOL    H96 8758   4.340   1.949   0.286  1.3800  0.1381 -0.0909
   72MOL    H97 8759   4.514   1.923   0.328  0.7135 -1.9060 -2.3451
   72MOL    C98 8760   4.376   1.915   0.493 -0.0641 -0.0216 -0.7186
   72MOL    F99 8761   4.411   2.042   0.518  0.2534  0.6671  0.1264
   72MOL   F100 8762   4.244   1.904   0.507  0.7649  0.3145 -0.6769
   72MOL   C101 8763   4.458   1.835   0.602 -0.6421  0.1605  0.2137
   72MOL   H102 8764   4.565   1.836   0.585 -0.5867 -1.7049  0.3872
   72MOL   H103 8765   4.430   1.731   0.587 -1.8607  0.5884 -0.5569
   72MOL   C104 8766   4.435   1.879   0.747  0.0283  0.0974 -0.4507
   72MOL   F105 8767   4.511   1.790   0.818  0.4547  0.5230  0.3515
   72MOL   F106 8768   4.472   2.006   0.780  0.1204  0.3033  0.9031
   72MOL   C107 8769   4.287   1.869   0.795 -0.3033  0.1676  0.2810
   72MOL   H108 8770   4.242   1.782   0.748 -1.6840  2.2313 -2.4184
   72MOL   H109 8771   4.235   1.950   0.742  0.1498  0.9186  0.9707
   72MOL   C110 8772   4.267   1.874   0.947  0.1451 -0.6606 -0.6984
   72MOL   F111 8773   4.304   1.751   0.993  0.4762  0.1468 -0.2603
   72MOL   F112 8774   4.339   1.960   1.021 -0.1186 -0.1297  0.3079
   72MOL   C113 8775   4.121   1.898   0.981  0.1406  0.2262 -0.3871
   72MOL   H114 8776   4.065   1.833   0.914  0.5318 -0.3176 -0.1906
   72MOL   H115 8777   4.096   2.003   0.967 -0.4588 -0.0887 -1.7508
   72MOL   C116 8778   4.074   1.875   1.129 -0.2403  0.3975 -0.1264
   72MOL   F117 8779   4.099   1.747   1.163 -0.8259  0.2554  0.2504
   72MOL   F118 8780   4.141   1.961   1.203  0.0834 -0.2709  0.0798
   72MOL   C119 8781   3.920   1.904   1.145  0.1222 -0.0920 -0.1444
   72MOL   H120 8782   3.878   1.883   1.243 -1.1752  0.1517 -0.6413
   72MOL   H121 8783   3.867   1.845   1.071 -0.5897  0.0987  0.2103
   72MOL   H122 8784   3.909   2.005   1.106  0.3281 -0.5550 -1.4391
   73MOL     C1 8785   6.417   5.551   4.511  0.5540 -0.3357 -0.5377
   73MOL     F2 8786   6.400   5.443   4.597 -0.1753  0.2224 -0.1266
   73MOL     F3 8787   6.386   5.659   4.581  0.2586  0.1598 -0.4881
   73MOL     C4 8788   6.332   5.552   4.386 -0.2788 -0.6809 -0.5947
   73MOL     H5 8789   6.237   5.606   4.392  0.2207 -0.0101  1.9028
   73MOL     H6 8790   6.314   5.449   4.355  2.7584 -0.5869 -2.9307
   73MOL     H7 8791   6.524   5.557   4.490  0.6669  2.5655  0.5313
   73MOL     C8 8792   6.403   5.640   4.278 -0.2767 -0.2330  0.3488
   73MOL     F9 8793   6.307   5.659   4.187 -0.0832  0.0075  0.1453
   73MOL    F10 8794   6.427   5.758   4.329  0.2338  0.1091 -0.4726
   73MOL    C11 8795   6.525   5.565   4.222 -0.5627  0.0094  0.1660
   73MOL    H12 8796   6.489   5.469   4.185  0.5404 -0.2795 -0.1678
   73MOL    H13 8797   6.603   5.544   4.295 -0.1892 -4.6271 -1.4086
   73MOL    C14 8798   6.585   5.642   4.101 -0.8269  0.0215 -0.5359
   73MOL    F15 8799   6.489   5.662   4.014 -0.0080 -0.2684  0.0401
   73MOL    F16 8800   6.618   5.763   4.147  0.0730 -0.1272 -0.2222
   73MOL    C17 8801   6.700   5.561   4.041 -0.2340 -0.2092  0.1628
   73MOL    H18 8802   6.659   5.472   3.995 -0.4016 -0.0621  0.0249
   73MOL    H19 8803   6.774   5.535   4.117 -0.3622  1.0438  0.7428
   73MOL    C20 8804   6.764   5.621   3.909  0.6156 -0.1825 -0.5319
   73MOL    F21 8805   6.848   5.527   3.859  0.1742 -0.0806 -0.0184
   73MOL    F22 8806   6.664   5.645   3.822  0.1760 -0.0046 -0.1582
   73MOL    C23 8807   6.839   5.758   3.913  0.8381  0.0438 -1.0344
   73MOL    H24 8808   6.764   5.830   3.946  2.3462  1.3120 -0.2767
   73MOL    H25 8809   6.853   5.790   3.810  1.0642  1.5722 -0.5418
   73MOL    C26 8810   6.969   5.772   3.999  0.3219  0.3058 -0.0333
   73MOL    F27 8811   7.006   5.901   3.988  0.3309  0.4752  0.2722
   73MOL    F28 8812   6.937   5.738   4.118  0.6366 -0.4035  0.0709
   73MOL    C29 8813   7.082   5.689   3.942  0.4303  0.0251 -0.4342
   73MOL    H30 8814   7.096   5.715   3.837  0.2272  2.4954  0.1144
   73MOL    H31 8815   7.057   5.583   3.946  0.8545 -0.0713 -0.3873
   73MOL    C32 8816   7.222   5.703   4.007  0.2882 -0.2189 -0.3226
   73MOL    F33 8817   7.312   5.632   3.945 -0.1712  0.3680  0.0093
   73MOL    F34 8818   7.268   5.831   3.984  0.2873 -0.0074  0.3897
   73MOL    C35 8819   7.228   5.665   4.159  0.2661  0.0171  0.0801
   73MOL    H36 8820   7.163   5.722   4.225  2.1081 -0.5813  2.4794
   73MOL    H37 8821   7.331   5.694   4.180 -0.0230  0.3363  1.0770
   73MOL    C38 8822   7.205   5.519   4.195 -0.2023  0.0629 -0.0147
   73MOL    F39 8823   7.224   5.502   4.327 -0.5116 -0.1611  0.1270
   73MOL    F40 8824   7.077   5.491   4.173  0.0028 -0.0458 -0.1128
   73MOL    C41 8825   7.303   5.425   4.125  0.7924  0.4585 -0.1810
   73MOL    H42 8826   7.402   5.470   4.124  1.3550 -0.7793 -0.6559
   73MOL    H43 8827   7.274   5.402   4.022  0.6367 -0.4284  0.0578
   73MOL    C44 8828   7.318   5.297   4.202  0.3336 -0.4504  0.4765
   73MOL    F45 8829   7.402   5.225   4.125 -0.4780 -0.4125 -0.0984
   73MOL    F46 8830   7.378   5.304   4.313 -0.0028 -0.3983  0.5825
   73MOL    C47 8831   7.192   5.202   4.202  0.2175  0.4613  0.2986
   73MOL    H48 8832   7.155   5.204   4.099  1.9640  1.2374 -0.3516
   73MOL    H49 8833   7.118   5.241   4.271 -0.7785 -0.1419 -0.4205
   73MOL    C50 8834   7.213   5.049   4.228 -0.5577  0.4683  0.3970
   73MOL    F51 8835   7.101   4.989   4.252 -0.0155 -0.0175 -0.1082
   73MOL    F52 8836   7.268   4.999   4.120 -0.2707 -0.1418 -0.0174
   73MOL    C53 8837   7.303   5.018   4.354  0.0372 -0.9764  0.6996
   73MOL    H54 8838   7.388   5.086   4.348 -0.0966 -0.7567  1.2916
   73MOL    H55 8839   7.350   4.920   4.353  0.4001 -0.7965 -1.4045
   73MOL    C56 8840   7.236   5.029   4.490 -0.8402  1.1097 -0.0804
   73MOL    F57 8841   7.154   5.133   4.501 -0.0083  0.2182 -0.2214
   73MOL    F58 8842   7.165   4.922   4.509  0.6145  0.8064 -0.1851
   73MOL    C59 8843   7.346   5.038   4.601 -0.4524  0.5023 -0.5712
   73MOL    H60 8844   7.384   5.140   4.595 -1.0820  0.6125 -3.5806
   73MOL    H61 8845   7.435   4.979   4.577  0.4588  1.6355 -0.0093
   73MOL    C62 8846   7.295   5.004   4.743 -0.4837  0.3676  0.1163
   73MOL    F63 8847   7.191   5.083   4.778  0.1131 -0.1671 -0.7250
   73MOL    F64 8848   7.249   4.878   4.740 -0.3327 -0.3721 -0.5407
   73MOL    C65 8849   7.388   5.025   4.866 -0.4325  0.0980  0.0678
   73MOL    H66 8850   7.342   4.988   4.958 -0.5671 -1.2414 -0.5171
   73MOL    H67 8851   7.389   5.133   4.881 -0.1943 -0.0149  0.9104
   73MOL    C68 8852   7.530   4.972   4.860  0.2778  0.0678 -0.0629
   73MOL    F69 8853   7.536   4.839   4.848 -0.6603  0.1517 -0.0554
   73MOL    F70 8854   7.591   5.018   4.744 -0.3884 -0.1040 -0.1597
   73MOL    C71 8855   7.632   5.001   4.976  0.7173 -0.5328  0.2265
   73MOL    H72 8856   7.730   4.961   4.950  1.1224  1.2434 -1.0609
   73MOL    H73 8857   7.595   4.939   5.058  1.4044  0.4642  1.2992
   73MOL    C74 8858   7.647   5.151   5.014  0.3745  0.7005 -0.2624
   73MOL    F75 8859   7.652   5.209   4.898  0.1153 -0.2350  0.0225
   73MOL    F76 8860   7.524   5.176   5.070  0.0171 -0.2321  0.0388
   73MOL    C77 8861   7.770   5.185   5.109  0.0629 -0.1318 -0.3094
   73MOL    H78 8862   7.856   5.138   5.061  0.8751  1.3915 -0.3548
   73MOL    H79 8863   7.779   5.134   5.205 -2.4911  1.1506  0.6594
   73MOL    C80 8864   7.819   5.330   5.115 -0.5414 -0.3304 -0.5673
   73MOL    F81 8865   7.940   5.322   5.184 -0.1683  0.3360 -0.2660
   73MOL    F82 8866   7.835   5.374   4.995  0.2079 -0.0956  0.1629
   73MOL    C83 8867   7.716   5.409   5.195 -0.1020 -0.5234  0.3517
   73MOL    H84 8868   7.691   5.363   5.290 -0.6122 -0.8208  0.0742
   73MOL    H85 8869   7.619   5.397   5.146 -1.1595 -0.2773  2.3273
   73MOL    C86 8870   7.749   5.557   5.220  0.1751 -0.3180 -0.0550
   73MOL    F87 8871   7.649   5.601   5.293  0.0661  0.0757  0.3538
   73MOL    F88 8872   7.862   5.572   5.295 -0.3902  0.0265 -0.1731
   73MOL    C89 8873   7.747   5.652   5.095 -0.0089  1.1597  0.1955
   73MOL    H90 8874   7.665   5.649   5.023 -1.8286  0.0778  2.2527
   73MOL    H91 8875   7.833   5.634   5.031 -0.1058 -1.4806  0.7455
   73MOL    C92 8876   7.743   5.807   5.122 -0.5313 -0.4784  0.2863
   73MOL    F93 8877   7.733   5.864   5.003 -0.0017  0.3354  0.0162
   73MOL    F94 8878   7.628   5.836   5.183  0.0871 -0.1082 -0.0461
   73MOL    C95 8879   7.861   5.847   5.202 -0.3375 -0.3087 -0.0341
   73MOL    H96 8880   7.950   5.806   5.155  0.0335 -0.1061  0.4838
   73MOL    H97 8881   7.859   5.807   5.304  1.0145  0.6304  0.3757
   73MOL    C98 8882   7.901   6.004   5.211  0.7784 -0.3475 -0.6188
   73MOL    F99 8883   7.885   6.066   5.090  0.2243  0.0465  0.2785
   73MOL   F100 8884   7.807   6.052   5.292 -0.2863  0.2055  0.0867
   73MOL   C101 8885   8.041   6.017   5.280 -0.2080  0.3759  0.1406
   73MOL   H102 8886   8.123   5.959   5.237 -0.9348  0.0526 -0.8432
   73MOL   H103 8887   8.036   5.960   5.373  0.3388 -1.3258 -0.8438
   73MOL   C104 8888   8.098   6.159   5.283 -0.2392 -0.4334  0.2630
   73MOL   F105 8889   8.013   6.249   5.342 -0.4173  0.0504  0.0495
   73MOL   F106 8890   8.208   6.143   5.361 -0.3923  0.4991 -0.0006
   73MOL   C107 8891   8.138   6.221   5.144  0.1267  0.2143 -0.7766
   73MOL   H108 8892   8.200   6.311   5.146  0.6613 -0.1243 -1.7057
   73MOL   H109 8893   8.041   6.258   5.109  0.2497 -0.1906 -1.5585
   73MOL   C110 8894   8.207   6.125   5.037  0.0460 -0.1575  0.5100
   73MOL   F111 8895   8.141   6.017   5.005 -0.6301 -0.2808 -0.2853
   73MOL   F112 8896   8.211   6.186   4.921  0.1825 -0.0926 -0.3158
   73MOL   C113 8897   0.007   6.072   5.063 -0.0677  0.8360  0.2189
   73MOL   H114 8898   8.344   5.989   5.133 -2.5138 -2.2550 -3.6737
   73MOL   H115 8899   0.057   6.156   5.112 -1.0139  1.7379 -0.3520
   73MOL   C116 8900   0.087   6.007   4.942  0.8576 -0.3237 -0.5378
   73MOL   F117 8901   0.114   6.097   4.848  0.0872 -0.0579  0.0841
   73MOL   F118 8902   0.207   5.960   4.988  0.5488  0.0718  0.1553
   73MOL   C119 8903   0.023   5.879   4.882  0.1911  0.1687 -0.3945
   73MOL   H120 8904   8.283   5.906   4.826  0.9472  0.9166 -1.2441
   73MOL   H121 8905   8.346   5.799   4.952  3.6018 -0.1431  0.6088
   73MOL   H122 8906   0.092   5.837   4.809  0.5942  2.6657 -1.4786
   74MOL     C1 8907   4.506   2.937   7.339  0.3498 -1.0712  0.2924
   74MOL     F2 8908   4.442   2.816   7.323 -0.3294  0.8467  0.5875
   74MOL     F3 8909   4.453   3.019   7.247 -0.1697  0.2599  0.4426
   74MOL     C4 8910   4.660   2.942   7.320 -0.2165 -0.2490 -0.2504
   74MOL     H5 8911   4.671   2.938   7.212 -2.4048 -0.2288 -0.5055
   74MOL     H6 8912   4.701   2.845   7.349 -2.4135 -1.1811 -0.1088
   74MOL     H7 8913   4.475   2.982   7.434  0.5973  1.3823 -0.7487
   74MOL     C8 8914   4.727   3.068   7.386  0.3577  0.3992  0.7331
   74MOL     F9 8915   4.759   3.163   7.297 -0.4135 -0.3129 -0.6346
   74MOL    F10 8916   4.641   3.121   7.470  0.0014  0.1093  0.1648
   74MOL    C11 8917   4.850   3.029   7.472  0.1116 -0.3133 -0.2593
   74MOL    H12 8918   4.917   2.971   7.409 -1.6510 -2.0242 -0.5981
   74MOL    H13 8919   4.826   2.959   7.552 -1.8799  2.6064  1.8315
   74MOL    C14 8920   4.923   3.146   7.526 -0.3217  0.0530  0.3091
   74MOL    F15 8921   4.973   3.215   7.423  0.1570  0.6986  0.2849
   74MOL    F16 8922   4.845   3.225   7.597  0.0659  0.1159 -0.5010
   74MOL    C17 8923   5.048   3.113   7.620  0.0418  0.3730 -0.2754
   74MOL    H18 8924   5.113   3.200   7.636  2.4866 -1.5094  0.2826
   74MOL    H19 8925   5.108   3.041   7.565 -1.4201 -0.8123 -0.3238
   74MOL    C20 8926   5.012   3.048   7.760 -0.6789  0.2745  0.3640
   74MOL    F21 8927   4.915   3.115   7.824 -0.2940  0.9618 -0.1477
   74MOL    F22 8928   4.962   2.924   7.732  0.1496  0.0867  0.1235
   74MOL    C23 8929   5.137   3.025   7.855  0.0433  0.4960  0.6625
   74MOL    H24 8930   5.213   2.972   7.798 -0.6590  0.0110  0.1717
   74MOL    H25 8931   5.118   2.952   7.934 -2.4555 -0.7284 -1.0189
   74MOL    C26 8932   5.208   3.145   7.923 -0.6791 -0.2815  0.7888
   74MOL    F27 8933   5.269   3.223   7.839  0.5536  0.2058 -0.3188
   74MOL    F28 8934   5.117   3.218   7.990  0.7372 -0.5361 -0.1975
   74MOL    C29 8935   5.317   3.100   8.030 -0.6672  0.4609 -0.5998
   74MOL    H30 8936   5.278   3.042   8.113 -1.9251  1.8155 -0.2216
   74MOL    H31 8937   5.358   3.188   8.080  2.4649 -2.0049  1.3331
   74MOL    C32 8938   5.428   3.019   7.967 -0.0657 -0.1558  0.1363
   74MOL    F33 8939   5.383   2.898   7.946 -0.0133 -0.5181 -0.2254
   74MOL    F34 8940   5.476   3.073   7.854 -0.3283 -0.6467 -0.5784
   74MOL    C35 8941   5.557   2.998   8.050  0.2263  1.3460  0.0592
   74MOL    H36 8942   5.617   3.089   8.037  1.5308  0.3343 -1.2782
   74MOL    H37 8943   5.611   2.919   7.998 -1.4979  0.1850  0.0124
   74MOL    C38 8944   5.539   2.947   8.197 -0.4302 -0.2317  0.4573
   74MOL    F39 8945   5.498   3.050   8.265 -0.0133  0.0361  0.4537
   74MOL    F40 8946   5.445   2.853   8.203 -0.4269 -0.5235  0.1606
   74MOL    C41 8947   5.671   2.879   8.251 -0.4524  0.3703 -0.4535
   74MOL    H42 8948   5.753   2.949   8.240  1.0357 -1.4459 -1.1772
   74MOL    H43 8949   5.691   2.793   8.187 -1.0630  1.4314 -2.0767
   74MOL    C44 8950   5.674   2.829   0.048  0.2681 -0.2173 -0.0395
   74MOL    F45 8951   5.638   2.938   0.117  0.1711  0.2194  0.1200
   74MOL    F46 8952   5.591   2.729   0.050  0.0476  0.0165 -0.2004
   74MOL    C47 8953   5.818   2.798   0.102 -0.3080 -0.2141  0.1366
   74MOL    H48 8954   5.797   2.770   0.206 -0.5522 -0.3447  0.0525
   74MOL    H49 8955   5.887   2.882   0.093  0.9625 -1.5112 -2.5595
   74MOL    C50 8956   5.894   2.675   0.046  0.7545  0.5395 -0.1498
   74MOL    F51 8957   5.816   2.565   0.053 -0.5475  0.1601 -0.1600
   74MOL    F52 8958   5.907   2.703   8.273  0.0172  0.3105 -0.0280
   74MOL    C53 8959   6.036   2.648   0.111 -0.0437  0.8575  0.8222
   74MOL    H54 8960   6.097   2.735   0.087  0.5187 -0.0062 -0.9089
   74MOL    H55 8961   6.080   2.561   0.064 -0.5811  1.6505 -1.2146
   74MOL    C56 8962   6.042   2.636   0.265  0.3075  0.3957  0.3656
   74MOL    F57 8963   6.165   2.626   0.302  0.1770  0.0026 -0.0518
   74MOL    F58 8964   5.990   2.747   0.325  0.0025  0.2989 -0.2168
   74MOL    C59 8965   5.966   2.515   0.323  0.3285 -0.1538 -0.7454
   74MOL    H60 8966   6.001   2.426   0.271 -0.6036 -0.2286 -1.2554
   74MOL    H61 8967   5.863   2.519   0.289  0.0977 -0.2218 -0.0698
   74MOL    C62 8968   5.976   2.499   0.476  0.1468  0.9054  0.0343
   74MOL    F63 8969   6.098   2.529   0.513  0.5771 -0.1866  0.7118
   74MOL    F64 8970   5.900   2.590   0.530 -0.0770  0.1863 -0.0580
   74MOL    C65 8971   5.938   2.362   0.526 -0.6897  0.1781 -1.0394
   74MOL    H66 8972   5.952   2.366   0.634  0.0125 -0.5968 -1.0975
   74MOL    H67 8973   6.015   2.291   0.496  0.0637  0.5390  0.0214
   74MOL    C68 8974   5.797   2.305   0.493 -0.1056 -0.4139 -0.1647
   74MOL    F69 8975   5.785   2.280   0.359 -0.1104  0.2240 -0.0517
   74MOL    F70 8976   5.786   2.192   0.568  0.3226  0.0457  0.9122
   74MOL    C71 8977   5.683   2.397   0.546  0.0921  0.4884  0.1116
   74MOL    H72 8978   5.672   2.480   0.476  0.6528 -0.2412 -0.8498
   74MOL    H73 8979   5.692   2.424   0.651  2.2166 -0.6115  0.2402
   74MOL    C74 8980   5.540   2.335   0.547  0.0627  0.0147  0.6316
   74MOL    F75 8981   5.513   2.292   0.420 -0.4650 -0.6715  0.6525
   74MOL    F76 8982   5.539   2.226   0.623 -0.1475 -0.3597  0.2691
   74MOL    C77 8983   5.416   2.429   0.581 -0.3533  0.1205 -0.4251
   74MOL    H78 8984   5.407   2.496   0.496  1.3251 -0.0340 -0.7433
   74MOL    H79 8985   5.450   2.487   0.667 -0.0774  2.0585 -1.7994
   74MOL    C80 8986   5.277   2.364   0.613  0.1116  0.3958  0.0726
   74MOL    F81 8987   5.234   2.290   0.506 -0.3080 -0.5560 -0.0259
   74MOL    F82 8988   5.273   2.279   0.707 -0.5836 -0.0296 -0.6273
   74MOL    C83 8989   5.161   2.470   0.637  0.6724  0.6763  1.2983
   74MOL    H84 8990   5.071   2.416   0.668  1.6925 -1.7761  0.1103
   74MOL    H85 8991   5.139   2.524   0.545  2.5079 -1.9206 -0.7388
   74MOL    C86 8992   5.190   2.570   0.754  0.1967 -0.5381 -0.3199
   74MOL    F87 8993   5.254   2.503   0.851 -0.2420  0.1069  0.2636
   74MOL    F88 8994   5.261   2.663   0.692 -0.1056  0.1359 -0.1503
   74MOL    C89 8995   5.068   2.643   0.809 -0.5423 -0.0619 -0.1068
   74MOL    H90 8996   5.008   2.564   0.855 -2.1393  1.4561  0.4667
   74MOL    H91 8997   5.008   2.679   0.726  1.8437  1.5478 -1.1733
   74MOL    C92 8998   5.100   2.758   0.916 -1.1102 -0.0429  1.2666
   74MOL    F93 8999   5.161   2.706   1.017 -0.7317  0.5245 -0.0506
   74MOL    F94 9000   5.181   2.846   0.860  0.4215 -0.1022  0.3785
   74MOL    C95 9001   4.968   2.818   0.960 -0.2323  0.2403  0.0773
   74MOL    H96 9002   4.901   2.734   0.976  1.0946 -0.5980  1.3440
   74MOL    H97 9003   4.920   2.887   0.890  1.0989  0.1937 -0.9286
   74MOL    C98 9004   4.981   2.889   1.100  0.3197 -0.8280 -0.5530
   74MOL    F99 9005   5.007   2.807   1.195 -0.6754 -0.4443  0.0270
   74MOL   F100 9006   5.068   2.990   1.099 -0.4045 -0.1471 -0.4350
   74MOL   C101 9007   4.847   2.948   1.150 -0.2690  0.2599  0.2440
   74MOL   H102 9008   4.876   3.003   1.239 -0.2452  1.7708 -0.6756
   74MOL   H103 9009   4.785   2.866   1.185 -0.0028 -0.0263  0.0514
   74MOL   C104 9010   4.765   3.040   1.050 -0.6118 -0.6236  0.5880
   74MOL   F105 9011   4.834   3.153   1.029 -0.1154  0.0453 -0.0829
   74MOL   F106 9012   4.724   2.979   0.938  0.6567 -0.0718 -0.5034
   74MOL   C107 9013   4.635   3.090   1.115 -0.7716  0.3776  0.0956
   74MOL   H108 9014   4.674   3.137   1.205  0.1522 -0.1804 -0.0049
   74MOL   H109 9015   4.582   3.000   1.147  2.4877 -1.1857  1.3630
   74MOL   C110 9016   4.544   3.203   1.050 -0.5360 -0.0529  0.5669
   74MOL   F111 9017   4.621   3.314   1.063  0.3188 -0.3734 -0.0947
   74MOL   F112 9018   4.517   3.179   0.920  0.3245 -0.0414 -0.2986
   74MOL   C113 9019   4.413   3.227   1.127  0.4391 -0.5187  0.2990
   74MOL   H114 9020   4.448   3.248   1.228  2.8473  1.9078 -0.9389
   74MOL   H115 9021   4.354   3.136   1.133  0.5145 -0.8165 -2.5431
   74MOL   C116 9022   4.327   3.348   1.079  0.6822  0.2600  0.4297
   74MOL   F117 9023   4.411   3.448   1.071  0.0321 -0.0228  0.3620
   74MOL   F118 9024   4.285   3.330   0.954  0.4882 -0.0220  0.0284
   74MOL   C119 9025   4.215   3.387   1.178  0.9301  0.0467  0.4860
   74MOL   H120 9026   4.160   3.470   1.131 -1.0750 -0.0830  2.5317
   74MOL   H121 9027   4.254   3.422   1.273  1.9329  1.5200 -0.4474
   74MOL   H122 9028   4.153   3.301   1.201  0.5016  0.3255  0.3980
   75MOL     C1 9029   0.352   7.668   0.152  0.1080  0.2928  0.0902
   75MOL     F2 9030   0.321   7.784   0.207  0.2762 -0.1789 -0.3221
   75MOL     F3 9031   0.280   7.632   0.048  0.0636 -0.0273 -0.4042
   75MOL     C4 9032   0.340   7.563   0.264  0.5446  0.2753 -0.0641
   75MOL     H5 9033   0.401   7.596   0.348  0.5788  1.4380 -0.5236
   75MOL     H6 9034   0.393   7.471   0.240 -1.6008 -0.7688 -0.8692
   75MOL     H7 9035   0.456   7.673   0.120 -0.1909 -2.2765 -1.4560
   75MOL     C8 9036   0.209   7.537   0.340 -0.5417  0.3772 -0.5699
   75MOL     F9 9037   0.179   7.645   0.408  0.0567 -0.5507  0.2955
   75MOL    F10 9038   0.107   7.507   0.261 -0.4963 -0.6694  0.0110
   75MOL    C11 9039   0.213   7.422   0.444  0.5978  0.5447 -0.1335
   75MOL    H12 9040   0.308   7.429   0.496  1.2472 -1.4916 -1.0074
   75MOL    H13 9041   0.218   7.325   0.395 -1.2933 -0.5928  1.8593
   75MOL    C14 9042   0.103   7.413   0.548 -0.1359  0.1453 -0.7000
   75MOL    F15 9043   0.087   7.535   0.611 -0.5314  0.0775  0.1426
   75MOL    F16 9044   8.339   7.396   0.483 -0.6147  0.4818 -0.1172
   75MOL    C17 9045   0.115   7.297   0.646  0.0669 -1.1423  0.0672
   75MOL    H18 9046   0.094   7.196   0.610 -2.7047 -0.6120  0.1191
   75MOL    H19 9047   0.033   7.305   0.717 -0.1938 -0.1392 -0.3275
   75MOL    C20 9048   0.248   7.288   0.721  0.0202  0.0566  0.6717
   75MOL    F21 9049   0.336   7.248   0.638  0.0212 -0.5275 -0.6774
   75MOL    F22 9050   0.277   7.411   0.761  0.3356 -0.4219  0.0203
   75MOL    C23 9051   0.243   7.198   0.851  0.3257 -0.1017  0.2787
   75MOL    H24 9052   0.199   7.099   0.843 -0.9205  0.4191  0.5367
   75MOL    H25 9053   0.169   7.234   0.922  0.7764  1.5324 -0.0370
   75MOL    C26 9054   0.378   7.189   0.926 -0.0056  1.1500 -0.5185
   75MOL    F27 9055   0.480   7.158   0.844  0.4151  0.0384 -0.4649
   75MOL    F28 9056   0.411   7.305   0.996 -0.2469  0.7219 -0.1926
   75MOL    C29 9057   0.388   7.083   1.035 -0.9407 -0.2619  0.4036
   75MOL    H30 9058   0.476   7.100   1.097 -1.4744  2.0468  0.5914
   75MOL    H31 9059   0.407   6.990   0.981  0.6043 -0.2998  0.9840
   75MOL    C32 9060   0.279   7.066   1.141  0.0093  0.3138  0.7347
   75MOL    F33 9061   0.269   7.193   1.180  0.4224 -0.5336  0.1379
   75MOL    F34 9062   0.159   7.036   1.089 -0.0206  0.2648 -0.2118
   75MOL    C35 9063   0.311   6.982   1.267 -0.0117  0.5338  0.3040
   75MOL    H36 9064   0.240   7.007   1.346 -1.4770  1.8766 -1.3878
   75MOL    H37 9065   0.401   7.017   1.318 -0.8367  1.7929  0.9260
   75MOL    C38 9066   0.310   6.830   1.242 -0.3681 -0.2263 -0.2482
   75MOL    F39 9067   0.394   6.809   1.147  0.2775  0.1151  0.1129
   75MOL    F40 9068   0.340   6.766   1.356 -0.3490 -0.8364 -0.2673
   75MOL    C41 9069   0.166   6.775   1.199 -0.0861  0.6794  0.1860
   75MOL    H42 9070   0.158   6.799   1.094 -0.9140  1.3683  0.4077
   75MOL    H43 9071   0.093   6.819   1.267 -0.5106 -1.3055  1.0680
   75MOL    C44 9072   0.161   6.611   1.199 -0.0928  0.0483  0.3143
   75MOL    F45 9073   0.259   6.562   1.127  0.0404 -0.5474 -0.0843
   75MOL    F46 9074   0.167   6.559   1.322  0.4617  0.1714 -0.4534
   75MOL    C47 9075   0.030   6.568   1.128  0.2918 -0.1564 -0.8593
   75MOL    H48 9076   0.026   6.610   1.027  0.0004  0.4053 -0.6179
   75MOL    H49 9077   8.299   6.624   1.176  1.2499  0.9408 -0.5086
   75MOL    C50 9078   0.003   6.422   1.120 -0.3141  0.2871  0.5038
   75MOL    F51 9079   8.231   6.415   1.063  0.0105 -0.1049 -0.1291
   75MOL    F52 9080   0.098   6.382   1.029 -0.4439 -0.5172  0.3537
   75MOL    C53 9081   8.344   6.334   1.248 -0.5633 -0.1559  0.3993
   75MOL    H54 9082   8.279   6.377   1.324 -0.7936  1.4359 -0.6597
   75MOL    H55 9083   0.097   6.332   1.285  0.8252 -1.0073 -3.2921
   75MOL    C56 9084   8.289   6.190   1.217  0.0702  0.1791  0.0122
   75MOL    F57 9085   8.327   6.112   1.320  0.1163 -0.0149 -0.0446
   75MOL    F58 9086   8.157   6.185   1.222 -0.6722 -0.1855  0.0409
   75MOL    C59 9087   8.336   6.126   1.077 -0.0057 -0.3149 -0.2500
   75MOL    H60 9088   0.092   6.142   1.059  0.6636 -2.4661  1.6300
   75MOL    H61 9089   8.281   6.170   0.993  2.3016  0.5864 -1.3243
   75MOL    C62 9090   8.315   5.970   1.073 -0.2104  0.4953  0.2373
   75MOL    F63 9091   0.021   5.942   0.951  0.2432 -0.1945 -0.6007
   75MOL    F64 9092   0.043   5.902   1.160 -0.0270  0.2362  0.3416
   75MOL    C65 9093   8.173   5.917   1.087  0.1683  0.1842 -0.4058
   75MOL    H66 9094   8.133   5.950   1.183 -1.0057 -1.0201 -0.4690
   75MOL    H67 9095   8.191   5.810   1.096  3.1119  0.8046  1.7603
   75MOL    C68 9096   8.074   5.962   0.973  0.5505 -0.3130  0.2700
   75MOL    F69 9097   7.954   5.908   1.012 -0.1462 -0.2681 -0.1423
   75MOL    F70 9098   8.068   6.094   0.979 -0.1455 -0.1327 -0.4751
   75MOL    C71 9099   8.109   5.914   0.826  0.3668  0.5063  0.7310
   75MOL    H72 9100   8.125   5.806   0.836 -0.4499  0.4018  0.9289
   75MOL    H73 9101   8.203   5.965   0.803 -0.3482  2.0920  1.2440
   75MOL    C74 9102   8.003   5.946   0.707  0.3290  0.4789  0.0957
   75MOL    F75 9103   8.040   5.880   0.596  0.0954 -0.3306 -0.0983
   75MOL    F76 9104   7.882   5.897   0.739 -0.0877 -0.2734 -0.2179
   75MOL    C77 9105   7.987   6.097   0.677  0.5932 -0.0336  0.1989
   75MOL    H78 9106   7.951   6.143   0.769  0.4780 -2.9386  1.6645
   75MOL    H79 9107   7.904   6.100   0.606  1.5855 -1.2375 -1.0438
   75MOL    C80 9108   8.116   6.161   0.618  0.1305  0.6612 -0.5367
   75MOL    F81 9109   8.203   6.167   0.718 -0.6115 -0.0415 -0.6219
   75MOL    F82 9110   8.166   6.091   0.519 -0.1900 -0.6229 -0.0292
   75MOL    C83 9111   8.093   6.307   0.579 -0.8843 -0.0518 -0.3742
   75MOL    H84 9112   8.181   6.337   0.522  0.2059 -1.6716  0.4033
   75MOL    H85 9113   8.093   6.373   0.666  0.3062 -1.1533  0.4966
   75MOL    C86 9114   7.973   6.341   0.490 -0.2935 -0.6032  0.2618
   75MOL    F87 9115   7.924   6.234   0.427 -0.4461  0.2879  0.5454
   75MOL    F88 9116   7.887   6.369   0.584 -0.0058  0.1914 -0.0583
   75MOL    C89 9117   7.995   6.447   0.372  0.2524 -0.1407 -0.7808
   75MOL    H90 9118   8.070   6.413   0.301 -2.0551  0.8503 -3.7885
   75MOL    H91 9119   8.039   6.533   0.424  2.0822 -1.3332 -0.2902
   75MOL    C92 9120   7.874   6.499   0.296  0.6445 -0.0548 -0.3111
   75MOL    F93 9121   7.931   6.583   0.207  0.6913  0.4256 -0.3190
   75MOL    F94 9122   7.815   6.397   0.224 -0.0254  0.0021 -0.5970
   75MOL    C95 9123   7.761   6.564   0.382  0.6015  0.6144 -0.3564
   75MOL    H96 9124   7.706   6.497   0.448  0.9309  1.4360  0.7671
   75MOL    H97 9125   7.681   6.583   0.311  0.2989 -0.2702 -0.2653
   75MOL    C98 9126   7.795   6.689   0.465 -0.6787 -0.8485 -0.4491
   75MOL    F99 9127   7.898   6.675   0.551  0.3035 -0.0076  0.0198
   75MOL   F100 9128   7.829   6.784   0.381  0.0027 -0.6029  0.4054
   75MOL   C101 9129   7.677   6.743   0.548  0.6202  0.2240 -0.2392
   75MOL   H102 9130   7.724   6.822   0.607  1.5430  1.0177 -1.9736
   75MOL   H103 9131   7.640   6.665   0.614 -0.2500 -0.5410 -1.6044
   75MOL   C104 9132   7.563   6.814   0.478  0.6506 -0.2318 -0.8641
   75MOL   F105 9133   7.607   6.901   0.388 -0.2253  0.4249 -0.2350
   75MOL   F106 9134   7.488   6.716   0.417  0.1182 -0.4068  0.3690
   75MOL   C107 9135   7.471   6.888   0.584 -0.1752 -0.5246 -0.2744
   75MOL   H108 9136   7.524   6.965   0.641 -0.1468  0.2403 -1.3120
   75MOL   H109 9137   7.428   6.819   0.656 -1.5658 -0.3751 -0.9494
   75MOL   C110 9138   7.347   6.954   0.532  0.0880  0.1057  0.0103
   75MOL   F111 9139   7.392   7.028   0.433  0.0275  0.1167  0.5794
   75MOL   F112 9140   7.265   6.865   0.474 -0.2884  0.6689 -0.3216
   75MOL   C113 9141   7.266   7.035   0.637 -0.5180  0.0520 -0.0714
   75MOL   H114 9142   7.191   7.087   0.577  1.5348  2.4274 -0.6706
   75MOL   H115 9143   7.332   7.107   0.685  1.5342 -1.0929 -1.0998
   75MOL   C116 9144   7.189   6.953   0.737 -0.4120 -0.9033 -0.1646
   75MOL   F117 9145   7.140   6.840   0.680 -0.3121 -0.0179  0.6121
   75MOL   F118 9146   7.271   6.919   0.837  0.0896  0.7031  0.3534
   75MOL   C119 9147   7.076   7.035   0.791 -0.2780 -0.7744 -0.3285
   75MOL   H120 9148   7.024   6.988   0.874  1.3532 -1.8195  0.1405
   75MOL   H121 9149   7.002   7.042   0.711 -0.3366 -2.3300 -0.4159
   75MOL   H122 9150   7.107   7.136   0.819  3.8192 -1.9657 -0.2419
   76MOL     C1 9151   2.537   7.210   7.417  0.5184  1.1901 -0.3497
   76MOL     F2 9152   2.631   7.211   7.506  0.1860  0.0855 -0.0275
   76MOL     F3 9153   2.587   7.166   7.297  0.5414 -0.1835 -0.3740
   76MOL     C4 9154   2.495   7.357   7.402 -0.4107 -0.1750 -0.5846
   76MOL     H5 9155   2.571   7.414   7.350  1.7912 -2.3101  0.2426
   76MOL     H6 9156   2.493   7.404   7.501  1.1972 -0.2268 -0.5266
   76MOL     H7 9157   2.462   7.139   7.452 -0.5478  1.9263 -1.0930
   76MOL     C8 9158   2.363   7.371   7.323 -0.0234  0.5607  0.2777
   76MOL     F9 9159   2.407   7.346   7.198  0.0045  0.4550 -0.0790
   76MOL    F10 9160   2.274   7.278   7.352 -0.0475 -0.6438 -0.1839
   76MOL    C11 9161   2.306   7.511   7.340 -0.2986  0.2812  0.4668
   76MOL    H12 9162   2.398   7.570   7.341 -0.5936  0.7416  1.2212
   76MOL    H13 9163   2.265   7.514   7.441 -0.4038  2.9938  0.3890
   76MOL    C14 9164   2.196   7.545   7.238  0.1086  0.1648 -0.0487
   76MOL    F15 9165   2.123   7.643   7.290  0.0015 -0.0929  0.5001
   76MOL    F16 9166   2.256   7.593   7.124  0.0187  0.0916 -0.1297
   76MOL    C17 9167   2.100   7.432   7.195 -0.6473 -0.5034  0.0835
   76MOL    H18 9168   2.068   7.382   7.287  1.3077  0.1320  1.1249
   76MOL    H19 9169   2.143   7.364   7.122 -0.2865  1.2525 -1.3696
   76MOL    C20 9170   1.966   7.464   7.128 -0.2661  0.4035 -0.2608
   76MOL    F21 9171   1.898   7.532   7.223  0.3475  0.4857  0.3997
   76MOL    F22 9172   1.992   7.541   7.021  0.1532  0.3072  0.1796
   76MOL    C23 9173   1.890   7.340   7.075  0.5004 -0.2885  0.4477
   76MOL    H24 9174   1.926   7.244   7.112  0.4080  0.1275  1.6392
   76MOL    H25 9175   1.907   7.327   6.968  0.0953 -4.4981  0.8361
   76MOL    C26 9176   1.734   7.344   7.095 -0.1218  0.0487 -0.1467
   76MOL    F27 9177   1.721   7.334   7.226  0.0578 -0.0308 -0.2630
   76MOL    F28 9178   1.690   7.465   7.064  0.7159 -0.1940 -0.2360
   76MOL    C29 9179   1.648   7.232   7.033 -0.6141  0.3444 -0.0118
   76MOL    H30 9180   1.667   7.231   6.926  2.2789  0.4813  0.4714
   76MOL    H31 9181   1.548   7.273   7.047 -1.1389  0.5778 -4.0068
   76MOL    C32 9182   1.667   7.081   7.081 -0.1888  0.1315  0.2413
   76MOL    F33 9183   1.576   7.012   7.018 -0.1462 -0.1406  0.4277
   76MOL    F34 9184   1.790   7.037   7.058 -0.0452 -0.2562  0.0863
   76MOL    C35 9185   1.649   7.058   7.230 -0.5862  0.1160 -0.1111
   76MOL    H36 9186   1.547   7.090   7.252 -0.1280  0.2322  1.8847
   76MOL    H37 9187   1.719   7.130   7.273 -0.6027  1.2131 -1.8540
   76MOL    C38 9188   1.672   6.922   7.297  0.5489 -0.2601  0.7715
   76MOL    F39 9189   1.616   6.925   7.417  0.5720  0.0297  0.3993
   76MOL    F40 9190   1.606   6.824   7.229 -0.1254 -0.1725  0.4757
   76MOL    C41 9191   1.820   6.882   7.321 -0.0312  0.2819  0.4281
   76MOL    H42 9192   1.865   6.876   7.222 -5.0558  0.5571 -1.9992
   76MOL    H43 9193   1.816   6.778   7.355  0.1278 -0.2701 -1.1778
   76MOL    C44 9194   1.912   6.958   7.418 -0.3096 -0.1864  0.7781
   76MOL    F45 9195   1.934   7.088   7.373  0.1168 -0.4371 -0.0409
   76MOL    F46 9196   1.856   6.966   7.537  0.0170 -0.2600  0.7052
   76MOL    C47 9197   2.055   6.914   7.435 -0.2747  0.4209  0.4410
   76MOL    H48 9198   2.045   6.831   7.505  1.1108  0.1346  0.3095
   76MOL    H49 9199   2.103   6.980   7.507 -0.7652  0.0750  1.0934
   76MOL    C50 9200   2.136   6.871   7.307 -0.0243 -0.4400 -0.6772
   76MOL    F51 9201   2.092   6.763   7.249  0.2373  0.5860  0.0380
   76MOL    F52 9202   2.135   6.967   7.218  0.1515 -0.3747 -0.4149
   76MOL    C53 9203   2.285   6.853   7.337  0.5023  0.6244 -0.6521
   76MOL    H54 9204   2.339   6.937   7.381  0.9875 -1.1866  2.3746
   76MOL    H55 9205   2.347   6.846   7.248  0.9179  0.9551 -0.3911
   76MOL    C56 9206   2.316   6.730   7.427 -0.0839  0.2752 -0.0625
   76MOL    F57 9207   2.444   6.727   7.462 -0.0275 -0.0344  0.1982
   76MOL    F58 9208   2.252   6.740   7.541 -0.1635  0.4584 -0.1846
   76MOL    C59 9209   2.286   6.594   7.365  0.1683 -0.3949 -0.2293
   76MOL    H60 9210   2.297   6.610   7.258  2.5218 -2.9648 -0.4148
   76MOL    H61 9211   2.180   6.567   7.367 -0.2420  1.2152  0.5806
   76MOL    C62 9212   2.359   6.472   7.420 -0.4149  0.2403 -0.3250
   76MOL    F63 9213   2.311   6.360   7.366  0.5433  0.2794  0.0371
   76MOL    F64 9214   2.484   6.478   7.379 -0.0063 -0.2016 -0.6398
   76MOL    C65 9215   2.341   6.457   7.571  0.1719  0.1680  0.6732
   76MOL    H66 9216   2.236   6.468   7.596  0.1377  1.0947  0.1310
   76MOL    H67 9217   2.390   6.539   7.622 -1.0421  0.6235  1.1181
   76MOL    C68 9218   2.405   6.333   7.634 -0.3205  0.3998 -0.2977
   76MOL    F69 9219   2.338   6.230   7.581  0.0656  0.0238 -0.0362
   76MOL    F70 9220   2.533   6.321   7.593 -0.8087  0.2552 -0.4512
   76MOL    C71 9221   2.403   6.318   7.783 -0.2376 -0.4225 -0.4221
   76MOL    H72 9222   2.410   6.211   7.801  0.7141 -0.3680 -0.4503
   76MOL    H73 9223   2.302   6.341   7.816 -0.1552  0.5523 -0.8406
   76MOL    C74 9224   2.510   6.398   7.869 -0.3580 -0.3396  0.2471
   76MOL    F75 9225   2.632   6.384   7.833 -0.5522 -0.1002  0.6091
   76MOL    F76 9226   2.485   6.528   7.861  0.2127 -0.3106  0.1654
   76MOL    C77 9227   2.513   6.348   8.010 -0.6917 -0.5011 -0.0730
   76MOL    H78 9228   2.559   6.432   8.063  0.2804 -2.2623  1.9552
   76MOL    H79 9229   2.581   6.266   8.029  0.0750 -0.0558 -0.8609
   76MOL    C80 9230   2.379   6.328   8.085 -0.4320  0.1604  0.2617
   76MOL    F81 9231   2.318   6.448   8.075  0.4164  0.0109  0.0123
   76MOL    F82 9232   2.288   6.244   8.038  0.2315 -0.2939 -0.0247
   76MOL    C83 9233   2.404   6.307   8.232  0.1617 -0.3746 -0.1719
   76MOL    H84 9234   2.486   6.367   8.272  0.7523 -0.2230 -1.5932
   76MOL    H85 9235   2.448   6.207   8.241  0.2624 -0.2264  1.1194
   76MOL    C86 9236   2.287   6.335   8.327  0.2619  0.1023  0.2889
   76MOL    F87 9237   2.237   6.453   8.310 -0.7102  0.5876  0.1260
   76MOL    F88 9238   2.187   6.243   8.298 -0.3157  0.3580  0.2144
   76MOL    C89 9239   2.323   6.321   0.123  0.0607  0.5894 -0.0360
   76MOL    H90 9240   2.416   6.374   0.137  1.0650 -0.6203 -1.9480
   76MOL    H91 9241   2.350   6.216   0.133 -2.8406 -0.5737 -3.2318
   76MOL    C92 9242   2.216   6.358   0.232  0.8646  0.0858  0.1516
   76MOL    F93 9243   2.191   6.486   0.220  0.2016 -0.4202 -0.3102
   76MOL    F94 9244   2.106   6.292   0.196 -0.0066  0.3772  0.1997
   76MOL    C95 9245   2.234   6.326   0.379  1.0567  0.3222  0.1179
   76MOL    H96 9246   2.228   6.219   0.400  2.1615 -0.1451 -1.8411
   76MOL    H97 9247   2.138   6.358   0.419  0.0201 -1.3730 -0.9335
   76MOL    C98 9248   2.349   6.403   0.446  0.3123  0.2139 -0.2524
   76MOL    F99 9249   2.451   6.375   0.374  0.0291 -0.0948 -0.2968
   76MOL   F100 9250   2.327   6.538   0.437 -0.4193  0.4811  0.0889
   76MOL   C101 9251   2.356   6.361   0.596 -0.3005 -0.7113  0.7170
   76MOL   H102 9252   2.393   6.258   0.596  1.5343 -0.0816  2.9036
   76MOL   H103 9253   2.258   6.365   0.644  0.1146  0.8045  1.4664
   76MOL   C104 9254   2.453   6.456   0.677  0.0796 -0.5715 -0.2726
   76MOL   F105 9255   2.396   6.581   0.683  0.4239  0.1302 -0.4211
   76MOL   F106 9256   2.454   6.398   0.798 -0.3353  0.0745  0.0062
   76MOL   C107 9257   2.599   6.474   0.615 -0.7401 -0.0520 -0.0718
   76MOL   H108 9258   2.643   6.551   0.679  0.4727 -0.6960 -0.1308
   76MOL   H109 9259   2.602   6.516   0.515  3.2941 -0.5646 -0.2427
   76MOL   C110 9260   2.688   6.347   0.634  0.7044 -0.6345 -0.0608
   76MOL   F111 9261   2.712   6.326   0.766 -0.1366 -0.2448  0.0169
   76MOL   F112 9262   2.618   6.239   0.590  0.0349 -0.9477 -0.2257
   76MOL   C113 9263   2.818   6.369   0.551 -0.6936 -0.2375 -0.4823
   76MOL   H114 9264   2.864   6.464   0.578  0.7775 -0.4907 -1.9760
   76MOL   H115 9265   2.791   6.384   0.446  1.0335  0.6865 -0.8318
   76MOL   C116 9266   2.927   6.260   0.559 -0.5056 -1.3624  0.2705
   76MOL   F117 9267   2.875   6.141   0.537  0.1799 -0.2553 -0.2015
   76MOL   F118 9268   3.016   6.288   0.465 -0.3435  0.2746  0.5488
   76MOL   C119 9269   3.016   6.266   0.687  0.1237 -0.8306  0.1518
   76MOL   H120 9270   2.971   6.228   0.779  0.8767  0.1186  0.9174
   76MOL   H121 9271   3.036   6.371   0.704  0.9038 -1.0811  0.8071
   76MOL   H122 9272   3.109   6.213   0.664 -0.6337 -2.3045  0.4163
   77MOL     C1 9273   8.024   2.718   4.696  0.1566 -0.1878 -0.0460
   77MOL     F2 9274   8.145   2.738   4.744  0.3200 -0.2192 -0.1124
   77MOL     F3 9275   8.032   2.626   4.602  0.2950  0.4540  0.6881
   77MOL     C4 9276   7.987   2.854   4.636  0.1839  0.3128  0.1506
   77MOL     H5 9277   7.889   2.843   4.590  1.9779  0.0602 -3.7978
   77MOL     H6 9278   8.062   2.875   4.560  0.0442  0.2685  0.0002
   77MOL     H7 9279   7.944   2.702   4.768  0.3196  0.6431  0.3231
   77MOL     C8 9280   7.973   2.972   4.730 -0.0590  0.2294  0.4994
   77MOL     F9 9281   7.912   3.068   4.658  0.2781  0.0715 -0.2097
   77MOL    F10 9282   7.885   2.932   4.816 -0.2709  0.1557  0.0668
   77MOL    C11 9283   8.103   3.016   4.793  0.8504 -0.2853 -0.1315
   77MOL    H12 9284   8.176   3.035   4.714  2.8564 -0.5232  1.6111
   77MOL    H13 9285   8.143   2.940   4.859  1.2272 -0.2650 -0.3334
   77MOL    C14 9286   8.092   3.136   4.890 -0.4200  0.3324 -0.2226
   77MOL    F15 9287   8.065   3.243   4.822 -0.4128  0.1662  0.4094
   77MOL    F16 9288   7.990   3.113   4.976  0.0004 -0.5383  0.1344
   77MOL    C17 9289   8.212   3.159   4.990  0.7452  0.1730 -0.0206
   77MOL    H18 9290   8.237   3.063   5.035 -1.0189 -0.9505 -1.3694
   77MOL    H19 9291   8.182   3.228   5.069  2.8963 -0.2106  1.2033
   77MOL    C20 9292   8.340   3.217   4.921 -0.0299 -0.0096 -0.2868
   77MOL    F21 9293   0.025   3.138   4.819  0.3395  0.1727 -0.6544
   77MOL    F22 9294   8.307   3.338   4.877  0.4264 -0.1048  0.2705
   77MOL    C23 9295   0.115   3.236   5.008 -0.1419 -0.1594 -0.4568
   77MOL    H24 9296   0.191   3.295   4.957 -1.0823 -0.8784 -2.7261
   77MOL    H25 9297   0.157   3.136   5.021 -0.2451  0.0005  1.2048
   77MOL    C26 9298   0.096   3.288   5.149  1.2082 -0.8517 -0.0326
   77MOL    F27 9299   0.017   3.394   5.145 -0.1748 -0.0863  0.2618
   77MOL    F28 9300   0.028   3.195   5.215  0.5084 -0.5832 -0.2148
   77MOL    C29 9301   0.226   3.333   5.211 -0.1709  0.2367 -0.8824
   77MOL    H30 9302   0.275   3.409   5.150 -0.0598  0.8715 -0.0120
   77MOL    H31 9303   0.289   3.247   5.185  2.0510  0.4579  3.3787
   77MOL    C32 9304   0.217   3.380   5.363 -0.1938  0.3327  0.1018
   77MOL    F33 9305   0.143   3.490   5.380  0.0229 -0.7101  0.7209
   77MOL    F34 9306   0.160   3.284   5.434 -0.5886 -0.2045  0.5912
   77MOL    C35 9307   0.349   3.408   5.431 -0.1117  0.1297  0.5224
   77MOL    H36 9308   0.317   3.450   5.527 -0.0270  1.8125 -0.1714
   77MOL    H37 9309   0.400   3.477   5.364  2.2663 -2.4412 -0.3916
   77MOL    C38 9310   0.443   3.283   5.461 -0.5205  0.3145  0.1439
   77MOL    F39 9311   0.464   3.223   5.347 -0.0929  0.6757 -0.8628
   77MOL    F40 9312   0.564   3.340   5.491  0.6468  0.0606 -0.1035
   77MOL    C41 9313   0.394   3.176   5.565 -0.3719 -0.2789  0.0240
   77MOL    H42 9314   0.467   3.095   5.554  0.6134  0.7504 -1.1498
   77MOL    H43 9315   0.302   3.126   5.534  0.3077 -0.2349 -2.1824
   77MOL    C44 9316   0.393   3.216   5.720  0.9097 -0.6694  0.1715
   77MOL    F45 9317   0.519   3.238   5.747  0.6410  0.0507 -0.0912
   77MOL    F46 9318   0.323   3.335   5.733 -0.4002  0.1224 -0.1070
   77MOL    C47 9319   0.331   3.107   5.813 -0.2332 -0.2327  0.4624
   77MOL    H48 9320   0.368   3.008   5.787 -1.8249 -1.0122  1.1383
   77MOL    H49 9321   0.229   3.102   5.775 -0.2735  2.4464  0.0968
   77MOL    C50 9322   0.346   3.124   5.963  0.0693  0.0518 -0.7075
   77MOL    F51 9323   0.333   3.005   6.026  0.3113 -0.4307  0.2175
   77MOL    F52 9324   0.467   3.168   5.987  0.1017 -0.0640 -0.1531
   77MOL    C53 9325   0.246   3.226   6.032 -0.8330  0.8606  0.0093
   77MOL    H54 9326   0.264   3.324   5.989 -1.5549  0.6923 -0.6885
   77MOL    H55 9327   0.278   3.226   6.137  1.2618  4.0709 -0.5699
   77MOL    C56 9328   0.101   3.175   6.025 -0.7619 -0.6612  0.1437
   77MOL    F57 9329   0.036   3.268   6.093 -0.2813  0.2134 -0.0655
   77MOL    F58 9330   0.046   3.166   5.900  0.1902 -0.6045 -0.3980
   77MOL    C59 9331   0.069   3.039   6.096 -0.1147  0.0686  0.3480
   77MOL    H60 9332   0.130   3.031   6.187 -0.3028 -1.1409  0.3726
   77MOL    H61 9333   0.104   2.951   6.042 -0.2485  0.7136 -0.7952
   77MOL    C62 9334   8.271   3.023   6.152 -0.0159 -0.1775  0.2051
   77MOL    F63 9335   8.250   3.123   6.244  0.0830  0.3983  0.3921
   77MOL    F64 9336   8.184   3.030   6.052  0.0994  0.4068  0.2480
   77MOL    C65 9337   8.244   2.883   6.218 -0.8026 -0.3222  0.0411
   77MOL    H66 9338   8.299   2.880   6.312  0.6156 -0.3726 -0.7721
   77MOL    H67 9339   8.271   2.803   6.150 -1.2619 -1.2665  0.9583
   77MOL    C68 9340   8.095   2.865   6.258 -0.2090  0.5554 -0.7631
   77MOL    F69 9341   8.066   2.962   6.337 -0.1525  0.4364 -0.5025
   77MOL    F70 9342   8.015   2.869   6.148 -0.1936  0.2077 -0.6833
   77MOL    C71 9343   8.079   2.731   6.328  0.3199 -0.3868 -0.1426
   77MOL    H72 9344   8.136   2.656   6.274  1.4867 -3.2206  4.7832
   77MOL    H73 9345   7.974   2.720   6.299  0.5169  0.8330 -1.3687
   77MOL    C74 9346   8.107   2.725   6.478 -0.3682 -0.3666  0.4657
   77MOL    F75 9347   8.242   2.756   6.502 -0.0580  0.1433 -0.3427
   77MOL    F76 9348   8.033   2.816   6.550 -0.0540 -0.0065  0.1980
   77MOL    C77 9349   8.069   2.589   6.540  0.0697 -0.5559 -0.3147
   77MOL    H78 9350   7.961   2.581   6.525  0.0011  1.8977 -1.4130
   77MOL    H79 9351   8.075   2.596   6.649 -0.4610 -0.2587 -0.3021
   77MOL    C80 9352   8.144   2.458   6.498  0.5016 -0.0434 -0.5514
   77MOL    F81 9353   8.075   2.362   6.556 -0.0469 -0.8912 -0.3379
   77MOL    F82 9354   8.127   2.433   6.369  0.1486 -0.4619  0.2858
   77MOL    C83 9355   8.294   2.476   6.535  0.1240  0.2754 -0.2095
   77MOL    H84 9356   8.296   2.531   6.629 -0.6092  0.2055 -0.1528
   77MOL    H85 9357   8.337   2.544   6.462  0.9811  0.9943  0.9337
   77MOL    C86 9358   0.043   2.352   6.536  0.4554 -0.1097 -0.1191
   77MOL    F87 9359   0.154   2.401   6.586 -0.5608  0.0277 -0.4404
   77MOL    F88 9360   8.343   2.265   6.625 -0.2488 -0.2539  0.6430
   77MOL    C89 9361   0.061   2.308   6.390  0.3597 -1.0098  1.4828
   77MOL    H90 9362   0.098   2.389   6.327 -0.3783 -0.9799  1.0791
   77MOL    H91 9363   8.314   2.288   6.345  1.5815 -2.3227 -0.6655
   77MOL    C92 9364   0.149   2.184   6.354 -0.0007 -0.3608 -0.2052
   77MOL    F93 9365   0.138   2.155   6.223 -0.4599  0.0175  0.4017
   77MOL    F94 9366   0.271   2.219   6.381 -0.3949  0.4894 -0.6102
   77MOL    C95 9367   0.120   2.059   6.432  0.1805  0.0917  0.3034
   77MOL    H96 9368   0.126   2.086   6.538 -1.0238  2.0679 -0.0880
   77MOL    H97 9369   0.200   1.990   6.411 -0.9961 -1.2052  0.0118
   77MOL    C98 9370   8.333   1.998   6.407  0.5685  0.0086  0.2061
   77MOL    F99 9371   8.334   1.894   6.497  0.2881 -0.3103 -0.1377
   77MOL   F100 9372   8.233   2.073   6.447  0.4454  0.1159 -0.3752
   77MOL   C101 9373   8.320   1.937   6.263  0.4192  1.0749  0.7239
   77MOL   H102 9374   0.053   1.866   6.267 -0.0058  0.6414  2.5125
   77MOL   H103 9375   8.343   2.002   6.179 -1.3557 -0.0353 -0.6636
   77MOL   C104 9376   8.185   1.869   6.248 -0.0874 -0.1271 -0.1798
   77MOL   F105 9377   8.163   1.769   6.338 -0.2306  0.0848  0.0570
   77MOL   F106 9378   8.085   1.957   6.252  0.0125  0.2466  0.8793
   77MOL   C107 9379   8.172   1.796   6.109  0.1172  0.3159  0.8615
   77MOL   H108 9380   8.070   1.758   6.102  0.6927 -0.7880 -2.0370
   77MOL   H109 9381   8.239   1.710   6.104 -0.5419 -0.1681  0.4403
   77MOL   C110 9382   8.195   1.886   5.992 -0.0243  0.0421  0.4395
   77MOL   F111 9383   8.148   2.014   6.004 -0.1644 -0.5778  0.2543
   77MOL   F112 9384   8.328   1.887   5.977 -0.6139 -0.1693  0.3247
   77MOL   C113 9385   8.120   1.825   5.867  0.0215 -0.1816  0.2662
   77MOL   H114 9386   8.012   1.826   5.879 -0.1184 -0.3168 -0.8840
   77MOL   H115 9387   8.157   1.724   5.850  0.4968 -0.0083  0.2682
   77MOL   C116 9388   8.154   1.896   5.735 -0.0338  0.5341  0.2802
   77MOL   F117 9389   8.058   1.868   5.651 -0.2056 -0.1971 -0.1512
   77MOL   F118 9390   8.148   2.028   5.760 -0.0874  0.1247 -0.1327
   77MOL   C119 9391   8.287   1.859   5.676  0.0023  0.5171 -0.2907
   77MOL   H120 9392   0.018   1.892   5.741 -1.4359  1.5149  1.0066
   77MOL   H121 9393   8.309   1.910   5.581 -1.5919  0.9204 -0.4558
   77MOL   H122 9394   8.292   1.753   5.652 -0.2082  0.0597  1.6115
   78MOL     C1 9395   0.929   5.148   8.019 -0.0669 -0.6256  0.5577
   78MOL     F2 9396   0.928   5.074   8.130  0.1699 -0.2608  0.4534
   78MOL     F3 9397   0.973   5.271   8.049 -0.4805 -0.4718 -0.0860
   78MOL     C4 9398   0.786   5.146   7.962  0.0051  0.2298  0.3265
   78MOL     H5 9399   0.726   5.188   8.042  0.0119  2.2427 -0.7110
   78MOL     H6 9400   0.760   5.041   7.945  0.8212  0.0190  0.3461
   78MOL     H7 9401   1.005   5.112   7.948  1.6101 -0.3028  2.1543
   78MOL     C8 9402   0.759   5.231   7.831 -0.8086  0.1396 -0.0219
   78MOL     F9 9403   0.773   5.357   7.853  0.0299  0.3541  0.3584
   78MOL    F10 9404   0.854   5.190   7.746 -0.2381 -0.1089  0.3196
   78MOL    C11 9405   0.629   5.196   7.750 -0.2720  0.3833  0.2191
   78MOL    H12 9406   0.641   5.270   7.671 -1.1716  1.1775  0.8024
   78MOL    H13 9407   0.541   5.223   7.809  0.5265 -1.4801  2.3723
   78MOL    C14 9408   0.602   5.056   7.697 -0.4228 -0.2921  0.1197
   78MOL    F15 9409   0.613   4.961   7.790  0.1559 -0.7774  0.5410
   78MOL    F16 9410   0.470   5.050   7.663 -0.1859  0.1336  0.5444
   78MOL    C17 9411   0.679   5.019   7.574  0.1471  1.0288  0.0077
   78MOL    H18 9412   0.785   5.026   7.599  0.1566 -0.5184  0.4982
   78MOL    H19 9413   0.654   5.082   7.488 -1.5495 -0.5243 -0.6696
   78MOL    C20 9414   0.648   4.873   7.517 -0.7028  0.3711 -0.4697
   78MOL    F21 9415   0.520   4.864   7.481 -0.1411  0.0135  0.1391
   78MOL    F22 9416   0.718   4.850   7.406  0.3119  0.0546 -0.1518
   78MOL    C23 9417   0.683   4.749   7.616  0.4903  0.6439 -0.6625
   78MOL    H24 9418   0.594   4.740   7.680  0.4396 -1.5274 -0.9803
   78MOL    H25 9419   0.778   4.774   7.663  0.2438 -1.4692  1.0710
   78MOL    C26 9420   0.680   4.603   7.565  0.0132 -0.9368  0.0363
   78MOL    F27 9421   0.577   4.592   7.485 -0.2573  0.4483  0.1538
   78MOL    F28 9422   0.792   4.577   7.490  0.2166 -0.4492  0.5519
   78MOL    C29 9423   0.671   4.506   7.683  0.3387  0.1384 -0.0189
   78MOL    H30 9424   0.676   4.411   7.631  0.4982  1.1789 -1.9923
   78MOL    H31 9425   0.571   4.513   7.725 -0.8145  1.7913 -2.8505
   78MOL    C32 9426   0.783   4.520   7.792 -0.5837 -0.1024  0.2285
   78MOL    F33 9427   0.779   4.393   7.842 -0.2679 -0.0756  0.0367
   78MOL    F34 9428   0.902   4.541   7.726  0.2363 -0.2273  0.0628
   78MOL    C35 9429   0.769   4.611   7.912  0.3751 -0.6712 -0.0368
   78MOL    H36 9430   0.691   4.565   7.973  0.3989  1.5648  1.7490
   78MOL    H37 9431   0.722   4.705   7.881 -1.9484 -1.7649  0.0196
   78MOL    C38 9432   0.900   4.640   7.992 -0.3244  0.0255 -0.0105
   78MOL    F39 9433   0.963   4.729   7.916  0.2737 -0.1035  0.0441
   78MOL    F40 9434   0.867   4.702   8.108  0.1023 -0.6301 -0.2645
   78MOL    C41 9435   0.986   4.513   8.029  0.1466  0.0700  0.5154
   78MOL    H42 9436   1.014   4.466   7.934  1.4144 -0.4577  1.1390
   78MOL    H43 9437   0.921   4.440   8.078 -0.0787 -2.1961 -2.9338
   78MOL    C44 9438   1.111   4.537   8.111  0.2310 -0.3280  0.0540
   78MOL    F45 9439   1.081   4.547   8.238  0.2428 -0.4217 -0.7886
   78MOL    F46 9440   1.189   4.426   8.085 -0.1444  0.5485 -0.7708
   78MOL    C47 9441   1.189   4.669   8.076 -0.5594 -0.3074  0.1874
   78MOL    H48 9442   1.129   4.754   8.108  0.3608  0.6046 -0.4733
   78MOL    H49 9443   1.192   4.668   7.967  0.3091 -0.8423  0.2055
   78MOL    C50 9444   1.334   4.690   8.130  0.2052  0.3188 -0.4532
   78MOL    F51 9445   1.327   4.656   8.258  0.0355 -0.5015  0.3984
   78MOL    F52 9446   1.416   4.615   8.068 -0.1194  0.0364 -0.3601
   78MOL    C53 9447   1.373   4.840   8.130  0.6050 -0.7062 -0.5522
   78MOL    H54 9448   1.470   4.868   8.173  0.3087  1.1604 -1.0753
   78MOL    H55 9449   1.300   4.885   8.197  0.8909 -0.8419 -0.1483
   78MOL    C56 9450   1.383   4.895   7.983  0.4144  0.3064  0.2685
   78MOL    F57 9451   1.474   4.817   7.923  0.2468  0.2777  0.2116
   78MOL    F58 9452   1.270   4.888   7.913 -0.3983 -0.7841 -0.3777
   78MOL    C59 9453   1.436   5.033   7.979  0.8057 -0.1063 -0.3451
   78MOL    H60 9454   1.447   5.049   7.871 -1.8227 -0.0095 -0.6300
   78MOL    H61 9455   1.538   5.032   8.019  0.9396 -0.5914 -0.6902
   78MOL    C62 9456   1.345   5.140   8.045 -0.0602  0.1704  0.0723
   78MOL    F63 9457   1.220   5.138   8.000  0.1451  0.3672  0.7376
   78MOL    F64 9458   1.339   5.112   8.172  0.4611 -0.7617  0.7399
   78MOL    C65 9459   1.413   5.273   8.027 -0.5369  0.2851 -0.5572
   78MOL    H66 9460   1.411   5.301   7.922  1.0946  0.9656 -0.4131
   78MOL    H67 9461   1.518   5.267   8.053 -0.9740 -2.0666  0.8367
   78MOL    C68 9462   1.348   5.390   8.114  0.5247 -0.5552  0.1603
   78MOL    F69 9463   1.417   5.496   8.080  0.2967  0.2197  0.3739
   78MOL    F70 9464   1.218   5.403   8.074 -0.3320 -0.6358 -0.0482
   78MOL    C71 9465   1.359   5.370   8.274 -0.5793 -0.3848 -0.1435
   78MOL    H72 9466   1.292   5.296   8.317  2.2305 -1.1751  2.9659
   78MOL    H73 9467   1.310   5.458   8.315  0.9573 -0.2098  1.3440
   78MOL    C74 9468   1.500   5.347   8.335  0.5549 -0.2398  0.3300
   78MOL    F75 9469   1.528   5.218   8.312  0.0748  0.3044 -0.9100
   78MOL    F76 9470   1.583   5.426   8.273  0.1061  0.2711 -0.5488
   78MOL    C77 9471   1.517   5.363   0.133 -0.2838 -0.6804  0.5175
   78MOL    H78 9472   1.436   5.299   0.168 -0.7191 -1.4611 -1.8549
   78MOL    H79 9473   1.486   5.460   0.172  0.4732 -1.2706  2.6731
   78MOL    C80 9474   1.657   5.331   0.198  0.5647  0.7243 -0.1682
   78MOL    F81 9475   1.633   5.368   0.322 -0.4288  0.8679  0.3336
   78MOL    F82 9476   1.672   5.198   0.184  0.5389 -0.0419  0.2074
   78MOL    C83 9477   1.770   5.418   0.151 -0.4859 -0.3385 -0.2209
   78MOL    H84 9478   1.728   5.516   0.172 -0.5547 -0.1635 -1.1565
   78MOL    H85 9479   1.781   5.419   0.043  1.0062 -0.5787 -0.0861
   78MOL    C86 9480   1.913   5.404   0.216 -0.2938  0.1557  0.7424
   78MOL    F87 9481   1.954   5.284   0.181  0.3449 -0.1695  0.0981
   78MOL    F88 9482   1.990   5.498   0.164 -0.5579  0.2159  0.1229
   78MOL    C89 9483   1.916   5.429   0.367 -0.4284  0.0274 -0.0700
   78MOL    H90 9484   1.866   5.344   0.413 -0.9311  1.8418  2.8831
   78MOL    H91 9485   1.854   5.517   0.385 -0.9061  0.4667 -3.4319
   78MOL    C92 9486   2.054   5.440   0.437 -0.9879 -0.6633  0.3544
   78MOL    F93 9487   2.105   5.558   0.402 -0.5825  0.5710 -0.2267
   78MOL    F94 9488   2.031   5.437   0.569 -0.0511  0.0398  0.4444
   78MOL    C95 9489   2.148   5.331   0.400 -0.0431 -0.9053  0.6325
   78MOL    H96 9490   2.179   5.339   0.296 -1.8988 -0.6088  0.0875
   78MOL    H97 9491   2.091   5.238   0.409 -1.5305  0.0590  1.3453
   78MOL    C98 9492   2.278   5.343   0.491 -0.3761 -0.3982 -0.5881
   78MOL    F99 9493   2.336   5.462   0.464 -0.0335 -0.2828  0.2182
   78MOL   F100 9494   2.253   5.319   0.622  0.0966 -0.8636  0.0614
   78MOL   C101 9495   2.380   5.235   0.438  0.2610 -0.5347 -0.2850
   78MOL   H102 9496   2.468   5.233   0.502  0.4097  0.8552 -0.4508
   78MOL   H103 9497   2.404   5.260   0.335  0.3684  1.5513  0.2362
   78MOL   C104 9498   2.330   5.088   0.439 -0.0851 -0.4716  1.1210
   78MOL   F105 9499   2.296   5.067   0.567  0.0604  0.2487  0.3151
   78MOL   F106 9500   2.228   5.068   0.354  0.0144  0.2472 -0.0422
   78MOL   C107 9501   2.446   4.985   0.406 -0.4919  0.4782 -0.3384
   78MOL   H108 9502   2.404   4.887   0.431 -0.3424  0.8537  1.4441
   78MOL   H109 9503   2.518   4.992   0.487 -0.3957  0.5713 -0.4323
   78MOL   C110 9504   2.515   5.001   0.269  0.2733  0.2081  0.2770
   78MOL   F111 9505   2.422   5.004   0.181 -0.7895 -0.6869  0.1656
   78MOL   F112 9506   2.576   5.117   0.276  0.4015  0.3964 -0.2672
   78MOL   C113 9507   2.608   4.879   0.221 -0.1169  0.5062  0.1076
   78MOL   H114 9508   2.559   4.782   0.217 -0.5597  0.7217  0.2628
   78MOL   H115 9509   2.683   4.879   0.300  1.1949 -1.1092 -1.0851
   78MOL   C116 9510   2.660   4.892   0.078  0.4517  0.5407  0.6983
   78MOL   F117 9511   2.716   4.775   0.052 -0.3951  0.1561  0.5204
   78MOL   F118 9512   2.561   4.910   8.344  0.6903 -0.2902 -0.2058
   78MOL   C119 9513   2.770   4.997   0.061  0.2190 -0.6102  0.4082
   78MOL   H120 9514   2.815   4.991   8.312  1.0339 -1.9161  0.8544
   78MOL   H121 9515   2.844   4.981   0.139  2.3082 -2.3515 -1.8777
   78MOL   H122 9516   2.719   5.092   0.077  2.2408  0.5341  0.1935
   79MOL     C1 9517   4.600   2.698   4.505  0.0547  0.0231 -1.0010
   79MOL     F2 9518   4.637   2.822   4.477 -0.3889 -0.5320 -0.0707
   79MOL     F3 9519   4.574   2.635   4.393 -0.4593 -0.8881  0.1160
   79MOL     C4 9520   4.470   2.699   4.587  0.0074  0.0375  0.5570
   79MOL     H5 9521   4.437   2.600   4.617 -1.6379 -0.0593 -1.5138
   79MOL     H6 9522   4.392   2.737   4.521 -1.3703 -0.7561  1.7181
   79MOL     H7 9523   4.688   2.645   4.542  0.8413  1.6640 -0.4678
   79MOL     C8 9524   4.466   2.785   4.715 -0.1173  0.6995  0.0219
   79MOL     F9 9525   4.576   2.744   4.785  0.1659 -0.6757 -0.4943
   79MOL    F10 9526   4.481   2.909   4.675  0.3952 -0.7239 -0.5876
   79MOL    C11 9527   4.334   2.760   4.784 -0.7233 -0.1100 -0.1478
   79MOL    H12 9528   4.327   2.661   4.830 -1.5610  0.0842  0.1512
   79MOL    H13 9529   4.248   2.754   4.718 -0.6474 -1.2064 -0.1569
   79MOL    C14 9530   4.304   2.851   4.910  0.6557 -0.0032 -0.2162
   79MOL    F15 9531   4.186   2.827   4.960  0.1705 -0.2767 -0.0722
   79MOL    F16 9532   4.393   2.814   5.006 -0.5294 -0.1596  0.6011
   79MOL    C17 9533   4.322   3.006   4.893  0.2821 -0.1160 -0.4026
   79MOL    H18 9534   4.422   3.032   4.858 -0.3520  1.6180 -0.9876
   79MOL    H19 9535   4.309   3.062   4.986  0.6404  0.5303 -0.7405
   79MOL    C20 9536   4.225   3.078   4.796  0.0125  0.1652 -0.2162
   79MOL    F21 9537   4.233   3.013   4.681 -0.1478 -0.0816 -0.4795
   79MOL    F22 9538   4.095   3.077   4.829 -0.2336  0.0595 -0.2991
   79MOL    C23 9539   4.270   3.220   4.773 -0.7882 -0.5296  0.1477
   79MOL    H24 9540   4.206   3.253   4.691 -1.6641  2.4277  1.9523
   79MOL    H25 9541   4.373   3.227   4.740 -1.6069 -0.2831 -2.4009
   79MOL    C26 9542   4.238   3.323   4.888 -0.1788  0.7079  0.2561
   79MOL    F27 9543   4.111   3.313   4.924 -0.2017 -0.1334 -0.2129
   79MOL    F28 9544   4.316   3.299   4.996 -0.1199  0.3747  0.3146
   79MOL    C29 9545   4.278   3.464   4.846 -0.0105 -0.0592  0.8189
   79MOL    H30 9546   4.387   3.465   4.839 -0.0980  1.7133 -0.7692
   79MOL    H31 9547   4.259   3.529   4.931 -2.5802 -0.2198  0.4088
   79MOL    C32 9548   4.214   3.536   4.729 -0.5894  0.2753  0.5049
   79MOL    F33 9549   4.240   3.465   4.619  0.6217  0.7867 -0.2476
   79MOL    F34 9550   4.085   3.563   4.738  0.5252 -0.0870 -0.2535
   79MOL    C35 9551   4.288   3.668   4.716  0.1042 -0.2277 -0.6286
   79MOL    H36 9552   4.395   3.648   4.717 -0.3886 -3.1961  2.0593
   79MOL    H37 9553   4.261   3.731   4.801  1.5994 -0.0803 -0.2428
   79MOL    C38 9554   4.269   3.755   4.590 -0.0022 -0.0321  0.1735
   79MOL    F39 9555   4.138   3.766   4.572 -0.4062 -0.1413  0.1378
   79MOL    F40 9556   4.321   3.876   4.619  0.3638  0.4834  0.2545
   79MOL    C41 9557   4.328   3.680   4.472 -0.5556  0.2255  0.0095
   79MOL    H42 9558   4.250   3.637   4.411 -1.6083  0.0755  1.4312
   79MOL    H43 9559   4.384   3.589   4.496 -1.7675 -1.1416 -2.2445
   79MOL    C44 9560   4.431   3.757   4.388  0.6924 -0.5239  0.2672
   79MOL    F45 9561   4.459   3.671   4.286 -0.0417  0.3280 -0.4053
   79MOL    F46 9562   4.370   3.864   4.352  0.3620 -0.1559 -0.1638
   79MOL    C47 9563   4.567   3.791   4.448 -0.8059 -0.5670 -0.1292
   79MOL    H48 9564   4.616   3.704   4.492 -2.3094 -1.0090  0.6909
   79MOL    H49 9565   4.539   3.854   4.533 -0.4258 -2.1354  1.1907
   79MOL    C50 9566   4.682   3.863   4.367 -0.2640 -0.3742  0.1521
   79MOL    F51 9567   4.722   3.778   4.272  0.3920  0.6367 -0.1200
   79MOL    F52 9568   4.637   3.968   4.303 -0.1837  0.1024 -0.1186
   79MOL    C53 9569   4.804   3.926   4.442  0.6698  0.3963  0.7551
   79MOL    H54 9570   4.761   4.017   4.484 -0.9167  0.3152 -0.6284
   79MOL    H55 9571   4.876   3.963   4.369  0.2123 -1.0741 -0.4602
   79MOL    C56 9572   4.884   3.838   4.541 -0.2304 -0.6277  0.2327
   79MOL    F57 9573   4.808   3.812   4.643 -0.2267 -0.2618  0.4968
   79MOL    F58 9574   4.907   3.723   4.481 -0.8079  0.0980  0.0459
   79MOL    C59 9575   5.014   3.888   4.601 -0.3597 -0.3337  0.1107
   79MOL    H60 9576   4.993   3.991   4.630  1.5253  0.7207 -2.1159
   79MOL    H61 9577   5.082   3.887   4.516 -1.4621 -1.3726 -0.7907
   79MOL    C62 9578   5.069   3.818   4.721 -0.4054 -0.1013 -0.4121
   79MOL    F63 9579   5.000   3.843   4.829 -0.0232  0.1511 -0.0528
   79MOL    F64 9580   5.062   3.690   4.688 -0.2384 -0.3584 -0.7177
   79MOL    C65 9581   5.221   3.858   4.751  0.6188 -0.2791 -1.1788
   79MOL    H66 9582   5.278   3.818   4.667  3.5409 -0.0650  0.6405
   79MOL    H67 9583   5.244   3.809   4.846  2.7649 -0.9989 -2.0521
   79MOL    C68 9584   5.255   4.008   4.758  0.4476  0.1047  0.2012
   79MOL    F69 9585   5.227   4.070   4.642  0.0009  0.2538  0.1736
   79MOL    F70 9586   5.176   4.061   4.856  0.4967  0.2999  0.5814
   79MOL    C71 9587   5.407   4.036   4.793 -0.2745  0.1664  0.1571
   79MOL    H72 9588   5.426   3.992   4.891  2.7676  0.1076 -0.4107
   79MOL    H73 9589   5.420   4.144   4.805 -0.2451  0.4153 -1.9856
   79MOL    C74 9590   5.508   3.968   4.696 -0.3319  0.3576 -0.0840
   79MOL    F75 9591   5.503   3.836   4.738 -0.2503  0.2605 -0.7816
   79MOL    F76 9592   5.470   3.967   4.568  0.8814 -0.3034 -0.4604
   79MOL    C77 9593   5.646   4.033   4.698 -0.1090 -0.1573  0.4015
   79MOL    H78 9594   5.687   3.997   4.792 -0.0337 -0.2870  0.3211
   79MOL    H79 9595   5.634   4.141   4.697 -2.4452 -0.3926  0.0614
   79MOL    C80 9596   5.747   3.982   4.589  0.0035 -0.4827  0.2193
   79MOL    F81 9597   5.727   4.037   4.470  0.2533  0.0577  0.5341
   79MOL    F82 9598   5.871   4.024   4.618  0.2459  0.0624  0.4060
   79MOL    C83 9599   5.760   3.822   4.577 -0.1547 -0.0715  0.6398
   79MOL    H84 9600   5.672   3.782   4.527 -1.9891  1.3408  2.6965
   79MOL    H85 9601   5.760   3.782   4.678 -1.6431 -0.1567  0.6082
   79MOL    C86 9602   5.890   3.767   4.513 -0.7605 -0.3150 -0.8173
   79MOL    F87 9603   5.984   3.803   4.596  0.3622 -0.0140 -0.6155
   79MOL    F88 9604   5.904   3.631   4.513 -0.2948  0.1499 -0.6185
   79MOL    C89 9605   5.906   3.823   4.374 -0.2003 -0.0490  0.0606
   79MOL    H90 9606   5.997   3.780   4.331  0.0668  0.8190 -0.2676
   79MOL    H91 9607   5.924   3.930   4.382  3.8142 -0.6168 -0.0115
   79MOL    C92 9608   5.791   3.796   4.256  0.5882  0.7986 -0.6699
   79MOL    F93 9609   5.678   3.860   4.304  0.6351 -0.2750 -0.2240
   79MOL    F94 9610   5.824   3.853   4.143 -0.1309  0.1703 -0.3193
   79MOL    C95 9611   5.775   3.644   4.248 -0.2188 -0.5188  0.4650
   79MOL    H96 9612   5.758   3.610   4.350 -0.9599 -1.4278  0.0417
   79MOL    H97 9613   5.863   3.588   4.213  1.4966  2.1999  0.2758
   79MOL    C98 9614   5.655   3.610   4.152 -0.4627  0.6329 -0.4911
   79MOL    F99 9615   5.548   3.661   4.209 -0.3912  0.5195  0.2639
   79MOL   F100 9616   5.661   3.662   4.026 -0.0705  0.3328  0.1176
   79MOL   C101 9617   5.631   3.459   4.137  0.2046 -0.1723  0.1742
   79MOL   H102 9618   5.614   3.416   4.236 -0.3214 -0.2347  0.0591
   79MOL   H103 9619   5.720   3.411   4.097 -0.7018 -3.1356  1.5310
   79MOL   C104 9620   5.530   3.407   4.027 -0.0876  0.3450 -0.5126
   79MOL   F105 9621   5.560   3.444   3.903  0.1682  0.2513  0.1485
   79MOL   F106 9622   5.533   3.271   4.028 -0.3242  0.1623 -0.1992
   79MOL   C107 9623   5.381   3.457   4.037 -0.3879  0.5875 -0.3936
   79MOL   H108 9624   5.319   3.399   3.968 -1.4788  1.7082 -0.3768
   79MOL   H109 9625   5.379   3.554   3.986  2.2404  1.0810  0.3919
   79MOL   C110 9626   5.318   3.438   4.179 -0.1409  0.1183 -0.3197
   79MOL   F111 9627   5.329   3.304   4.201  0.0696  0.2342  0.2749
   79MOL   F112 9628   5.390   3.494   4.277  0.2346 -0.1153 -0.1451
   79MOL   C113 9629   5.168   3.474   4.184 -0.0468 -0.7180  0.7480
   79MOL   H114 9630   5.127   3.430   4.275 -1.3069 -0.0183  0.5327
   79MOL   H115 9631   5.100   3.426   4.115 -0.9164 -1.1143  1.8542
   79MOL   C116 9632   5.134   3.625   4.174  0.1183  1.0514  0.3345
   79MOL   F117 9633   5.158   3.663   4.056  0.3573  0.2206  0.1341
   79MOL   F118 9634   5.005   3.630   4.184 -0.2435  0.4000 -0.4932
   79MOL   C119 9635   5.196   3.724   4.275  0.0820  0.7828 -0.0615
   79MOL   H120 9636   5.299   3.742   4.244 -0.4139 -1.0470 -3.0133
   79MOL   H121 9637   5.201   3.686   4.377  1.5694  0.5396 -0.2087
   79MOL   H122 9638   5.145   3.820   4.272  0.3633  0.8969 -1.4011
   80MOL     C1 9639   4.476   0.583   4.744 -0.4892 -0.4160  0.3495
   80MOL     F2 9640   4.520   0.672   4.650 -0.0254  0.1475 -0.0280
   80MOL     F3 9641   4.544   0.590   4.862  0.1413  0.2621 -0.2300
   80MOL     C4 9642   4.479   0.438   4.694 -0.2520 -0.0826 -0.3022
   80MOL     H5 9643   4.474   0.374   4.782  1.4930  1.1976  0.7781
   80MOL     H6 9644   4.576   0.428   4.645  0.9363  1.2902  1.7078
   80MOL     H7 9645   4.372   0.613   4.763 -0.3658 -0.9833  2.0239
   80MOL     C8 9646   4.376   0.412   4.578  0.0699  0.5683 -0.1890
   80MOL     F9 9647   4.250   0.427   4.627  0.1574 -0.0596  0.1581
   80MOL    F10 9648   4.402   0.511   4.489  0.1382  0.4239 -0.7474
   80MOL    C11 9649   4.405   0.277   4.499  0.0970 -0.6430  0.6744
   80MOL    H12 9650   4.410   0.188   4.561 -1.4081 -1.0651  0.2286
   80MOL    H13 9651   4.501   0.287   4.448  0.5814 -2.3058  1.2480
   80MOL    C14 9652   4.295   0.256   4.391  0.0328  0.1074 -0.6876
   80MOL    F15 9653   4.182   0.240   4.463  0.2622 -0.3634 -0.4611
   80MOL    F16 9654   4.281   0.357   4.302 -0.0470  0.2634 -0.2109
   80MOL    C17 9655   4.325   0.130   4.310 -0.1054  0.1673  0.9928
   80MOL    H18 9656   4.354   0.054   4.384  0.4693 -0.8015 -0.2072
   80MOL    H19 9657   4.416   0.140   4.251 -1.1805 -2.6842 -1.3001
   80MOL    C20 9658   4.217   0.090   4.207 -0.9055 -0.4552  0.0147
   80MOL    F21 9659   4.107   0.059   4.275  0.2294  0.4649  0.0630
   80MOL    F22 9660   4.191   0.182   4.117  0.4968  0.2892 -0.0826
   80MOL    C23 9661   4.248   8.303   4.136 -0.7386 -0.7995  0.0431
   80MOL    H24 9662   4.305   8.315   4.044  0.9283  0.8696  1.2491
   80MOL    H25 9663   4.159   8.258   4.092 -1.4546 -1.0782  1.7555
   80MOL    C26 9664   4.312   8.191   4.225 -0.3767  0.0414  0.2064
   80MOL    F27 9665   4.436   8.226   4.261 -0.1103  0.3403  0.2471
   80MOL    F28 9666   4.243   8.175   4.342 -1.0034  0.0800  0.4189
   80MOL    C29 9667   4.324   8.052   4.148  0.3692 -0.5221  0.3021
   80MOL    H30 9668   4.377   8.065   4.054 -2.4252 -0.5901 -1.3118
   80MOL    H31 9669   4.225   8.017   4.119 -0.4784  2.2369 -0.2908
   80MOL    C32 9670   4.399   7.946   4.223  0.7582 -0.0630 -0.2946
   80MOL    F33 9671   4.521   7.981   4.250  0.0205 -0.1911  0.3410
   80MOL    F34 9672   4.335   7.917   4.345 -0.7525 -0.4123  0.3022
   80MOL    C35 9673   4.402   7.823   4.137  0.3648  0.1737  0.1962
   80MOL    H36 9674   4.428   7.854   4.036  1.0161 -0.4449  0.1735
   80MOL    H37 9675   4.301   7.782   4.129  1.0118 -1.1589 -1.5210
   80MOL    C38 9676   4.502   7.719   4.188  0.3732  0.4184  0.2015
   80MOL    F39 9677   4.623   7.752   4.146  0.5830  0.3610  0.2380
   80MOL    F40 9678   4.513   7.715   4.316 -0.2887 -0.2584  0.6094
   80MOL    C41 9679   4.474   7.575   4.138 -0.0223 -0.4488 -0.2566
   80MOL    H42 9680   4.562   7.525   4.178 -1.0621  0.6403  3.5761
   80MOL    H43 9681   4.479   7.574   4.029  0.9557  0.4083 -0.2224
   80MOL    C44 9682   4.341   7.509   4.197  0.4803 -0.0861  0.5092
   80MOL    F45 9683   4.350   7.492   4.319 -0.5194  0.0208  0.2005
   80MOL    F46 9684   4.236   7.581   4.176  0.0754 -0.2646 -0.1460
   80MOL    C47 9685   4.311   7.368   4.140  0.2696  0.9279 -0.5792
   80MOL    H48 9686   4.285   7.383   4.035 -0.0002  1.1717 -0.4787
   80MOL    H49 9687   4.222   7.338   4.195  0.0415  1.7878 -0.4722
   80MOL    C50 9688   4.414   7.263   4.147 -0.1384 -1.1001  0.4753
   80MOL    F51 9689   4.355   7.163   4.091  0.1487  0.8421 -0.2853
   80MOL    F52 9690   4.520   7.295   4.073  0.4325 -0.1304  0.5724
   80MOL    C53 9691   4.452   7.229   4.288 -0.2250 -0.3370  1.2555
   80MOL    H54 9692   4.370   7.227   4.360  0.2975  0.5600  1.8868
   80MOL    H55 9693   4.510   7.316   4.318  0.4148  0.1693 -1.3252
   80MOL    C56 9694   4.544   7.106   4.295  0.6785 -0.5765 -0.2062
   80MOL    F57 9695   4.570   7.088   4.421  0.1396  0.3204  0.4986
   80MOL    F58 9696   4.478   6.996   4.257 -0.4981 -0.6773 -0.0008
   80MOL    C59 9697   4.675   7.108   4.221 -0.3205 -0.0162  0.0551
   80MOL    H60 9698   4.656   7.104   4.114  1.2580 -0.1599 -0.2361
   80MOL    H61 9699   4.721   7.011   4.240 -1.3066 -0.5302 -0.1411
   80MOL    C62 9700   4.780   7.219   4.257 -0.4060  0.9644 -0.6569
   80MOL    F63 9701   4.721   7.339   4.237 -1.1236  0.6427 -0.2398
   80MOL    F64 9702   4.814   7.201   4.387  0.3231 -0.1255  0.5845
   80MOL    C65 9703   4.905   7.220   4.164  0.0386  0.2611 -0.0240
   80MOL    H66 9704   4.960   7.129   4.188  2.6174  1.7298 -0.1355
   80MOL    H67 9705   4.965   7.303   4.203  2.8253 -0.0776 -3.3905
   80MOL    C68 9706   4.881   7.237   4.013 -0.2918  0.6197  0.4131
   80MOL    F69 9707   4.839   7.122   3.957  0.0003  0.2476  0.0827
   80MOL    F70 9708   4.794   7.324   3.974 -0.7071  0.7534  0.1028
   80MOL    C71 9709   5.018   7.278   3.941 -0.0234  0.8082 -0.0944
   80MOL    H72 9710   4.998   7.252   3.837 -2.0058  0.6729  0.2955
   80MOL    H73 9711   5.105   7.218   3.967  1.0488  1.8410 -1.1897
   80MOL    C74 9712   5.066   7.427   3.956  0.0640  0.3384  0.0367
   80MOL    F75 9713   5.082   7.454   4.084  0.0320  0.0257 -0.0138
   80MOL    F76 9714   5.180   7.436   3.886 -0.3539 -0.2606 -0.1847
   80MOL    C77 9715   4.967   7.525   3.888 -0.5900  0.1680  0.7593
   80MOL    H78 9716   4.883   7.532   3.957 -1.1719  1.3812 -0.0575
   80MOL    H79 9717   4.944   7.481   3.792 -0.2202 -0.5842  1.0125
   80MOL    C80 9718   5.019   7.669   3.865  0.3441  0.3813  0.2403
   80MOL    F81 9719   5.066   7.722   3.978 -0.2955  0.1790 -0.2173
   80MOL    F82 9720   5.118   7.664   3.781 -0.3920 -0.6370  0.6838
   80MOL    C83 9721   4.902   7.752   3.804  0.5020 -1.1146 -0.3478
   80MOL    H84 9722   4.823   7.768   3.878 -0.9680 -2.1289 -1.6636
   80MOL    H85 9723   4.855   7.700   3.720 -0.5119 -0.3024 -0.2989
   80MOL    C86 9724   4.921   7.892   3.744 -0.2297 -0.4449 -0.5324
   80MOL    F87 9725   4.993   7.976   3.819  0.2180 -0.0996  0.0907
   80MOL    F88 9726   4.980   7.887   3.629 -0.6247  0.5760  0.0348
   80MOL    C89 9727   4.779   7.958   3.705  0.1662 -1.1507 -0.3211
   80MOL    H90 9728   4.814   8.048   3.655  1.3685 -1.9515 -0.9526
   80MOL    H91 9729   4.717   7.991   3.788  0.4237  0.0219 -0.5788
   80MOL    C92 9730   4.690   7.867   3.616 -0.2989  0.1352 -0.9228
   80MOL    F93 9731   4.759   7.801   3.527 -0.0054 -0.3142 -0.0524
   80MOL    F94 9732   4.644   7.767   3.693  0.4144  0.4126  0.4352
   80MOL    C95 9733   4.574   7.949   3.554 -0.0115  0.4746 -0.0912
   80MOL    H96 9734   4.501   7.882   3.509 -1.0551  1.6877 -0.2352
   80MOL    H97 9735   4.620   7.998   3.469 -0.5494  1.2855  0.0752
   80MOL    C98 9736   4.490   8.058   3.633  0.4640  0.1685 -0.0345
   80MOL    F99 9737   4.440   7.998   3.746  0.0026  0.1222  0.0911
   80MOL   F100 9738   4.566   8.155   3.680  0.0561 -0.6901 -0.8275
   80MOL   C101 9739   4.370   8.125   3.561 -0.8729 -0.1825 -0.1436
   80MOL   H102 9740   4.337   8.195   3.637 -0.7236  1.5298 -1.6202
   80MOL   H103 9741   4.292   8.050   3.546 -0.1859 -1.0724  0.6689
   80MOL   C104 9742   4.401   8.189   3.421  0.0357  0.4945 -0.4443
   80MOL   F105 9743   4.501   8.275   3.407  0.0167 -0.2346 -0.3442
   80MOL   F106 9744   4.417   8.098   3.325  0.3100  0.1531 -0.2187
   80MOL   C107 9745   4.274   8.268   3.376 -0.4573 -0.6265 -0.1648
   80MOL   H108 9746   4.258   8.340   3.456  0.0208 -1.3356  0.5789
   80MOL   H109 9747   4.187   8.204   3.363 -0.2736 -0.7130 -0.9644
   80MOL   C110 9748   4.287   8.344   3.243 -0.4151  1.0448 -0.2389
   80MOL   F111 9749   4.398   0.062   3.244 -0.2782 -0.6436  0.3434
   80MOL   F112 9750   4.305   8.252   3.145 -0.1789 -0.4246 -0.3119
   80MOL   C113 9751   4.171   0.085   3.215  0.0549  0.4062  0.3728
   80MOL   H114 9752   4.141   0.153   3.295 -0.3305  1.0888 -0.3347
   80MOL   H115 9753   4.082   0.024   3.202 -0.6582  1.4780  0.1996
   80MOL   C116 9754   4.191   0.159   3.079  0.1647  0.2371 -0.2694
   80MOL   F117 9755   4.316   0.194   3.057 -0.2209  0.0754 -0.2773
   80MOL   F118 9756   4.151   0.076   2.982  0.0604 -0.1074 -0.0247
   80MOL   C119 9757   4.103   0.292   3.068  0.2257  0.8661  0.8261
   80MOL   H120 9758   4.101   0.339   2.970 -0.0713 -3.6727 -1.4884
   80MOL   H121 9759   4.137   0.361   3.145  0.4825 -0.9144  2.3670
   80MOL   H122 9760   4.000   0.264   3.093 -0.1196  0.9429 -0.4857
   81MOL     C1 9761   1.988   8.102   3.049 -0.0623 -0.1075  0.3538
   81MOL     F2 9762   2.058   8.082   3.154  0.4010  0.1561 -0.5966
   81MOL     F3 9763   2.075   8.135   2.951 -1.2854 -0.2810 -0.4408
   81MOL     C4 9764   1.899   8.221   3.066  0.3238 -0.5401  0.3666
   81MOL     H5 9765   1.952   8.314   3.087 -0.2020 -0.2151  0.2427
   81MOL     H6 9766   1.844   8.203   3.159  1.5687  0.1339  1.2513
   81MOL     H7 9767   1.945   8.008   3.016  1.7069 -0.9560  0.4148
   81MOL     C8 9768   1.801   8.245   2.951 -0.7510  0.0868  0.6363
   81MOL     F9 9769   1.748   8.131   2.927  0.1370 -0.3379  0.2217
   81MOL    F10 9770   1.697   8.314   2.998  0.0014 -0.3173 -0.4479
   81MOL    C11 9771   1.856   8.303   2.810 -0.3510  0.0406  0.7046
   81MOL    H12 9772   1.767   8.330   2.754 -1.1819  2.5510  3.1492
   81MOL    H13 9773   1.917   8.225   2.763  0.9071  1.8398 -0.7141
   81MOL    C14 9774   1.925   0.089   2.812  0.8604 -0.4903 -0.2010
   81MOL    F15 9775   1.845   0.172   2.882  0.3981 -0.6351  0.5190
   81MOL    F16 9776   2.040   0.085   2.877 -0.0171  0.0751 -0.2965
   81MOL    C17 9777   1.940   0.158   2.675  0.9032  0.2019 -0.0331
   81MOL    H18 9778   1.982   0.257   2.690 -2.3434  1.2265  3.1107
   81MOL    H19 9779   1.839   0.180   2.640  0.2578 -1.5344  0.6753
   81MOL    C20 9780   2.032   0.098   2.571 -0.1402 -0.5507  0.5205
   81MOL    F21 9781   2.150   0.092   2.633 -0.2521  0.5165 -0.6441
   81MOL    F22 9782   1.998   8.333   2.525 -0.2964 -0.1238 -0.1294
   81MOL    C23 9783   2.046   0.193   2.448 -0.3289 -0.0068 -0.1596
   81MOL    H24 9784   2.057   0.295   2.484  1.5784  0.1709 -1.2322
   81MOL    H25 9785   1.944   0.196   2.408 -0.1012 -0.4685 -0.7925
   81MOL    C26 9786   2.148   0.148   2.339  0.0688 -1.0060 -1.0748
   81MOL    F27 9787   2.268   0.156   2.393 -0.1914 -0.4097  0.4071
   81MOL    F28 9788   2.120   0.023   2.303 -0.3365  0.2172 -0.0423
   81MOL    C29 9789   2.131   0.242   2.219 -0.0157  0.0593 -0.6906
   81MOL    H30 9790   2.102   0.342   2.252  1.1329 -0.5905  2.4916
   81MOL    H31 9791   2.039   0.225   2.162 -0.7077  0.3991  0.3042
   81MOL    C32 9792   2.246   0.263   2.119 -0.2375  0.2801 -0.4190
   81MOL    F33 9793   2.199   0.342   2.016 -0.5293  0.4280 -0.4645
   81MOL    F34 9794   2.341   0.324   2.188 -0.3893 -0.2356 -0.5174
   81MOL    C35 9795   2.293   0.135   2.052 -0.2882 -0.1738  0.2571
   81MOL    H36 9796   2.205   0.084   2.013  1.0701 -1.3770 -1.2853
   81MOL    H37 9797   2.325   0.071   2.133  0.1789  0.2375  0.3997
   81MOL    C38 9798   2.389   0.156   1.937  0.2869 -0.1286 -0.5480
   81MOL    F39 9799   2.318   0.208   1.830 -0.1559  0.1956 -0.0895
   81MOL    F40 9800   2.487   0.236   1.968  0.1833 -0.0631  0.3622
   81MOL    C41 9801   2.451   0.018   1.884  0.9247 -0.2608  0.2781
   81MOL    H42 9802   2.364   8.304   1.876  0.1192  1.2379 -3.9591
   81MOL    H43 9803   2.514   8.318   1.958  0.1069 -1.7611 -0.0247
   81MOL    C44 9804   2.530   0.025   1.746  0.0642 -0.3632 -0.6596
   81MOL    F45 9805   2.444   0.058   1.652  0.3758  0.1083  0.2987
   81MOL    F46 9806   2.619   0.129   1.758 -0.0938  0.3298 -0.0850
   81MOL    C47 9807   2.606   8.250   1.702  0.4720 -0.0148  0.2061
   81MOL    H48 9808   2.697   8.239   1.761  1.8839  3.9651 -1.0465
   81MOL    H49 9809   2.647   8.271   1.604  1.1408 -1.5400  0.1451
   81MOL    C50 9810   2.519   8.120   1.721 -0.0491 -0.4242 -0.2955
   81MOL    F51 9811   2.603   8.027   1.692  0.0843 -0.0902 -0.6201
   81MOL    F52 9812   2.497   8.095   1.850 -0.6583  0.2658 -0.3807
   81MOL    C53 9813   2.386   8.110   1.655  1.1351 -0.3146 -1.1547
   81MOL    H54 9814   2.390   8.144   1.552  0.1274 -0.0117 -1.0979
   81MOL    H55 9815   2.319   8.181   1.703  0.7238  0.2926 -2.6077
   81MOL    C56 9816   2.319   7.969   1.646 -0.1439 -0.0348 -0.6982
   81MOL    F57 9817   2.211   7.968   1.560 -0.0526  0.3383  0.1064
   81MOL    F58 9818   2.407   7.886   1.599  0.0508 -0.2770 -0.1445
   81MOL    C59 9819   2.282   7.902   1.784  0.1225 -0.8583 -0.0362
   81MOL    H60 9820   2.368   7.898   1.850  1.0593 -0.4236 -1.2015
   81MOL    H61 9821   2.248   7.800   1.765 -0.9315 -0.0486 -2.7077
   81MOL    C62 9822   2.166   7.981   1.848  0.5293  0.3945 -0.1577
   81MOL    F63 9823   2.210   8.095   1.897  0.0097 -0.2530  0.0833
   81MOL    F64 9824   2.062   8.011   1.768 -0.1512  0.0355 -0.2168
   81MOL    C65 9825   2.108   7.899   1.968 -0.2773 -0.8405 -0.3061
   81MOL    H66 9826   2.186   7.844   2.020 -0.9384 -1.1807  0.3309
   81MOL    H67 9827   2.062   7.811   1.924  1.1985 -1.8347  0.0700
   81MOL    C68 9828   2.022   7.973   2.063  0.3702  0.8961 -0.9217
   81MOL    F69 9829   1.938   8.039   1.987  0.4709 -0.0165  0.0474
   81MOL    F70 9830   1.940   7.890   2.130  0.0277 -0.1260  0.3350
   81MOL    C71 9831   2.085   8.076   2.163 -0.0114 -0.4474 -0.8163
   81MOL    H72 9832   2.007   8.102   2.235 -0.1319 -0.5622 -0.9056
   81MOL    H73 9833   2.111   8.163   2.103 -1.4048 -0.2615 -1.1707
   81MOL    C74 9834   2.208   8.017   2.239 -0.0582  0.9215  0.1384
   81MOL    F75 9835   2.178   7.897   2.276  0.3372 -0.7564 -0.4452
   81MOL    F76 9836   2.311   8.013   2.154  0.2766 -0.3132 -0.7544
   81MOL    C77 9837   2.238   8.101   2.367 -1.0713  0.0374  0.7211
   81MOL    H78 9838   2.150   8.113   2.430 -0.5760 -1.8494  1.8101
   81MOL    H79 9839   2.256   8.201   2.327 -1.2428  0.1902  1.0269
   81MOL    C80 9840   2.352   8.060   2.462  0.2183  0.1308 -0.1967
   81MOL    F81 9841   2.352   8.150   2.566 -0.0727 -0.1054  0.1839
   81MOL    F82 9842   2.341   7.942   2.519  0.4260 -0.3632 -0.0890
   81MOL    C83 9843   2.500   8.073   2.397  0.9517 -0.0652 -1.0016
   81MOL    H84 9844   2.496   7.986   2.332 -2.7839  1.2005 -2.6200
   81MOL    H85 9845   2.564   8.044   2.480 -0.5010  0.4445  0.3285
   81MOL    C86 9846   2.541   8.206   2.329  0.2380  0.5440  0.0256
   81MOL    F87 9847   2.458   8.222   2.228  0.2336  0.4193  0.4162
   81MOL    F88 9848   2.524   8.302   2.417 -0.2185  0.5347  0.4903
   81MOL    C89 9849   2.682   8.227   2.286  0.4043  1.1383  0.4967
   81MOL    H90 9850   2.747   8.237   2.372 -0.2506 -0.7164  1.2387
   81MOL    H91 9851   2.687   8.324   2.236  1.7613  0.5697 -0.5182
   81MOL    C92 9852   2.746   8.121   2.191 -0.5268 -1.0784 -0.7057
   81MOL    F93 9853   2.724   8.000   2.238 -0.2997  0.7483  0.1878
   81MOL    F94 9854   2.674   8.123   2.081 -0.0562 -0.5406  0.2410
   81MOL    C95 9855   2.898   8.139   2.160  0.1615 -0.4206 -0.0087
   81MOL    H96 9856   2.949   8.120   2.255  3.4888  1.2394 -1.3928
   81MOL    H97 9857   2.926   8.240   2.131 -0.1316 -0.5519 -0.7604
   81MOL    C98 9858   2.960   8.029   2.064 -0.0482  0.6625 -0.2860
   81MOL    F99 9859   3.090   8.066   2.053  0.1087  0.6469 -0.0784
   81MOL   F100 9860   2.950   7.902   2.104  0.2234  0.2940  0.6532
   81MOL   C101 9861   2.904   8.013   1.922 -0.5644  0.0289 -1.2148
   81MOL   H102 9862   2.863   8.109   1.890 -2.1254 -0.3634 -0.4368
   81MOL   H103 9863   2.822   7.942   1.925 -1.5306  1.1359 -1.1268
   81MOL   C104 9864   3.002   7.959   1.815  0.3812 -0.3123 -0.4902
   81MOL   F105 9865   2.929   7.933   1.704  0.1894 -0.0006  0.0041
   81MOL   F106 9866   3.082   8.064   1.785  0.1013 -0.4590  0.0002
   81MOL   C107 9867   3.068   7.830   1.850 -0.6816  0.3010  0.5713
   81MOL   H108 9868   2.994   7.752   1.869 -0.7418  0.6964  2.0629
   81MOL   H109 9869   3.130   7.835   1.940 -1.0028  0.7510  0.7700
   81MOL   C110 9870   3.169   7.780   1.737  0.5381  0.4715 -0.7628
   81MOL   F111 9871   3.202   7.667   1.794  0.3702  0.2501 -0.7192
   81MOL   F112 9872   3.109   7.754   1.615 -0.0515 -0.4370 -0.0966
   81MOL   C113 9873   3.294   7.860   1.702 -0.3448  0.0350 -0.1487
   81MOL   H114 9874   3.255   7.955   1.664  1.7517  0.9487 -0.0807
   81MOL   H115 9875   3.372   7.820   1.638  1.8649  2.4789  0.9338
   81MOL   C116 9876   3.371   7.921   1.819  0.1035 -0.1118 -0.3432
   81MOL   F117 9877   3.463   7.985   1.762 -0.8635 -0.8175  0.0552
   81MOL   F118 9878   3.298   8.005   1.887 -0.3124  0.2844  0.0132
   81MOL   C119 9879   3.448   7.820   1.919 -0.1863  0.1267  0.4432
   81MOL   H120 9880   3.374   7.759   1.972 -0.7452 -0.3968 -0.9048
   81MOL   H121 9881   3.512   7.879   1.985 -0.8468 -0.6668  1.8399
   81MOL   H122 9882   3.502   7.748   1.858 -2.3351  0.3194 -1.7482
   82MOL     C1 9883   7.783   1.981   5.026 -0.1256 -0.0293  0.4520
   82MOL     F2 9884   7.713   1.973   5.140 -0.2557 -0.2564 -0.2925
   82MOL     F3 9885   7.860   1.874   5.021  0.3148 -0.2117 -0.3999
   82MOL     C4 9886   7.847   2.121   5.007  0.0059 -0.3087 -0.1889
   82MOL     H5 9887   7.898   2.159   5.096 -2.2598  1.3841  0.4377
   82MOL     H6 9888   7.759   2.183   4.991  0.6494  1.2109  1.9585
   82MOL     H7 9889   7.715   1.972   4.941  1.2365  0.1059 -0.6683
   82MOL     C8 9890   7.942   2.113   4.878 -0.2714  0.1069 -1.1303
   82MOL     F9 9891   8.039   2.022   4.911  0.3530  0.1538 -0.3615
   82MOL    F10 9892   7.880   2.089   4.765 -0.1529 -0.2341  0.3525
   82MOL    C11 9893   8.005   2.261   4.876 -0.6223 -0.0467 -0.1423
   82MOL    H12 9894   8.052   2.278   4.973 -2.3871  0.2316  0.6761
   82MOL    H13 9895   7.925   2.330   4.852 -1.3662 -1.4869 -1.9182
   82MOL    C14 9896   8.123   2.273   4.768 -0.5834 -0.5430 -1.0709
   82MOL    F15 9897   8.171   2.394   4.778  0.1599 -0.0678 -0.8294
   82MOL    F16 9898   8.221   2.184   4.796 -0.2720  0.6619  0.6923
   82MOL    C17 9899   8.080   2.255   4.622  0.0878  0.1473 -0.3627
   82MOL    H18 9900   8.001   2.327   4.602 -0.4963 -0.3604  0.1167
   82MOL    H19 9901   8.028   2.160   4.610  0.2050  0.2314 -1.5773
   82MOL    C20 9902   8.183   2.291   4.502  0.0653 -0.3994 -0.1602
   82MOL    F21 9903   8.240   2.407   4.523 -0.2580 -0.1940  0.7720
   82MOL    F22 9904   8.281   2.202   4.487  0.1208 -0.4859  0.6441
   82MOL    C23 9905   8.114   2.310   4.365  0.8052  0.9145 -0.4223
   82MOL    H24 9906   8.198   2.325   4.296 -0.5681  3.2985 -1.6223
   82MOL    H25 9907   8.066   2.408   4.358  0.5059  0.8336  0.5213
   82MOL    C26 9908   8.023   2.200   4.310 -0.0140 -0.0516  0.5054
   82MOL    F27 9909   7.909   2.224   4.378 -0.3739  0.2370  0.2327
   82MOL    F28 9910   7.999   2.218   4.180 -0.2686 -0.6136  0.2398
   82MOL    C29 9911   8.084   2.052   4.311 -0.4638 -0.1596  0.9036
   82MOL    H30 9912   8.119   2.032   4.412 -4.2106 -1.5265  2.0424
   82MOL    H31 9913   8.168   2.042   4.242 -0.5650 -0.2574  0.7926
   82MOL    C32 9914   7.980   1.939   4.279  0.2265  0.1347 -0.7800
   82MOL    F33 9915   8.040   1.823   4.318 -0.3194 -0.2928 -0.1780
   82MOL    F34 9916   7.869   1.956   4.362 -0.3324 -0.2490  0.2039
   82MOL    C35 9917   7.923   1.924   4.136 -0.2481  0.1950  0.6788
   82MOL    H36 9918   8.011   1.902   4.076 -0.4874 -2.0798  1.0951
   82MOL    H37 9919   7.884   2.020   4.101 -0.4519 -0.6903 -1.6587
   82MOL    C38 9920   7.822   1.812   4.112 -0.6608  0.1835  0.3381
   82MOL    F39 9921   7.712   1.817   4.180  0.5216 -0.1416 -0.1456
   82MOL    F40 9922   7.800   1.830   3.975 -0.2869  0.0200  0.6362
   82MOL    C41 9923   7.878   1.670   4.119 -0.2742  0.0568 -0.3855
   82MOL    H42 9924   7.923   1.648   4.216 -0.0337 -1.9698 -0.9302
   82MOL    H43 9925   7.961   1.674   4.047  0.6640  2.8993  0.7793
   82MOL    C44 9926   7.778   1.557   4.090 -0.4689 -0.3741 -0.2568
   82MOL    F45 9927   7.693   1.542   4.186 -0.2748  0.3389  0.3217
   82MOL    F46 9928   7.706   1.598   3.985  0.0916 -0.1758  0.0163
   82MOL    C47 9929   7.844   1.429   4.057  0.3806 -0.9084  0.0732
   82MOL    H48 9930   7.910   1.454   3.973  0.8862  1.1789  1.0562
   82MOL    H49 9931   7.757   1.367   4.034 -0.2205  0.4857 -1.5745
   82MOL    C50 9932   7.918   1.362   4.177  0.1644 -0.3858 -0.2542
   82MOL    F51 9933   8.037   1.426   4.190  0.6424 -0.4417  0.0210
   82MOL    F52 9934   7.857   1.375   4.295  0.0380 -0.3470 -0.0837
   82MOL    C53 9935   7.946   1.219   4.160 -0.1838 -0.2375  0.3059
   82MOL    H54 9936   8.019   1.194   4.237 -0.5325  0.6145  0.9093
   82MOL    H55 9937   8.005   1.214   4.068  1.3694  1.9716  1.1392
   82MOL    C56 9938   7.835   1.122   4.173 -0.3180 -0.0267  0.0127
   82MOL    F57 9939   7.787   1.103   4.299 -0.3162 -0.2461  1.0381
   82MOL    F58 9940   7.732   1.149   4.094  0.0596  0.3095 -0.3654
   82MOL    C59 9941   7.879   0.989   4.115  0.3522 -0.3147 -0.1187
   82MOL    H60 9942   7.884   1.007   4.008 -0.3911 -0.5992 -0.1980
   82MOL    H61 9943   7.802   0.913   4.123 -2.8039  2.6741 -0.9007
   82MOL    C62 9944   8.005   0.916   4.177  0.0521 -0.3113 -0.4989
   82MOL    F63 9945   8.108   0.994   4.174  0.2951 -0.6347 -1.0201
   82MOL    F64 9946   7.963   0.894   4.302 -0.0538  0.2508  0.0868
   82MOL    C65 9947   8.041   0.781   4.113 -0.7833 -0.8591  0.3325
   82MOL    H66 9948   8.096   0.795   4.020  1.7606  0.3406  1.9650
   82MOL    H67 9949   7.952   0.721   4.093 -0.4341 -1.3835  0.3459
   82MOL    C68 9950   8.126   0.689   4.200 -0.3792  0.1650 -0.3300
   82MOL    F69 9951   8.228   0.763   4.225  0.1209 -0.2132 -0.3356
   82MOL    F70 9952   8.044   0.669   4.300  0.0929  0.2401 -0.6446
   82MOL    C71 9953   8.176   0.555   4.129 -0.2013 -0.2555 -0.7792
   82MOL    H72 9954   8.256   0.579   4.059 -1.1278 -0.4022 -1.9033
   82MOL    H73 9955   8.102   0.507   4.064 -1.0841 -0.9210  0.7034
   82MOL    C74 9956   8.240   0.454   4.232 -0.0782 -0.0013  0.4791
   82MOL    F75 9957   8.307   0.361   4.164  0.3949 -0.1474  0.6845
   82MOL    F76 9958   8.332   0.522   4.303 -0.0687 -0.5389 -0.1888
   82MOL    C77 9959   8.139   0.384   4.327  0.2181  0.0953 -0.0010
   82MOL    H78 9960   8.071   0.320   4.271 -1.5554  1.1295  0.9508
   82MOL    H79 9961   8.090   0.456   4.392  1.9734  1.6540 -0.3507
   82MOL    C80 9962   8.206   0.288   4.433 -0.4631 -0.1108 -0.2140
   82MOL    F81 9963   8.299   0.221   4.376  0.1019  0.0722  0.1462
   82MOL    F82 9964   8.243   0.360   4.531  0.2819 -0.2078  0.0063
   82MOL    C83 9965   8.110   0.188   4.502  0.0087  0.1495  0.5564
   82MOL    H84 9966   8.081   0.130   4.414 -0.8274  2.0250 -0.4314
   82MOL    H85 9967   8.016   0.241   4.516 -0.0038  0.3387 -0.2199
   82MOL    C86 9968   8.159   0.099   4.618 -0.6646  0.1262 -0.0674
   82MOL    F87 9969   8.058   0.019   4.630  1.0248 -0.1258 -0.4029
   82MOL    F88 9970   8.265   0.028   4.578  0.0428  0.9195  0.0042
   82MOL    C89 9971   8.179   0.186   4.743  0.0365  0.0708 -0.5330
   82MOL    H90 9972   8.085   0.239   4.757  0.3659  0.3521  0.6131
   82MOL    H91 9973   8.255   0.262   4.728  1.8746 -1.7677 -0.7418
   82MOL    C92 9974   8.226   0.107   4.871 -0.4631  0.8627 -0.7298
   82MOL    F93 9975   8.132   0.016   4.895 -0.1232  0.3386 -0.2373
   82MOL    F94 9976   8.335   0.040   4.843  0.6840 -0.3118  0.1576
   82MOL    C95 9977   8.235   0.199   4.996  0.2171 -0.3442  0.2250
   82MOL    H96 9978   8.262   0.129   5.076  2.3441  0.6655  0.4093
   82MOL    H97 9979   8.137   0.239   5.024  1.0308  1.0618  1.0970
   82MOL    C98 9980   8.340   0.314   4.985 -0.4211 -0.7940  0.6012
   82MOL    F99 9981   0.092   0.264   4.914 -0.0863 -0.0680 -0.7083
   82MOL   F100 9982   8.283   0.414   4.906 -0.5928  0.6158  0.4318
   82MOL   C101 9983   0.047   0.378   5.115  0.5461 -0.6586  0.8671
   82MOL   H102 9984   0.118   0.307   5.158  0.6705 -1.3913 -0.5231
   82MOL   H103 9985   8.313   0.391   5.184 -1.5998 -0.2472 -1.7161
   82MOL   C104 9986   0.113   0.520   5.107  0.0486 -0.5059  0.8259
   82MOL   F105 9987   0.020   0.602   5.054 -0.0594  0.2579  0.1976
   82MOL   F106 9988   0.144   0.568   5.227  0.3724  0.0900  0.2921
   82MOL   C107 9989   0.229   0.517   5.009 -0.6914 -0.0951 -0.5635
   82MOL   H108 9990   0.190   0.501   4.909  0.3836  1.1712 -1.2064
   82MOL   H109 9991   0.281   0.423   5.027 -0.4027 -0.1232 -1.4961
   82MOL   C110 9992   0.333   0.637   5.011  0.1239  0.4854 -0.1468
   82MOL   F111 9993   0.393   0.647   5.128 -0.5446 -0.2198  0.5792
   82MOL   F112 9994   0.432   0.607   4.917 -0.1647  0.1343  0.3935
   82MOL   C113 9995   0.257   0.771   4.975 -0.6822  0.2837 -0.2096
   82MOL   H114 9996   0.160   0.780   5.024 -0.7327 -0.4258 -0.1759
   82MOL   H115 9997   0.226   0.765   4.870 -0.3635  1.2412 -0.3690
   82MOL   C116 9998   0.340   0.891   4.978 -0.8374 -0.6253 -0.0171
   82MOL   F117 9999   0.263   0.993   4.951 -0.0683 -0.0770  0.5842
   82MOL   F11810000   0.381   0.905   5.105 -0.8206 -0.0460 -0.1356
   82MOL   C11910001   0.451   0.884   4.873  0.3062 -0.0178  0.3770
   82MOL   H12010002   0.429   0.839   4.777  2.2001 -2.7184  1.1441
   82MOL   H12110003   0.529   0.825   4.922  0.4883  0.5082  0.7245
   82MOL   H12210004   0.498   0.981   4.855 -1.0882  1.3253  3.5094
   83MOL     C110005   4.079   1.464   5.124 -0.1314 -0.5300  0.0485
   83MOL     F210006   4.017   1.486   5.238  0.1858 -0.0153 -0.2137
   83MOL     F310007   4.070   1.567   5.032 -0.1437  0.2844 -0.1341
   83MOL     C410008   4.038   1.338   5.050 -0.0586  0.2651 -0.3940
   83MOL     H510009   3.951   1.366   4.991 -1.0146 -0.4734  0.6285
   83MOL     H610010   4.005   1.262   5.121  3.1822 -1.2382 -0.3956
   83MOL     H710011   4.185   1.466   5.151 -0.3782  1.2464  0.9832
   83MOL     C810012   4.146   1.280   4.961  0.0025 -0.1756  0.3021
   83MOL     F910013   4.189   1.375   4.868  0.0289 -0.0298 -0.0128
   83MOL    F1010014   4.249   1.241   5.039 -0.1177  0.3351 -0.0969
   83MOL    C1110015   4.094   1.156   4.875 -0.2675 -0.4962  0.1085
   83MOL    H1210016   4.017   1.199   4.811 -0.4725  2.0015  1.9671
   83MOL    H1310017   4.036   1.088   4.938 -1.2679  0.8768  0.7143
   83MOL    C1410018   4.205   1.086   4.792  0.4117 -0.4419 -0.3688
   83MOL    F1510019   4.306   1.049   4.871 -0.3307 -0.3373 -0.6158
   83MOL    F1610020   4.158   0.980   4.735  0.1040 -0.5501  0.0616
   83MOL    C1710021   4.269   1.177   4.678 -0.2249 -0.3903 -0.2514
   83MOL    H1810022   4.329   1.256   4.723  0.3431 -1.4089  0.7759
   83MOL    H1910023   4.192   1.241   4.635  0.0376 -0.3348 -0.6506
   83MOL    C2010024   4.355   1.100   4.570 -0.2942 -0.5342  0.4043
   83MOL    F2110025   4.427   1.198   4.508  0.5058 -0.1223  0.0371
   83MOL    F2210026   4.438   1.017   4.625  0.2768 -0.2544 -0.3804
   83MOL    C2310027   4.270   1.036   4.462  0.8961  0.0585 -0.1235
   83MOL    H2410028   4.213   1.110   4.407 -2.1890 -1.7635  0.5218
   83MOL    H2510029   4.204   0.960   4.503  1.3522 -1.4231 -2.0130
   83MOL    C2610030   4.353   0.984   4.345 -0.5793  0.1965 -0.2737
   83MOL    F2710031   4.273   0.935   4.250  0.4215  0.6762  0.6911
   83MOL    F2810032   4.423   1.088   4.296  0.0876  0.3685 -0.3815
   83MOL    C2910033   4.451   0.873   4.388  0.4196  0.2539  0.4361
   83MOL    H3010034   4.394   0.806   4.452 -2.0487  1.5624 -0.3530
   83MOL    H3110035   4.533   0.920   4.443  1.6868  1.1333 -2.1618
   83MOL    C3210036   4.520   0.796   4.273 -0.3820  0.2388 -0.8272
   83MOL    F3310037   4.428   0.722   4.220  0.3759 -0.1736  0.5062
   83MOL    F3410038   4.564   0.889   4.186 -0.6854 -0.8465  0.1446
   83MOL    C3510039   4.638   0.710   4.325 -0.0701 -0.2381 -0.6696
   83MOL    H3610040   4.604   0.645   4.406 -1.5498  0.2420 -0.8868
   83MOL    H3710041   4.710   0.774   4.376  0.6647 -1.3712 -0.2501
   83MOL    C3810042   4.724   0.628   4.226  0.0595  0.9160  0.0166
   83MOL    F3910043   4.653   0.535   4.157  0.7636 -0.2935 -0.0818
   83MOL    F4010044   4.786   0.705   4.140 -0.1975  0.1665 -0.2953
   83MOL    C4110045   4.843   0.547   4.283 -0.5815 -0.1168  0.3042
   83MOL    H4210046   4.806   0.486   4.365 -0.3028 -0.0137  0.5059
   83MOL    H4310047   4.917   0.614   4.325 -0.6331  1.1451 -1.5274
   83MOL    C4410048   4.910   0.445   4.187  0.3713 -0.2882 -0.1550
   83MOL    F4510049   4.992   0.369   4.264  0.3908 -0.7942 -0.0368
   83MOL    F4610050   4.824   0.357   4.143 -0.0611  0.2630 -0.1026
   83MOL    C4710051   4.986   0.502   4.068 -0.3664  0.8716  0.7659
   83MOL    H4810052   5.064   0.571   4.100  0.4809 -0.0557  0.7312
   83MOL    H4910053   4.911   0.562   4.017 -0.5126  1.6955  1.9469
   83MOL    C5010054   5.056   0.401   3.975 -0.6822 -0.2403 -0.3277
   83MOL    F5110055   5.165   0.359   4.042 -0.0229 -0.0780 -0.2583
   83MOL    F5210056   4.980   0.299   3.943 -0.2208  0.1566 -0.1381
   83MOL    C5310057   5.120   0.468   3.846 -0.3053 -0.1648  0.1169
   83MOL    H5410058   5.193   0.397   3.808 -0.6106 -0.1610 -0.4808
   83MOL    H5510059   5.150   0.569   3.873 -0.2200  0.0932 -0.9255
   83MOL    C5610060   5.013   0.477   3.732 -0.5556  0.0560  0.5733
   83MOL    F5710061   4.972   0.354   3.702  0.5473  0.2201 -0.3188
   83MOL    F5810062   4.902   0.543   3.768  0.1230  0.4094 -0.4622
   83MOL    C5910063   5.075   0.530   3.597  0.3094  0.1816  0.0740
   83MOL    H6010064   4.995   0.521   3.523  1.5410 -2.8397 -0.9718
   83MOL    H6110065   5.150   0.460   3.559  0.5097 -0.4301  1.5882
   83MOL    C6210066   5.121   0.673   3.590 -0.0524 -0.0176  0.5757
   83MOL    F6310067   5.022   0.758   3.628  0.1992 -0.7051  0.2262
   83MOL    F6410068   5.230   0.686   3.679  0.0300 -0.5428  0.1613
   83MOL    C6510069   5.161   0.701   3.449 -0.1163  0.1415 -0.1076
   83MOL    H6610070   5.076   0.688   3.382 -0.1607 -2.4048  0.3681
   83MOL    H6710071   5.233   0.628   3.412 -0.0600 -0.8389  1.8467
   83MOL    C6810072   5.219   0.843   3.427 -0.5547 -0.2585 -0.4286
   83MOL    F6910073   5.338   0.870   3.492 -0.4578  0.0650 -0.5252
   83MOL    F7010074   5.251   0.845   3.298 -0.7363 -0.0894 -0.0081
   83MOL    C7110075   5.120   0.958   3.447 -0.2516  0.4827 -0.7060
   83MOL    H7210076   5.094   0.968   3.552  2.5299  0.4258  0.0372
   83MOL    H7310077   5.027   0.936   3.394 -0.2699  0.9937 -0.8883
   83MOL    C7410078   5.174   1.098   3.408  0.2000  0.3793 -0.9967
   83MOL    F7510079   5.282   1.133   3.482 -0.1160 -0.6207  0.2228
   83MOL    F7610080   5.222   1.087   3.276  0.0186 -0.3618 -0.1543
   83MOL    C7710081   5.064   1.204   3.424 -0.0612 -0.3015  0.0804
   83MOL    H7810082   5.043   1.220   3.530 -0.7818 -0.1202 -0.0905
   83MOL    H7910083   4.964   1.174   3.394  0.2953 -1.1356 -0.2827
   83MOL    C8010084   5.090   1.346   3.363 -0.3163  0.2409  0.9217
   83MOL    F8110085   5.191   1.400   3.431 -0.6844  0.0604 -0.5240
   83MOL    F8210086   5.128   1.330   3.237 -0.2586  0.2762 -0.3810
   83MOL    C8310087   4.971   1.442   3.374  0.2520  0.5910  0.4097
   83MOL    H8410088   4.946   1.465   3.478  0.5304 -0.1699  0.6492
   83MOL    H8510089   4.878   1.392   3.344 -0.3343  2.2306 -0.5488
   83MOL    C8610090   4.980   1.573   3.295  0.6684  0.8507  0.4316
   83MOL    F8710091   4.884   1.645   3.341 -0.0197 -0.3238  0.3044
   83MOL    F8810092   5.088   1.641   3.332  0.3295  0.4066  0.5585
   83MOL    C8910093   4.957   1.559   3.142  0.2053 -0.5301  0.0675
   83MOL    H9010094   4.873   1.491   3.136 -0.4278  0.2431  0.0814
   83MOL    H9110095   5.046   1.502   3.115 -0.4102 -3.3324  3.6427
   83MOL    C9210096   4.931   1.690   3.062 -0.2061 -0.0645 -1.0133
   83MOL    F9310097   4.909   1.645   2.944 -0.1900  0.2280 -0.4926
   83MOL    F9410098   4.814   1.731   3.111  0.0192  0.2128 -0.3270
   83MOL    C9510099   5.044   1.796   3.066 -0.1074  0.5439 -0.1878
   83MOL    H9610100   5.133   1.748   3.025  1.5466  2.7120  0.7744
   83MOL    H9710101   5.065   1.825   3.169  2.8623  1.2165 -0.9293
   83MOL    C9810102   5.022   1.927   2.984 -0.3459  0.3624  0.3310
   83MOL    F9910103   5.144   1.991   2.989  0.2297 -0.0057  0.3537
   83MOL   F10010104   4.990   1.888   2.861  0.1256  0.4722  0.4749
   83MOL   C10110105   4.902   2.009   3.035  0.1125 -0.3712 -0.0118
   83MOL   H10210106   4.914   2.034   3.140 -0.7481  1.9889 -0.4544
   83MOL   H10310107   4.809   1.952   3.041 -0.3807  0.4993  0.6316
   83MOL   C10410108   4.862   2.135   2.965 -0.3178 -0.0232 -0.1574
   83MOL   F10510109   4.964   2.223   2.964 -0.1544 -0.4932  0.8086
   83MOL   F10610110   4.847   2.095   2.836 -0.0271 -0.3675  0.5211
   83MOL   C10710111   4.735   2.202   3.026  0.6999 -0.0863  0.5666
   83MOL   H10810112   4.773   2.273   3.099  0.3580  1.1007 -0.3907
   83MOL   H10910113   4.669   2.130   3.075 -0.3687 -0.2653 -1.0955
   83MOL   C11010114   4.660   2.290   2.921  0.7451  0.5454  0.1947
   83MOL   F11110115   4.602   2.206   2.829  0.0450 -0.7480  0.2326
   83MOL   F11210116   4.559   2.343   2.986  0.1077 -0.6321  0.2609
   83MOL   C11310117   4.756   2.402   2.868  0.4861 -0.1958  0.2485
   83MOL   H11410118   4.818   2.366   2.786 -1.0119  0.7507 -1.3368
   83MOL   H11510119   4.834   2.435   2.936  2.2154 -0.8593 -1.3787
   83MOL   C11610120   4.680   2.520   2.805 -0.1787  0.2083  0.0149
   83MOL   F11710121   4.614   2.576   2.901  0.2800  0.1366  0.0255
   83MOL   F11810122   4.763   2.603   2.751 -0.2469 -0.4396 -0.2083
   83MOL   C11910123   4.581   2.483   2.694  0.4964  0.1991 -0.2699
   83MOL   H12010124   4.619   2.435   2.604 -0.9366 -0.0789 -0.7289
   83MOL   H12110125   4.539   2.576   2.656  0.9652 -0.1966 -1.7796
   83MOL   H12210126   4.493   2.431   2.729 -0.2479  2.5722  1.5047
   84MOL     C110127   1.956   4.312   3.548  0.1205  0.8801  0.5070
   84MOL     F210128   2.057   4.390   3.519 -0.6140  0.1918  0.0830
   84MOL     F310129   1.929   4.329   3.675  0.1339  1.2455 -0.3257
   84MOL     C410130   2.015   4.176   3.549 -0.3961  0.1874  1.0927
   84MOL     H510131   1.939   4.107   3.587 -0.0966  0.2787  1.8655
   84MOL     H610132   2.106   4.162   3.607  0.3029 -2.3018 -0.5473
   84MOL     H710133   1.873   4.323   3.479  1.0771  0.2524 -0.7659
   84MOL     C810134   2.061   4.129   3.405  0.7452  0.3385 -0.1997
   84MOL     F910135   1.976   4.173   3.313  0.1215 -0.0590 -0.2813
   84MOL    F1010136   2.179   4.182   3.371 -0.0041 -0.1061 -0.2500
   84MOL    C1110137   2.061   3.973   3.391  0.3606 -0.6098  0.0765
   84MOL    H1210138   2.066   3.959   3.283 -0.3106 -1.3208  0.1334
   84MOL    H1310139   1.967   3.934   3.431  0.3422 -0.2844  0.3483
   84MOL    C1410140   2.180   3.900   3.458  0.1023  0.7236  0.7488
   84MOL    F1510141   2.292   3.941   3.398  0.1523  0.4606  0.6726
   84MOL    F1610142   2.192   3.935   3.584 -0.0105 -0.1546 -0.1495
   84MOL    C1710143   2.178   3.754   3.469  0.0562  0.4497 -0.8444
   84MOL    H1810144   2.096   3.715   3.530  0.5379 -1.5606 -1.4301
   84MOL    H1910145   2.265   3.717   3.524  2.2557  4.0737 -1.7677
   84MOL    C2010146   2.176   3.672   3.332 -0.2134 -0.3776  0.5906
   84MOL    F2110147   2.069   3.712   3.260 -0.0114  0.1525  0.1027
   84MOL    F2210148   2.286   3.702   3.269 -0.0596  0.4978 -0.5590
   84MOL    C2310149   2.177   3.518   3.358 -0.8535  0.1523 -0.4087
   84MOL    H2410150   2.088   3.493   3.415  0.1292 -1.5155  0.4493
   84MOL    H2510151   2.258   3.496   3.428  1.2892 -1.6280 -3.3393
   84MOL    C2610152   2.191   3.422   3.242 -0.0036 -0.4487 -0.3628
   84MOL    F2710153   2.302   3.454   3.183 -0.1937 -0.2757 -0.0094
   84MOL    F2810154   2.209   3.304   3.294  0.3984 -0.1000  0.4619
   84MOL    C2910155   2.079   3.423   3.137 -0.2505  0.5479 -0.6459
   84MOL    H3010156   2.082   3.524   3.098 -2.5864 -0.1218 -2.6598
   84MOL    H3110157   1.983   3.403   3.185  1.2618 -1.0900  1.8127
   84MOL    C3210158   2.104   3.325   3.017  0.0187  0.0193  0.2289
   84MOL    F3310159   2.231   3.338   2.975  0.1124  0.1278 -0.2886
   84MOL    F3410160   2.087   3.198   3.073  0.5577  0.6067  0.0371
   84MOL    C3510161   2.016   3.344   2.899 -0.2988 -0.9364  0.5354
   84MOL    H3610162   2.036   3.258   2.834  2.3750 -1.0282  1.3967
   84MOL    H3710163   2.045   3.434   2.846 -3.8216  0.1346  0.3209
   84MOL    C3810164   1.860   3.341   2.925 -0.0388  1.1670 -0.3201
   84MOL    F3910165   1.828   3.228   2.996  0.1690 -0.0124 -0.6344
   84MOL    F4010166   1.842   3.450   3.002 -0.0790 -0.3393  0.1159
   84MOL    C4110167   1.781   3.337   2.788  0.0585  0.1008 -0.7346
   84MOL    H4210168   1.782   3.237   2.745  1.3252 -0.4342  0.5255
   84MOL    H4310169   1.827   3.403   2.713  0.8282 -0.1298 -0.4758
   84MOL    C4410170   1.638   3.376   2.812  0.2462  0.0411 -0.0519
   84MOL    F4510171   1.581   3.281   2.874  0.1988  0.6554 -0.3021
   84MOL    F4610172   1.623   3.483   2.892 -0.5136  0.1476  0.2145
   84MOL    C4710173   1.568   3.412   2.677  0.3117  0.3185 -0.5771
   84MOL    H4810174   1.605   3.503   2.629  3.0738  0.7311  2.1516
   84MOL    H4910175   1.463   3.437   2.687  0.3329 -0.0112  0.5808
   84MOL    C5010176   1.559   3.295   2.573 -0.1604 -0.6320  0.0202
   84MOL    F5110177   1.518   3.353   2.456  0.2755  0.0455  0.5716
   84MOL    F5210178   1.684   3.253   2.538 -0.1564  0.0234  0.3616
   84MOL    C5310179   1.458   3.185   2.592 -0.0425 -0.0315  0.3696
   84MOL    H5410180   1.490   3.109   2.664  0.9516 -1.0726 -1.1485
   84MOL    H5510181   1.457   3.122   2.503 -0.0675 -1.3822  1.2999
   84MOL    C5610182   1.310   3.233   2.614  0.2324 -0.1657  0.2192
   84MOL    F5710183   1.284   3.249   2.748 -0.1434  0.5673  0.4387
   84MOL    F5810184   1.280   3.341   2.556 -0.3138  0.5303  0.4788
   84MOL    C5910185   1.208   3.125   2.565  0.0950  0.3866 -0.0287
   84MOL    H6010186   1.228   3.107   2.459 -1.2510  0.9671 -0.3861
   84MOL    H6110187   1.107   3.162   2.578  0.0803 -0.0241  1.0526
   84MOL    C6210188   1.209   2.987   2.630  0.2646  0.1059 -0.4726
   84MOL    F6310189   1.332   2.930   2.624 -0.0866 -0.0353  0.2678
   84MOL    F6410190   1.173   3.005   2.757  0.2652 -0.2651 -0.6358
   84MOL    C6510191   1.107   2.887   2.577 -0.7116 -0.1817  0.0793
   84MOL    H6610192   1.125   2.791   2.625  1.5014  1.5077  2.8057
   84MOL    H6710193   1.139   2.870   2.474  1.0863  1.1545  0.3796
   84MOL    C6810194   0.953   2.924   2.567 -0.1476  0.7210  0.1235
   84MOL    F6910195   0.952   3.030   2.482 -0.2817 -0.8846  1.0023
   84MOL    F7010196   0.894   2.813   2.523  0.3179 -0.4179 -0.4066
   84MOL    C7110197   0.895   2.969   2.700  0.3520 -0.7831 -0.3231
   84MOL    H7210198   0.947   3.054   2.743  0.5331 -1.0907  0.0793
   84MOL    H7310199   0.923   2.897   2.778 -1.1891 -0.0495  0.9310
   84MOL    C7410200   0.743   2.982   2.713 -0.0603 -0.2327  0.0309
   84MOL    F7510201   0.675   2.870   2.707  0.0643  0.0098 -0.4239
   84MOL    F7610202   0.724   3.037   2.832 -0.0731 -0.2728  0.0308
   84MOL    C7710203   0.682   3.077   2.618  0.1320 -0.0503  0.8387
   84MOL    H7810204   0.575   3.071   2.637  0.0727  2.2711  1.3560
   84MOL    H7910205   0.706   3.037   2.520  0.3258 -0.2349  0.9586
   84MOL    C8010206   0.726   3.225   2.612 -0.1724  0.0430 -0.1985
   84MOL    F8110207   0.695   3.281   2.729  0.1406  0.0372 -0.3343
   84MOL    F8210208   0.854   3.242   2.601  0.6467  0.5622 -0.1170
   84MOL    C8310209   0.660   3.311   2.496 -0.4864  0.7695 -0.5069
   84MOL    H8410210   0.709   3.302   2.399 -0.1675 -0.8919 -0.1988
   84MOL    H8510211   0.687   3.413   2.524 -0.0916 -0.1024  2.3977
   84MOL    C8610212   0.508   3.287   2.470 -0.1609  0.3296 -0.7577
   84MOL    F8710213   0.482   3.175   2.406  0.1339  0.0221  0.2947
   84MOL    F8810214   0.445   3.290   2.587  0.2802 -0.3106  0.5920
   84MOL    C8910215   0.449   3.401   2.379 -0.0971 -0.1193  0.3606
   84MOL    H9010216   0.492   3.407   2.279  0.2470 -4.2133  0.1948
   84MOL    H9110217   0.470   3.498   2.423  1.4403  1.0714 -2.8400
   84MOL    C9210218   0.298   3.390   2.365  0.1300 -0.4305  0.5448
   84MOL    F9310219   0.244   3.418   2.487 -0.2196  0.7304  0.0564
   84MOL    F9410220   0.255   3.479   2.278  0.0385 -0.0194  1.2475
   84MOL    C9510221   0.249   3.256   2.306 -0.2694 -0.9061 -0.6323
   84MOL    H9610222   0.246   3.168   2.370 -2.6739 -0.3134  0.1258
   84MOL    H9710223   0.302   3.225   2.216 -2.3287 -2.2368 -1.4384
   84MOL    C9810224   0.111   3.270   2.229 -0.6207  1.1856  0.5482
   84MOL    F9910225   0.033   3.348   2.300  0.2164 -0.4175 -0.1783
   84MOL   F10010226   0.125   3.335   2.111 -0.6421  0.3826 -0.2344
   84MOL   C10110227   0.047   3.131   2.204  0.0445  0.1538 -0.0295
   84MOL   H10210228   0.046   3.088   2.304 -1.5441  0.2635  0.0172
   84MOL   H10310229   0.122   3.073   2.151  1.3784  3.7496 -2.3150
   84MOL   C10410230   8.259   3.129   2.134 -0.4576  0.2369 -0.0040
   84MOL   F10510231   8.217   3.003   2.144 -0.1170  0.0698  0.4962
   84MOL   F10610232   8.163   3.206   2.194 -0.5428 -0.1183  0.0979
   84MOL   C10710233   8.262   3.159   1.981  0.5823  0.2163 -0.5344
   84MOL   H10810234   8.271   3.267   1.969  0.6286  0.4086  1.1211
   84MOL   H10910235   8.166   3.125   1.944  1.0645 -1.3347 -0.3923
   84MOL   C11010236   0.016   3.069   1.895 -0.2523  0.0948 -0.5561
   84MOL   F11110237   0.138   3.121   1.924 -0.7807  0.6860 -0.3462
   84MOL   F11210238   0.015   2.944   1.936  0.2515  0.4147  0.1681
   84MOL   C11310239   8.342   3.054   1.743  0.1682  0.7140 -0.1349
   84MOL   H11410240   0.029   3.151   1.708  1.6292  0.3002  0.2221
   84MOL   H11510241   8.236   3.050   1.717 -0.2489  0.7310  1.5095
   84MOL   C11610242   0.064   2.944   1.659  0.3574  0.1337  0.0483
   84MOL   F11710243   8.341   2.933   1.543  0.4441  0.4609  0.1276
   84MOL   F11810244   0.191   2.976   1.624  0.4782  0.0611 -0.0942
   84MOL   C11910245   0.047   2.802   1.716 -0.0061  0.3221 -0.3919
   84MOL   H12010246   8.295   2.788   1.754  0.0641 -1.9708 -0.9583
   84MOL   H12110247   0.112   2.774   1.799 -0.1186 -1.1251 -0.7749
   84MOL   H12210248   0.067   2.727   1.640 -1.0191 -0.1503 -0.1964
   85MOL     C110249   6.076   7.109   4.604  0.5270 -0.0533  0.5808
   85MOL     F210250   6.020   7.056   4.490 -0.3527  0.2451  0.0678
   85MOL     F310251   6.121   7.012   4.681 -0.1105 -0.2643  0.0648
   85MOL     C410252   5.963   7.185   4.675 -0.4252  0.8203 -0.5031
   85MOL     H510253   5.897   7.228   4.599 -1.4143 -0.9775 -0.6977
   85MOL     H610254   5.992   7.266   4.741  0.7663 -0.5646  0.7108
   85MOL     H710255   6.158   7.173   4.574  1.1116 -1.6581 -1.3782
   85MOL     C810256   5.862   7.095   4.752  0.6150 -0.1142  0.0079
   85MOL     F910257   5.926   7.032   4.854 -0.1125  0.0636  0.3846
   85MOL    F1010258   5.791   7.187   4.811  0.4195  0.1805  0.0425
   85MOL    C1110259   5.780   6.998   4.666  0.4975 -0.0176  0.2297
   85MOL    H1210260   5.844   6.916   4.633 -1.4263 -1.1468 -0.7474
   85MOL    H1310261   5.757   7.056   4.577 -2.2087 -1.9996 -0.3998
   85MOL    C1410262   5.643   6.962   4.734 -0.5089  1.3258 -0.7609
   85MOL    F1510263   5.577   7.075   4.759 -0.3484 -0.0143 -0.1422
   85MOL    F1610264   5.572   6.891   4.642 -0.5618  0.2012 -0.1973
   85MOL    C1710265   5.668   6.874   4.859  0.7368 -0.6848 -0.4306
   85MOL    H1810266   5.717   6.936   4.933 -0.0283 -1.7720  1.0153
   85MOL    H1910267   5.731   6.788   4.832 -0.6108 -1.6524 -0.5359
   85MOL    C2010268   5.540   6.817   4.923 -0.4387  0.1382 -0.1285
   85MOL    F2110269   5.462   6.921   4.958  0.7443 -0.1458 -0.1263
   85MOL    F2210270   5.470   6.752   4.826 -0.7592 -0.2820 -0.0813
   85MOL    C2310271   5.573   6.725   5.039  0.3134 -0.0800 -0.0091
   85MOL    H2410272   5.616   6.795   5.110 -0.4102 -1.5427  1.9157
   85MOL    H2510273   5.636   6.639   5.019 -0.5250 -0.8372  0.5710
   85MOL    C2610274   5.445   6.673   5.095  0.2111 -0.0896 -0.4463
   85MOL    F2710275   5.342   6.762   5.109  0.7967  0.2952  0.2003
   85MOL    F2810276   5.405   6.571   5.016 -0.3231 -0.5240 -0.2714
   85MOL    C2910277   5.469   6.612   5.232  0.3986 -0.0385 -0.6491
   85MOL    H3010278   5.375   6.563   5.259  0.5588  0.3858  0.7632
   85MOL    H3110279   5.482   6.696   5.300 -2.1201 -0.2744  0.1903
   85MOL    C3210280   5.592   6.520   5.252  0.2442  0.1026  0.2387
   85MOL    F3310281   5.600   6.423   5.165 -0.2521  0.2321  0.1150
   85MOL    F3410282   5.704   6.586   5.251 -0.3640 -0.1368  0.2147
   85MOL    C3510283   5.596   6.454   5.392 -0.0770  0.0744  0.1511
   85MOL    H3610284   5.697   6.414   5.404 -0.0776 -0.2039 -0.7613
   85MOL    H3710285   5.525   6.372   5.382  0.5603 -0.6963  1.7103
   85MOL    C3810286   5.554   6.530   5.516  0.1789  0.3951  0.1911
   85MOL    F3910287   5.627   6.637   5.522 -0.4335 -0.3577  0.0575
   85MOL    F4010288   5.430   6.572   5.531  0.4062 -0.2308  0.7052
   85MOL    C4110289   5.612   6.456   5.638 -0.0110 -0.5428 -0.3871
   85MOL    H4210290   5.588   6.524   5.721 -0.1169  1.1026 -1.7439
   85MOL    H4310291   5.720   6.449   5.626 -0.1115 -2.8459 -0.1578
   85MOL    C4410292   5.557   6.316   5.668 -1.2544  0.4917 -0.1250
   85MOL    F4510293   5.610   6.229   5.580  0.5370  0.3503  0.5091
   85MOL    F4610294   5.597   6.278   5.792  0.5250  0.0391  0.0257
   85MOL    C4710295   5.407   6.307   5.657  0.3171 -0.4321 -0.6344
   85MOL    H4810296   5.370   6.325   5.556  0.6607  1.7659 -0.3724
   85MOL    H4910297   5.379   6.397   5.712  3.4632  0.2865 -0.1041
   85MOL    C5010298   5.337   6.184   5.715 -0.1684  0.0708 -0.0766
   85MOL    F5110299   5.400   6.081   5.675 -0.1132  0.3357 -0.1057
   85MOL    F5210300   5.348   6.188   5.848 -0.1980  0.0226 -0.4769
   85MOL    C5310301   5.188   6.180   5.666 -0.4156 -0.4529 -0.6245
   85MOL    H5410302   5.141   6.088   5.700  0.8247 -0.2221  1.7913
   85MOL    H5510303   5.184   6.181   5.557 -2.1193  1.2763 -0.5778
   85MOL    C5610304   5.097   6.305   5.703 -0.4847 -0.3893 -0.5844
   85MOL    F5710305   5.108   6.319   5.841  0.5546 -0.0080  0.3712
   85MOL    F5810306   5.133   6.423   5.650 -0.4204  0.5072 -0.3556
   85MOL    C5910307   4.953   6.290   5.655 -0.6966 -0.0211  0.3276
   85MOL    H6010308   4.947   6.294   5.547 -0.2221  1.4828  0.3494
   85MOL    H6110309   4.892   6.375   5.685 -0.3661 -0.5464  2.5789
   85MOL    C6210310   4.880   6.163   5.699 -0.5867  0.0633 -0.4001
   85MOL    F6310311   4.921   6.053   5.632 -0.3888  0.2938  0.0628
   85MOL    F6410312   4.888   6.145   5.833 -0.0637  0.0823  0.3885
   85MOL    C6510313   4.729   6.190   5.684  0.3229 -0.4500 -0.4131
   85MOL    H6610314   4.715   6.221   5.581  0.0508 -0.6482 -0.4372
   85MOL    H6710315   4.707   6.277   5.746 -0.7526  1.0450 -2.8380
   85MOL    C6810316   4.633   6.081   5.722 -0.0998  0.1980  0.1107
   85MOL    F6910317   4.658   6.040   5.846  0.0726 -0.2854  0.2692
   85MOL    F7010318   4.510   6.129   5.728 -0.0586  0.0416  0.1640
   85MOL    C7110319   4.635   5.957   5.626  0.6721  0.7990  1.0024
   85MOL    H7210320   4.736   5.918   5.608  0.9385  2.0072 -0.1946
   85MOL    H7310321   4.612   5.994   5.526  1.2971 -1.0383  0.1398
   85MOL    C7410322   4.542   5.834   5.676 -0.3270  0.3362 -0.3694
   85MOL    F7510323   4.595   5.728   5.623 -0.0881 -0.1546  0.0914
   85MOL    F7610324   4.560   5.812   5.808  0.0816  0.2109 -0.7121
   85MOL    C7710325   4.389   5.850   5.644  0.1464  0.3710 -0.2918
   85MOL    H7810326   4.379   5.883   5.540 -0.5162 -1.1789 -0.7379
   85MOL    H7910327   4.353   5.923   5.716 -1.5405 -0.3369 -0.3885
   85MOL    C8010328   4.298   5.725   5.671 -0.4462  0.5718  0.3229
   85MOL    F8110329   4.331   5.629   5.583  0.1012  0.1288  1.0922
   85MOL    F8210330   4.323   5.682   5.790 -0.2782 -0.2243 -0.6570
   85MOL    C8310331   4.150   5.755   5.653  0.2296 -0.2223 -0.9400
   85MOL    H8410332   4.125   5.810   5.562 -3.1382 -0.2481 -0.1001
   85MOL    H8510333   4.127   5.837   5.722 -2.4142 -2.7653  1.3435
   85MOL    C8610334   4.053   5.633   5.672  0.0452  0.5389  0.2638
   85MOL    F8710335   4.056   5.567   5.559  0.0164  0.3628  0.1530
   85MOL    F8810336   4.089   5.552   5.773 -0.1428 -0.2530 -0.2152
   85MOL    C8910337   3.894   5.657   5.699  0.0897 -0.1412  1.1051
   85MOL    H9010338   3.843   5.565   5.728 -0.3691 -0.0971  0.4395
   85MOL    H9110339   3.846   5.692   5.608  0.8838 -1.7772  0.0498
   85MOL    C9210340   3.863   5.757   5.815  0.2645 -0.5513  0.0616
   85MOL    F9310341   3.890   5.873   5.760 -0.5554  0.0234 -0.2066
   85MOL    F9410342   3.728   5.759   5.824 -0.2027 -0.5648 -0.6889
   85MOL    C9510343   3.935   5.739   5.952  0.2026 -0.2272  0.5470
   85MOL    H9610344   4.044   5.738   5.954  0.3357  2.1636 -2.3565
   85MOL    H9710345   3.906   5.644   5.996 -0.2859  0.1975  1.1404
   85MOL    C9810346   3.905   5.845   6.069 -0.1130 -0.3616  0.2468
   85MOL    F9910347   3.778   5.866   6.067  0.4745  0.0262  0.4087
   85MOL   F10010348   3.943   5.797   6.193  0.2025 -0.3160 -0.0517
   85MOL   C10110349   3.985   5.982   6.056 -0.1385  0.5162  0.0514
   85MOL   H10210350   3.951   6.044   6.140 -0.0554  1.0981 -0.3443
   85MOL   H10310351   3.954   6.032   5.964 -1.2404 -1.8132 -0.8680
   85MOL   C10410352   4.139   5.979   6.081  0.0418 -0.5905  0.3456
   85MOL   F10510353   4.162   5.896   6.181 -0.3475  0.0551 -0.0006
   85MOL   F10610354   4.200   5.927   5.978 -0.1473 -0.3718  0.0461
   85MOL   C10710355   4.191   6.121   6.115  0.4336  0.3001 -0.3908
   85MOL   H10810356   4.123   6.165   6.188 -1.1804 -1.0222 -1.0687
   85MOL   H10910357   4.188   6.188   6.029  0.5928 -1.5163 -1.8386
   85MOL   C11010358   4.331   6.142   6.178 -0.2100  0.1751  0.1614
   85MOL   F11110359   4.336   6.049   6.272  0.5928  0.4607  0.2571
   85MOL   F11210360   4.434   6.120   6.092  0.3069  0.3105  0.1615
   85MOL   C11310361   4.353   6.269   6.254 -0.0821 -0.0791  0.0755
   85MOL   H11410362   4.460   6.268   6.278 -0.2907 -1.3232  1.0147
   85MOL   H11510363   4.308   6.272   6.353 -0.0204  0.8614  0.0855
   85MOL   C11610364   4.316   6.401   6.177  0.2449  0.0200 -0.8045
   85MOL   F11710365   4.366   6.372   6.054 -0.2569  0.2272 -0.1951
   85MOL   F11810366   4.182   6.426   6.174  0.2278 -0.2335 -0.4369
   85MOL   C11910367   4.394   6.520   6.235 -0.3124  0.2996 -0.9353
   85MOL   H12010368   4.401   6.538   6.342 -0.5745 -1.4341 -0.6107
   85MOL   H12110369   4.344   6.611   6.203 -1.2068 -0.2636 -1.1561
   85MOL   H12210370   4.495   6.518   6.192 -1.0735 -2.0118 -2.7262
   86MOL     C110371   5.246   2.848   1.914  0.3732 -0.1525 -0.6797
   86MOL     F210372   5.341   2.905   1.998  0.1153  0.1766  0.1376
   86MOL     F310373   5.292   2.748   1.846 -0.2544 -0.4147 -0.5901
   86MOL     C410374   5.180   2.945   1.816 -0.4850  0.5734  0.7713
   86MOL     H510375   5.105   2.883   1.767  0.3432  0.5241 -0.4392
   86MOL     H610376   5.251   2.989   1.746 -1.5338  0.8160 -0.1638
   86MOL     H710377   5.180   2.796   1.983  0.5717 -1.0993 -1.1860
   86MOL     C810378   5.088   3.053   1.880 -0.4205  0.5863 -0.2093
   86MOL     F910379   5.017   2.992   1.974  0.1083 -0.6362 -0.5009
   86MOL    F1010380   5.170   3.136   1.946  0.6771  0.0802  0.1913
   86MOL    C1110381   4.994   3.132   1.781 -0.2475  0.0587 -0.1245
   86MOL    H1210382   4.913   3.181   1.835 -2.0337 -0.4957 -2.2663
   86MOL    H1310383   4.934   3.060   1.726 -2.1399  1.1100  0.5280
   86MOL    C1410384   5.061   3.226   1.676 -0.5009  0.7265 -0.1411
   86MOL    F1510385   5.142   3.150   1.609  0.0363 -0.5315 -0.9464
   86MOL    F1610386   4.964   3.259   1.589  0.0461 -0.9161 -0.0557
   86MOL    C1710387   5.143   3.342   1.733  0.1343  0.3534 -0.9095
   86MOL    H1810388   5.215   3.305   1.806 -0.5566 -0.2196 -0.5093
   86MOL    H1910389   5.085   3.407   1.798  0.5211  0.0157 -0.2194
   86MOL    C2010390   5.208   3.436   1.630  0.2827  0.3416 -0.0823
   86MOL    F2110391   5.282   3.520   1.703  0.5478  0.0072  0.3611
   86MOL    F2210392   5.293   3.373   1.548  0.6050 -0.1287 -0.1661
   86MOL    C2310393   5.110   3.524   1.549  0.5972  0.6808  0.1663
   86MOL    H2410394   5.059   3.463   1.474 -0.0333  2.1874 -0.6589
   86MOL    H2510395   5.159   3.610   1.502  2.1313  1.1879  2.6465
   86MOL    C2610396   4.999   3.588   1.628  0.0956 -0.5374 -0.0405
   86MOL    F2710397   4.911   3.500   1.672 -0.1677 -0.6159 -0.7891
   86MOL    F2810398   5.051   3.651   1.736 -0.2741  0.1743  0.1690
   86MOL    C2910399   4.900   3.689   1.555 -0.5369  0.3726  0.3153
   86MOL    H3010400   4.960   3.775   1.527 -0.3230 -0.7442 -2.8917
   86MOL    H3110401   4.824   3.720   1.626 -1.1728 -1.1125  0.3038
   86MOL    C3210402   4.826   3.628   1.430 -0.0937 -0.2194  0.7038
   86MOL    F3310403   4.916   3.605   1.340  0.2426  0.2603  0.1549
   86MOL    F3410404   4.756   3.520   1.460 -0.9968 -0.0541  0.0097
   86MOL    C3510405   4.714   3.727   1.371 -0.1305 -0.6082 -0.3156
   86MOL    H3610406   4.755   3.823   1.340  0.1834 -0.6055  0.1116
   86MOL    H3710407   4.640   3.745   1.449  1.2046 -1.6637  1.2465
   86MOL    C3810408   4.638   3.667   1.249  1.2622 -0.0225 -0.1281
   86MOL    F3910409   4.562   3.575   1.298  0.3413  0.1493 -0.4499
   86MOL    F4010410   4.562   3.769   1.198 -0.2568  0.0490  0.5778
   86MOL    C4110411   4.717   3.608   1.130  0.4985  0.2805  0.1662
   86MOL    H4210412   4.647   3.554   1.066 -2.2331 -0.0109  3.2736
   86MOL    H4310413   4.779   3.524   1.163 -0.4649  0.0420  1.4211
   86MOL    C4410414   4.788   3.711   1.038 -0.0516 -0.2974  0.2389
   86MOL    F4510415   4.698   3.774   0.971 -0.3214 -0.3232 -0.5580
   86MOL    F4610416   4.846   3.796   1.131  0.2563  0.1611  0.4413
   86MOL    C4710417   4.897   3.645   0.947 -0.4722 -0.0208  0.0693
   86MOL    H4810418   4.950   3.579   1.015  1.3383  0.8777 -0.4448
   86MOL    H4910419   4.971   3.719   0.916  0.2526 -0.9038 -0.3256
   86MOL    C5010420   4.842   3.559   0.830  0.2548  0.7838  0.2768
   86MOL    F5110421   4.778   3.458   0.881  0.4620  0.2540 -0.2889
   86MOL    F5210422   4.758   3.621   0.746  0.2991 -0.1311 -0.4427
   86MOL    C5310423   4.947   3.503   0.734 -0.6018 -0.2517 -0.2231
   86MOL    H5410424   5.024   3.457   0.795  1.7224  3.5108 -0.1545
   86MOL    H5510425   4.990   3.593   0.689 -2.4224 -0.1165 -1.7576
   86MOL    C5610426   4.902   3.401   0.624 -0.5897  0.5801  0.1432
   86MOL    F5710427   4.820   3.457   0.541  0.2970  0.2302 -0.4672
   86MOL    F5810428   5.019   3.368   0.566  0.3458  0.2848  0.2130
   86MOL    C5910429   4.837   3.270   0.675 -0.1113  0.7648 -0.5707
   86MOL    H6010430   4.731   3.294   0.690 -0.1106  0.3368  0.1676
   86MOL    H6110431   4.859   3.241   0.778  2.7801  0.7047 -1.1831
   86MOL    C6210432   4.847   3.150   0.581  0.1567  0.3928  0.2377
   86MOL    F6310433   4.967   3.144   0.536 -0.1730 -0.0209  0.0955
   86MOL    F6410434   4.829   3.039   0.653 -0.5082 -0.7199 -0.2931
   86MOL    C6510435   4.751   3.148   0.460 -0.2982  0.0980 -0.0807
   86MOL    H6610436   4.775   3.235   0.399  2.0829 -0.4768 -0.0054
   86MOL    H6710437   4.646   3.145   0.490  0.1044 -0.9926  1.3129
   86MOL    C6810438   4.781   3.033   0.358  0.6773 -0.0695 -0.8886
   86MOL    F6910439   4.698   3.045   0.253  0.1358  0.3433  0.7847
   86MOL    F7010440   4.904   3.055   0.305  0.4586  0.4139 -0.6096
   86MOL    C7110441   4.755   2.890   0.411 -0.2323  0.3958 -0.4417
   86MOL    H7210442   4.829   2.857   0.484 -2.2814 -4.1376 -0.2419
   86MOL    H7310443   4.780   2.831   0.323  1.9005  0.2538  0.2154
   86MOL    C7410444   4.615   2.850   0.456 -0.1820 -0.1959  0.9585
   86MOL    F7510445   4.570   2.938   0.546 -0.1739  0.0136 -0.4539
   86MOL    F7610446   4.534   2.860   0.353 -0.0422 -0.1126  0.0534
   86MOL    C7710447   4.600   2.699   0.506  0.0203 -0.4402 -0.0003
   86MOL    H7810448   4.604   2.648   0.410  1.9382 -0.9037  0.3018
   86MOL    H7910449   4.501   2.693   0.552  0.2354 -1.6272  0.3180
   86MOL    C8010450   4.692   2.648   0.617 -0.3133  0.4826  0.1084
   86MOL    F8110451   4.801   2.612   0.558 -0.3508  0.2409  0.4362
   86MOL    F8210452   4.707   2.741   0.717 -0.3990 -0.3307  0.1644
   86MOL    C8310453   4.630   2.526   0.691 -0.6648  0.1914 -0.0822
   86MOL    H8410454   4.603   2.445   0.623  0.0966  0.4419 -0.6884
   86MOL    H8510455   4.535   2.551   0.739  0.4033  1.6488  1.3468
   86MOL    C8610456   4.711   2.470   0.810  0.2404  0.0764 -0.1620
   86MOL    F8710457   4.826   2.435   0.763  0.1768 -0.4402 -0.1461
   86MOL    F8810458   4.733   2.569   0.897 -0.2017 -0.3792  0.0862
   86MOL    C8910459   4.648   2.343   0.879 -0.0645 -0.5029  0.2269
   86MOL    H9010460   4.715   2.312   0.960  0.5986  1.7678  0.5822
   86MOL    H9110461   4.654   2.260   0.809 -0.5672 -1.8707  1.7808
   86MOL    C9210462   4.505   2.358   0.942 -0.2793  0.5236 -0.9486
   86MOL    F9310463   4.408   2.363   0.849  0.3627 -0.7358 -0.3398
   86MOL    F9410464   4.485   2.244   1.017 -0.2699  0.2808 -0.1995
   86MOL    C9510465   4.477   2.481   1.034  0.3150  0.0450 -0.2474
   86MOL    H9610466   4.371   2.488   1.056 -0.0544  0.8506 -2.1184
   86MOL    H9710467   4.498   2.571   0.976 -1.0372  0.7275  0.3060
   86MOL    C9810468   4.566   2.490   1.171  0.4683  0.4890  0.2936
   86MOL    F9910469   4.696   2.484   1.146  0.0948  0.3102 -0.0567
   86MOL   F10010470   4.538   2.605   1.224 -0.5895 -0.2469 -0.0092
   86MOL   C10110471   4.541   2.382   1.267  0.1921 -0.9459  1.0301
   86MOL   H10210472   4.599   2.299   1.226  0.1437 -0.0434 -0.8991
   86MOL   H10310473   4.436   2.362   1.283 -0.3547  1.1155  0.1934
   86MOL   C10410474   4.607   2.399   1.409 -0.1228  0.2512 -0.3156
   86MOL   F10510475   4.724   2.451   1.389 -0.1433  0.1688 -0.6406
   86MOL   F10610476   4.535   2.493   1.474  0.0083  0.0937 -0.0372
   86MOL   C10710477   4.618   2.265   1.483  0.1755  0.4651 -0.1508
   86MOL   H10810478   4.682   2.195   1.428  0.1226  0.7576 -0.5888
   86MOL   H10910479   4.529   2.203   1.486  1.0455 -0.7781  0.6367
   86MOL   C11010480   4.655   2.272   1.631 -0.1342 -0.4344  0.7659
   86MOL   F11110481   4.781   2.315   1.648  0.0635  0.8221 -0.0971
   86MOL   F11210482   4.577   2.352   1.696  0.2145 -0.4086 -0.1167
   86MOL   C11310483   4.648   2.124   1.690  0.0410 -0.6263  0.0817
   86MOL   H11410484   4.732   2.064   1.655  0.1082  0.7865 -2.3099
   86MOL   H11510485   4.568   2.066   1.644  1.2168 -2.0609 -0.1954
   86MOL   C11610486   4.633   2.119   1.845 -0.2245  0.2697 -0.9175
   86MOL   F11710487   4.514   2.156   1.896 -0.1822 -0.0197  0.0505
   86MOL   F11810488   4.652   1.985   1.872  0.2295  0.6848  0.2637
   86MOL   C11910489   4.743   2.199   1.923 -0.0821  0.4547  0.1396
   86MOL   H12010490   4.714   2.231   2.023 -0.1052 -0.2302  0.3607
   86MOL   H12110491   4.773   2.292   1.875 -0.6289  0.8801  0.6237
   86MOL   H12210492   4.841   2.151   1.929 -0.5209 -0.4408  0.2692
   87MOL     C110493   3.949   4.669   5.591  0.9141  0.2775 -0.2125
   87MOL     F210494   4.055   4.716   5.652 -0.2293 -0.2074 -0.1126
   87MOL     F310495   3.859   4.772   5.584 -0.0742  0.1286 -0.4378
   87MOL     C410496   3.874   4.546   5.647  0.5645  0.0616 -0.1653
   87MOL     H510497   3.794   4.521   5.577 -0.5708  1.6339  0.5397
   87MOL     H610498   3.835   4.587   5.740  1.6632  2.1918 -0.6191
   87MOL     H710499   3.991   4.654   5.491 -1.1640 -1.9601 -0.7958
   87MOL     C810500   3.964   4.423   5.672 -0.1829  0.0873  0.2649
   87MOL     F910501   4.009   4.381   5.551  0.1054  0.0467 -0.2425
   87MOL    F1010502   4.060   4.467   5.751 -0.5341 -0.3380 -0.2831
   87MOL    C1110503   3.903   4.306   5.754 -0.7638  0.1564 -0.8626
   87MOL    H1210504   3.917   4.331   5.859 -0.6957 -0.7303 -0.6563
   87MOL    H1310505   3.951   4.209   5.744  2.1926  1.6695 -2.0296
   87MOL    C1410506   3.753   4.285   5.729  0.6159  0.3977  0.3280
   87MOL    F1510507   3.679   4.390   5.770 -0.5390  0.7797 -0.3868
   87MOL    F1610508   3.736   4.272   5.596 -0.4851  0.5588  0.2005
   87MOL    C1710509   3.699   4.163   5.806  0.3763  0.6263  0.7412
   87MOL    H1810510   3.734   4.183   5.908 -0.3121 -0.2622  1.1578
   87MOL    H1910511   3.743   4.068   5.775  1.6366  1.7429 -0.9193
   87MOL    C2010512   3.543   4.140   5.801  0.0671  0.4141  0.3623
   87MOL    F2110513   3.511   4.039   5.880  0.1693  0.2030 -0.3935
   87MOL    F2210514   3.474   4.248   5.840  0.1438  0.4750  0.0663
   87MOL    C2310515   3.498   4.101   5.659 -0.3104 -0.2985  0.3217
   87MOL    H2410516   3.546   4.008   5.627  1.4274  0.2001  1.3837
   87MOL    H2510517   3.526   4.184   5.594 -1.2256  0.7711  1.2891
   87MOL    C2610518   3.349   4.079   5.642  1.2758  0.1640 -0.5023
   87MOL    F2710519   3.304   3.968   5.712  0.6279 -0.2953 -0.4588
   87MOL    F2810520   3.282   4.187   5.691  0.8224  0.3156  0.3778
   87MOL    C2910521   3.306   4.065   5.493 -0.0802 -0.3544 -0.4861
   87MOL    H3010522   3.304   4.162   5.444 -1.2730 -0.0923  0.0571
   87MOL    H3110523   3.200   4.042   5.492 -0.2055  0.2149 -0.3471
   87MOL    C3210524   3.384   3.969   5.401  1.2591 -0.5275 -0.1575
   87MOL    F3310525   3.321   3.974   5.287 -0.6437 -0.0112  0.3441
   87MOL    F3410526   3.502   4.006   5.369  0.1296 -0.2276  0.4405
   87MOL    C3510527   3.378   3.826   5.456  0.7409 -0.5258 -0.5056
   87MOL    H3610528   3.271   3.807   5.461  0.8416 -1.1146 -0.5712
   87MOL    H3710529   3.418   3.820   5.557 -0.5991 -0.8226  0.0249
   87MOL    C3810530   3.456   3.721   5.378 -0.1156  0.3859  0.4192
   87MOL    F3910531   3.586   3.754   5.386  0.0684  0.0833  0.3831
   87MOL    F4010532   3.452   3.610   5.456  0.6452 -0.1614 -0.5442
   87MOL    C4110533   3.404   3.691   5.239 -0.1498 -0.2229  0.1698
   87MOL    H4210534   3.481   3.628   5.196  1.5117  1.3667  0.7127
   87MOL    H4310535   3.420   3.783   5.182 -0.1426 -0.0950  0.3769
   87MOL    C4410536   3.262   3.629   5.224  0.4040 -0.5593  0.3218
   87MOL    F4510537   3.246   3.533   5.317  0.7022 -0.1317  0.2942
   87MOL    F4610538   3.178   3.731   5.257  0.3550 -0.1243  0.0429
   87MOL    C4710539   3.226   3.585   5.076  0.3500  0.0975 -0.4243
   87MOL    H4810540   3.302   3.522   5.031 -0.9006 -1.9003  0.1901
   87MOL    H4910541   3.228   3.684   5.029  0.3372  0.2756 -0.0473
   87MOL    C5010542   3.085   3.536   5.052 -0.0270  0.3427 -0.3831
   87MOL    F5110543   3.074   3.397   5.053 -0.2593  0.1733 -0.5949
   87MOL    F5210544   3.006   3.572   5.152  0.1573 -0.4017  0.1854
   87MOL    C5310545   3.024   3.578   4.914  0.0348  0.2789 -0.2796
   87MOL    H5410546   2.999   3.684   4.914 -0.1444  0.2414  0.2829
   87MOL    H5510547   2.924   3.536   4.906 -1.0043  2.0228  2.6711
   87MOL    C5610548   3.123   3.550   4.799  0.3954  0.3763 -0.0742
   87MOL    F5710549   3.202   3.654   4.789  0.4400  0.2432 -0.0307
   87MOL    F5810550   3.194   3.444   4.812 -0.3694 -0.4773  0.3222
   87MOL    C5910551   3.041   3.570   4.674 -0.0359  0.0795 -0.1875
   87MOL    H6010552   3.112   3.592   4.594 -0.1306 -0.4367 -0.4182
   87MOL    H6110553   2.966   3.649   4.680 -1.4769 -1.2885  0.0282
   87MOL    C6210554   2.975   3.442   4.621  0.1916 -0.0710 -0.3863
   87MOL    F6310555   3.069   3.353   4.594  0.9888  0.0120  0.3117
   87MOL    F6410556   2.887   3.391   4.709  0.5035 -0.2555 -0.2275
   87MOL    C6510557   2.909   3.465   4.489  0.0150  0.1534  1.5095
   87MOL    H6610558   2.974   3.511   4.415 -3.4085  1.7791 -0.6535
   87MOL    H6710559   2.835   3.545   4.499 -0.4272 -0.0788  0.2828
   87MOL    C6810560   2.839   3.340   4.425 -0.0477  0.5151  0.3279
   87MOL    F6910561   2.931   3.245   4.396 -0.1525  0.0735 -0.2306
   87MOL    F7010562   2.754   3.281   4.512  0.7500  0.3278  0.4619
   87MOL    C7110563   2.742   3.360   4.308  0.1688 -0.3402  0.2150
   87MOL    H7210564   2.663   3.423   4.349 -0.1191  0.1771 -1.1218
   87MOL    H7310565   2.700   3.265   4.275  2.9504 -0.5786 -2.8751
   87MOL    C7410566   2.808   3.431   4.184  0.3341 -0.1851  0.1260
   87MOL    F7510567   2.831   3.559   4.218 -0.1940  0.3713  0.0600
   87MOL    F7610568   2.925   3.379   4.155 -0.1511 -0.0863 -0.1072
   87MOL    C7710569   2.733   3.429   4.053 -0.3377  0.5650 -0.4980
   87MOL    H7810570   2.718   3.330   4.009  0.3043 -0.8141  2.2712
   87MOL    H7910571   2.803   3.471   3.981 -0.9974  0.5656 -1.1466
   87MOL    C8010572   2.590   3.484   4.059  0.6377 -0.0005  0.2836
   87MOL    F8110573   2.513   3.391   4.115  0.1889 -0.1365 -0.0030
   87MOL    F8210574   2.594   3.600   4.135 -0.2078 -0.0045  0.3601
   87MOL    C8310575   2.536   3.510   3.915 -0.7200  0.2891 -0.0962
   87MOL    H8410576   2.553   3.417   3.860  2.3665  0.5692  0.2914
   87MOL    H8510577   2.602   3.578   3.861 -0.9683  0.2069 -0.5091
   87MOL    C8610578   2.390   3.565   3.897 -0.6001 -0.5061 -0.3676
   87MOL    F8710579   2.376   3.667   3.983  0.0641 -0.3114 -0.0881
   87MOL    F8810580   2.379   3.607   3.769  0.3374  0.0923  0.3010
   87MOL    C8910581   2.276   3.467   3.924  0.0953 -0.2709  0.1206
   87MOL    H9010582   2.265   3.460   4.032 -1.1599  0.9365  0.0827
   87MOL    H9110583   2.314   3.374   3.883  1.5891  0.3146  0.1529
   87MOL    C9210584   2.139   3.501   3.859 -0.2298 -0.5157  0.1472
   87MOL    F9310585   2.151   3.476   3.729  0.0066 -0.5226 -0.3518
   87MOL    F9410586   2.053   3.416   3.911  0.7604 -0.0186 -0.2887
   87MOL    C9510587   2.094   3.638   3.883  0.1385 -0.5580  0.6870
   87MOL    H9610588   2.168   3.699   3.831  0.4982 -0.6062  1.1317
   87MOL    H9710589   2.105   3.668   3.988  2.9678  1.2114 -0.0410
   87MOL    C9810590   1.951   3.672   3.833 -0.1137 -0.5014  0.2591
   87MOL    F9910591   1.918   3.612   3.724 -0.3864  0.7167  0.5757
   87MOL   F10010592   1.861   3.631   3.925 -0.3736  0.1843 -0.1296
   87MOL   C10110593   1.936   3.824   3.827  0.3222 -0.5460 -0.5034
   87MOL   H10210594   2.016   3.861   3.764  1.2294  0.1282  1.0360
   87MOL   H10310595   1.963   3.852   3.929 -0.5822 -0.5298 -0.2589
   87MOL   C10410596   1.801   3.877   3.785 -0.0184  0.8376 -0.1452
   87MOL   F10510597   1.805   3.866   3.654 -0.0380 -0.4455 -0.1719
   87MOL   F10610598   1.697   3.802   3.834  0.1883  0.5642  0.1594
   87MOL   C10710599   1.770   4.030   3.822  0.3467 -0.1715 -0.9904
   87MOL   H10810600   1.843   4.099   3.780  0.2633  0.4754 -0.1065
   87MOL   H10910601   1.785   4.044   3.929  1.5956  0.4154 -1.2353
   87MOL   C11010602   1.641   4.099   3.777 -0.3641 -0.0685  0.2403
   87MOL   F11110603   1.636   4.103   3.644 -0.6509 -0.3304 -0.0899
   87MOL   F11210604   1.541   4.026   3.819  0.6099 -0.5304  0.1653
   87MOL   C11310605   1.637   4.243   3.832  0.3320  0.3589  0.4677
   87MOL   H11410606   1.583   4.299   3.756 -1.0968 -0.0003  1.2102
   87MOL   H11510607   1.736   4.288   3.817  0.8315 -0.8193  0.1938
   87MOL   C11610608   1.574   4.261   3.973  0.5310 -0.2967 -0.1491
   87MOL   F11710609   1.453   4.211   3.967 -0.1622  0.5893 -0.1705
   87MOL   F11810610   1.641   4.193   4.071  0.4269 -0.1686 -0.3979
   87MOL   C11910611   1.560   4.410   4.025  0.4146 -0.3970  0.4326
   87MOL   H12010612   1.520   4.411   4.127 -0.2908 -0.0368  0.1560
   87MOL   H12110613   1.498   4.475   3.963  0.2899 -1.6592 -0.7656
   87MOL   H12210614   1.652   4.464   4.047  0.7801 -0.1270 -1.6642
   88MOL     C110615   0.700   7.121   6.617 -0.0829  0.3148 -0.8244
   88MOL     F210616   0.709   7.052   6.509 -0.0023 -0.4966  0.4048
   88MOL     F310617   0.816   7.186   6.625  0.5565 -0.2711  0.7406
   88MOL     C410618   0.686   7.028   6.742 -0.1260  0.2229  0.2203
   88MOL     H510619   0.779   6.970   6.744  0.3001  0.9178  1.0336
   88MOL     H610620   0.604   6.964   6.712  0.1371 -0.4525  0.9335
   88MOL     H710621   0.615   7.188   6.605 -0.0083  0.9770  2.0683
   88MOL     C810622   0.661   7.104   6.869  0.2208 -0.5613  0.2349
   88MOL     F910623   0.748   7.201   6.892 -0.1884  0.0538 -0.0437
   88MOL    F1010624   0.540   7.162   6.868  0.1204  0.3803 -0.2720
   88MOL    C1110625   0.667   7.011   6.986  0.3725  0.4666 -0.0388
   88MOL    H1210626   0.738   6.930   6.968 -0.0565  0.1971 -0.5279
   88MOL    H1310627   0.571   6.960   6.988 -0.3096  1.7714  1.0679
   88MOL    C1410628   0.696   7.064   7.124 -0.0629  0.4693 -0.2007
   88MOL    F1510629   0.671   6.968   7.208  0.6733  0.1951 -0.4965
   88MOL    F1610630   0.826   7.095   7.141 -0.0885 -0.0104 -0.2459
   88MOL    C1710631   0.610   7.191   7.165  0.0490 -0.3630  0.0483
   88MOL    H1810632   0.505   7.169   7.145 -0.6574  2.2697  0.6345
   88MOL    H1910633   0.629   7.271   7.094  1.1481 -0.2584  0.4539
   88MOL    C2010634   0.614   7.237   7.308  0.3986 -0.2976 -0.6142
   88MOL    F2110635   0.521   7.328   7.319 -0.2649 -0.3405 -0.1458
   88MOL    F2210636   0.585   7.123   7.375  0.6332 -0.3918 -0.0379
   88MOL    C2310637   0.746   7.296   7.352  1.1356 -0.3235 -0.0705
   88MOL    H2410638   0.773   7.390   7.304 -2.6625  1.5707  1.2808
   88MOL    H2510639   0.833   7.235   7.326  0.9066 -0.8901  0.4746
   88MOL    C2610640   0.759   7.314   7.501 -0.2429  0.0304  0.4435
   88MOL    F2710641   0.656   7.385   7.543  0.4006 -0.2176  0.3880
   88MOL    F2810642   0.758   7.200   7.565 -0.1292 -0.3307  0.3512
   88MOL    C2910643   0.895   7.392   7.538 -0.3875  0.1880  0.4670
   88MOL    H3010644   0.895   7.490   7.491  0.4671  0.9897  2.0699
   88MOL    H3110645   0.983   7.347   7.493  0.6829  3.6399 -1.0317
   88MOL    C3210646   0.915   7.408   7.687  0.1839  0.6407 -0.6189
   88MOL    F3310647   0.825   7.496   7.740  0.2738  0.9133  0.3852
   88MOL    F3410648   0.899   7.285   7.745 -0.0232  0.0368 -0.1868
   88MOL    C3510649   1.061   7.448   7.704 -0.2503 -0.4357 -0.1638
   88MOL    H3610650   1.066   7.553   7.673 -1.3088 -0.5758 -0.8536
   88MOL    H3710651   1.125   7.382   7.646 -0.6008 -1.6047  0.7594
   88MOL    C3810652   1.110   7.462   7.845 -0.2228 -0.4439 -0.7114
   88MOL    F3910653   1.236   7.508   7.851 -0.0736  0.0457 -0.2056
   88MOL    F4010654   1.034   7.550   7.913 -0.1317  0.2122  0.1639
   88MOL    C4110655   1.103   7.327   7.918  0.0402  0.2708 -0.3522
   88MOL    H4210656   1.124   7.250   7.845 -0.3095  0.7390 -0.9472
   88MOL    H4310657   0.998   7.314   7.944  0.0330 -1.5416 -1.2586
   88MOL    C4410658   1.200   7.326   8.034  0.1135  0.7544  0.1868
   88MOL    F4510659   1.190   7.203   8.087 -0.3396  0.4864 -0.2151
   88MOL    F4610660   1.326   7.334   7.992 -0.2337 -0.4464 -0.0456
   88MOL    C4710661   1.155   7.420   8.147 -0.0684  0.1133 -0.3183
   88MOL    H4810662   1.048   7.415   8.168  0.3123 -0.1219  1.5992
   88MOL    H4910663   1.190   7.520   8.124  0.7237  0.2281  1.3662
   88MOL    C5010664   1.220   7.396   8.284 -0.1318  0.7640 -0.3472
   88MOL    F5110665   1.185   7.494   0.018 -0.7059 -0.1848 -0.2195
   88MOL    F5210666   1.171   7.287   8.336  0.9402 -0.4887 -0.2652
   88MOL    C5310667   1.374   7.377   8.281 -0.7297 -0.1248  0.4612
   88MOL    H5410668   1.418   7.455   8.219 -0.8509 -0.8717 -0.5813
   88MOL    H5510669   1.400   7.289   8.221 -0.5703  0.2039  0.0469
   88MOL    C5610670   1.448   7.368   0.064  0.8415  0.1796  0.1355
   88MOL    F5710671   1.579   7.379   0.037  0.4012 -0.1025  0.4348
   88MOL    F5810672   1.436   7.485   0.131  0.0856  0.0374  0.1957
   88MOL    C5910673   1.422   7.241   0.154 -0.0202  0.0732 -0.1423
   88MOL    H6010674   1.321   7.245   0.196 -0.1397 -0.7619 -0.3460
   88MOL    H6110675   1.487   7.251   0.241  1.1617 -0.0770 -1.0035
   88MOL    C6210676   1.460   7.108   0.090 -0.7209  0.1705 -0.3196
   88MOL    F6310677   1.472   7.017   0.195  0.6250  0.2306 -0.0998
   88MOL    F6410678   1.357   7.076   0.013  0.0141 -0.7455  0.0275
   88MOL    C6510679   1.600   7.093   0.018 -0.1644 -0.9091  0.4827
   88MOL    H6610680   1.682   7.104   0.088  1.5126  0.2889 -1.6069
   88MOL    H6710681   1.610   7.172   8.294  1.7660 -0.8184  0.8212
   88MOL    C6810682   1.617   6.960   8.285 -0.4304 -0.1171  0.1843
   88MOL    F6910683   1.736   6.981   8.225  0.1388 -0.2483  0.0968
   88MOL    F7010684   1.634   6.863   0.021  0.6956  0.1002 -0.5288
   88MOL    C7110685   1.505   6.911   8.190  0.0357  0.8218 -0.4703
   88MOL    H7210686   1.463   7.005   8.155  0.9946  1.5343  0.2712
   88MOL    H7310687   1.428   6.869   8.255 -0.3359  1.0887 -0.7360
   88MOL    C7410688   1.539   6.804   8.073 -0.3191  0.1918  0.4910
   88MOL    F7510689   1.544   6.686   8.130  0.2509 -0.2161 -0.5690
   88MOL    F7610690   1.424   6.790   7.999 -0.7644  0.2698  0.2760
   88MOL    C7710691   1.658   6.834   7.977 -0.0460 -0.4530 -0.5517
   88MOL    H7810692   1.668   6.747   7.912 -1.6232 -1.3691  0.4063
   88MOL    H7910693   1.749   6.827   8.036  0.5783 -0.6492 -1.5341
   88MOL    C8010694   1.658   6.963   7.901  0.0102  0.6133  0.1318
   88MOL    F8110695   1.607   7.058   7.973  0.0151  0.5709 -0.0609
   88MOL    F8210696   1.784   7.000   7.870  0.3118 -0.0963 -0.0186
   88MOL    C8310697   1.571   6.958   7.772  0.3186  0.1795  0.0543
   88MOL    H8410698   1.481   6.900   7.786  0.6381 -0.4790 -0.6246
   88MOL    H8510699   1.617   6.904   7.689 -0.0693 -0.4022  0.2207
   88MOL    C8610700   1.524   7.090   7.705 -0.1606  0.0317 -1.1832
   88MOL    F8710701   1.466   7.057   7.593 -0.2067  0.6744 -0.2998
   88MOL    F8810702   1.433   7.141   7.782  0.8274  0.0685  0.2773
   88MOL    C8910703   1.632   7.198   7.695  0.7754  0.0288  0.1578
   88MOL    H9010704   1.733   7.167   7.670  0.9584  2.1533 -1.9617
   88MOL    H9110705   1.654   7.231   7.796 -1.4872  0.6362  0.4870
   88MOL    C9210706   1.591   7.310   7.595  0.2707 -0.4927 -0.2442
   88MOL    F9310707   1.704   7.390   7.595  0.6126  0.5731  0.1242
   88MOL    F9410708   1.573   7.259   7.478 -0.1030  0.0935  0.2529
   88MOL    C9510709   1.480   7.402   7.648 -0.3134  0.0826  0.3075
   88MOL    H9610710   1.511   7.431   7.748  0.1502 -0.5814  0.3601
   88MOL    H9710711   1.385   7.356   7.676 -0.9201  0.5396 -0.9488
   88MOL    C9810712   1.463   7.535   7.570  0.3001 -0.2190  0.2343
   88MOL    F9910713   1.370   7.601   7.639  0.3169 -0.4790  0.2134
   88MOL   F10010714   1.578   7.602   7.565  0.3053  0.3351 -0.2605
   88MOL   C10110715   1.419   7.513   7.425 -0.2888 -0.1328  0.0971
   88MOL   H10210716   1.504   7.467   7.374 -1.6456 -1.3990 -1.0962
   88MOL   H10310717   1.411   7.610   7.376  2.7302  0.0854 -0.0825
   88MOL   C10410718   1.290   7.432   7.389  0.1586  0.0943  0.2585
   88MOL   F10510719   1.276   7.313   7.446 -0.1912 -0.0476 -0.3460
   88MOL   F10610720   1.189   7.514   7.427  0.0726 -0.0300  0.0596
   88MOL   C10710721   1.273   7.415   7.235  0.0183 -0.1689  0.4252
   88MOL   H10810722   1.368   7.380   7.195  0.3263  1.1751 -0.0589
   88MOL   H10910723   1.260   7.512   7.187  0.6277 -1.0253 -1.5068
   88MOL   C11010724   1.169   7.324   7.195 -0.2630  0.0013  0.4644
   88MOL   F11110725   1.167   7.199   7.241 -1.0097 -0.2665 -0.5636
   88MOL   F11210726   1.054   7.380   7.245 -0.1202 -0.1656 -0.3474
   88MOL   C11310727   1.139   7.332   7.048  0.0345 -0.2385 -0.0747
   88MOL   H11410728   1.140   7.436   7.015 -0.4238 -0.3352 -0.4135
   88MOL   H11510729   1.036   7.297   7.040  0.1807 -0.4642 -1.0535
   88MOL   C11610730   1.240   7.255   6.962  0.5470 -0.0153  0.3780
   88MOL   F11710731   1.350   7.322   6.942 -0.3104 -0.3487 -0.0171
   88MOL   F11810732   1.261   7.134   7.016  0.0552  0.7328  0.0144
   88MOL   C11910733   1.178   7.207   6.835  0.2766  0.2808  1.5068
   88MOL   H12010734   1.139   7.293   6.780  1.8862 -0.4043 -0.7944
   88MOL   H12110735   1.095   7.141   6.861 -0.3976  0.6019  0.2497
   88MOL   H12210736   1.240   7.158   6.760 -0.6188 -1.0792  1.6441
   89MOL     C110737   6.483   2.819   0.079 -0.5410  0.0345  0.1706
   89MOL     F210738   6.595   2.766   0.021  0.3443 -0.4666 -0.0586
   89MOL     F310739   6.421   2.714   0.129 -0.0367  0.1239 -0.2400
   89MOL     C410740   6.393   2.892   8.327  0.2200 -0.8617  0.5546
   89MOL     H510741   6.348   2.824   8.255  1.5475 -2.3735  1.1157
   89MOL     H610742   6.447   2.963   8.264 -0.4050  0.8015  1.8604
   89MOL     H710743   6.516   2.875   0.167 -0.5171 -1.3781  1.0753
   89MOL     C810744   6.283   2.986   0.036 -0.3899 -0.6802 -0.3215
   89MOL     F910745   6.195   2.922   0.118 -0.7694 -1.1430 -0.0237
   89MOL    F1010746   6.336   3.071   0.124 -0.1175 -0.5481  0.2174
   89MOL    C1110747   6.217   3.070   8.271 -0.3366 -0.0772 -0.5424
   89MOL    H1210748   6.298   3.097   8.203  1.7356 -0.2601  1.7923
   89MOL    H1310749   6.181   3.163   8.313  1.4760  0.2301  0.3809
   89MOL    C1410750   6.099   3.002   8.197  0.9283 -0.6970 -0.7151
   89MOL    F1510751   6.121   2.871   8.187  0.1797  0.3404  0.3257
   89MOL    F1610752   5.986   3.015   8.265 -0.0452 -0.0503  0.4540
   89MOL    C1710753   6.082   3.057   8.056  0.1603  0.0414  0.0181
   89MOL    H1810754   6.174   3.044   7.999 -0.2773 -1.2411 -0.4181
   89MOL    H1910755   6.065   3.164   8.066  0.8699  0.1276  0.3453
   89MOL    C2010756   5.967   2.997   7.976  0.0513 -0.2998 -0.8025
   89MOL    F2110757   5.959   2.867   7.982  0.0989  0.4261  0.0460
   89MOL    F2210758   5.859   3.048   8.035 -0.1776  0.2012 -0.6599
   89MOL    C2310759   5.971   3.039   7.831  0.5677  0.4781  0.4622
   89MOL    H2410760   6.074   3.016   7.803  0.1688 -0.6984 -0.0471
   89MOL    H2510761   5.971   3.148   7.839 -2.1287  0.4964  0.7395
   89MOL    C2610762   5.863   2.986   7.735  0.2246 -0.3698 -1.5283
   89MOL    F2710763   5.860   2.854   7.732 -0.5198  0.7410  0.3772
   89MOL    F2810764   5.758   3.028   7.797  0.4340 -0.4638 -0.1158
   89MOL    C2910765   5.870   3.042   7.592  0.3184  0.3063 -1.0081
   89MOL    H3010766   5.967   3.021   7.546  1.4601  2.6441  0.2165
   89MOL    H3110767   5.871   3.149   7.613  2.0939  0.5008 -1.9712
   89MOL    C3210768   5.766   3.012   7.485  0.5141  0.1524  0.1312
   89MOL    F3310769   5.793   3.077   7.375 -0.0039  0.4415  0.0859
   89MOL    F3410770   5.752   2.885   7.464  0.2208 -0.3716 -0.2116
   89MOL    C3510771   5.623   3.063   7.537  0.2781 -0.7352  0.1148
   89MOL    H3610772   5.632   3.171   7.550 -1.2166 -0.3538 -1.8188
   89MOL    H3710773   5.606   3.022   7.637  0.1776  2.3704  1.4282
   89MOL    C3810774   5.502   3.027   7.449  0.0936 -0.2316 -0.0030
   89MOL    F3910775   5.473   2.898   7.460  0.1203 -0.1922 -0.1536
   89MOL    F4010776   5.397   3.107   7.476 -0.0429  0.2732 -0.3001
   89MOL    C4110777   5.527   3.041   7.295 -0.4465 -0.2686 -0.3520
   89MOL    H4210778   5.609   2.970   7.281  0.6141  0.3848  2.2248
   89MOL    H4310779   5.569   3.137   7.267  2.2177 -0.3710  3.0075
   89MOL    C4410780   5.410   3.005   7.192 -0.0025 -0.2657  0.1292
   89MOL    F4510781   5.452   3.028   7.062  0.5035 -0.1942 -0.1641
   89MOL    F4610782   5.393   2.878   7.213 -0.2920 -0.0626  0.1023
   89MOL    C4710783   5.278   3.082   7.216 -0.0446 -0.1540 -0.4538
   89MOL    H4810784   5.280   3.190   7.228  2.9624 -0.1217 -0.9024
   89MOL    H4910785   5.237   3.054   7.313  1.1112 -4.5776 -1.1337
   89MOL    C5010786   5.169   3.054   7.113  0.3631 -0.6924  0.4127
   89MOL    F5110787   5.056   3.080   7.184  0.2647  0.5123  0.2628
   89MOL    F5210788   5.188   3.140   7.014  0.4499 -0.0172  0.2314
   89MOL    C5310789   5.156   2.914   7.065  0.0277 -0.4938  0.4268
   89MOL    H5410790   5.147   2.854   7.155 -2.4085  0.0259  0.5693
   89MOL    H5510791   5.248   2.877   7.019 -0.3489 -0.8296 -0.0602
   89MOL    C5610792   5.035   2.896   6.969  0.2624 -0.0730  0.3147
   89MOL    F5710793   4.926   2.921   7.041 -0.6044 -0.2482 -0.1267
   89MOL    F5810794   5.039   2.985   6.869  0.0731 -0.2544  0.0492
   89MOL    C5910795   5.026   2.757   6.916  0.4295  0.0771 -0.1000
   89MOL    H6010796   5.121   2.732   6.868  0.1656 -0.2867 -0.4294
   89MOL    H6110797   4.944   2.767   6.846  1.0695  0.5707 -0.7915
   89MOL    C6210798   5.010   2.649   7.024 -0.6435 -0.3429  0.0418
   89MOL    F6310799   5.134   2.642   7.081 -0.3852  0.3439 -0.5243
   89MOL    F6410800   4.915   2.683   7.114  0.0059  0.0057  0.5203
   89MOL    C6510801   4.984   2.497   6.972 -0.2260 -0.0755 -0.1684
   89MOL    H6610802   4.977   2.421   7.050 -2.2245  0.9548  0.6956
   89MOL    H6710803   5.071   2.468   6.913 -0.8961  0.3888 -1.4119
   89MOL    C6810804   4.858   2.489   6.891 -0.3985  0.6466  0.0898
   89MOL    F6910805   4.862   2.572   6.786  0.1283  0.1714 -0.3852
   89MOL    F7010806   4.849   2.370   6.825  0.1807 -0.3108  0.2379
   89MOL    C7110807   4.723   2.503   6.965  1.0483  0.2953  0.5661
   89MOL    H7210808   4.707   2.604   7.001 -0.7411 -0.1128  0.9272
   89MOL    H7310809   4.722   2.438   7.052 -0.9869 -1.7646 -0.9283
   89MOL    C7410810   4.584   2.472   6.900  0.7618  0.5050  0.3434
   89MOL    F7510811   4.579   2.525   6.777  0.0168 -0.1473  0.2199
   89MOL    F7610812   4.560   2.345   6.879  0.0314 -0.1858 -0.3138
   89MOL    C7710813   4.459   2.517   6.987 -0.6673 -0.1303  0.1501
   89MOL    H7810814   4.369   2.481   6.937 -1.2672  0.4171  0.8178
   89MOL    H7910815   4.464   2.626   6.994 -0.5470 -0.0287 -1.3488
   89MOL    C8010816   4.464   2.465   7.135 -0.6480 -0.2448  0.0202
   89MOL    F8110817   4.454   2.334   7.133  0.0734  0.0169 -0.1190
   89MOL    F8210818   4.578   2.502   7.199  0.0360 -0.0196  0.0143
   89MOL    C8310819   4.338   2.519   7.203 -0.0115 -0.6549 -0.0162
   89MOL    H8410820   4.248   2.494   7.148 -0.0456 -1.3141  0.3316
   89MOL    H8510821   4.351   2.627   7.199  2.8643 -0.9002  1.1931
   89MOL    C8610822   4.329   2.480   7.357  0.7061 -0.1470 -0.1881
   89MOL    F8710823   4.338   2.350   7.387  0.4484 -0.3051 -0.5312
   89MOL    F8810824   4.433   2.537   7.418  0.3846 -0.0586  0.8141
   89MOL    C8910825   4.203   2.534   7.432 -0.7882  0.2421  0.6862
   89MOL    H9010826   4.215   2.642   7.427 -2.9443  0.4692 -0.4285
   89MOL    H9110827   4.203   2.496   7.534  0.1347  0.3759  0.7312
   89MOL    C9210828   4.062   2.500   7.375 -0.4875 -0.1490  0.3957
   89MOL    F9310829   4.033   2.570   7.271  0.0290  0.3129 -0.0712
   89MOL    F9410830   4.068   2.372   7.333  0.1708  0.3161  0.3084
   89MOL    C9510831   3.945   2.514   7.474 -0.4314  0.3064 -0.4876
   89MOL    H9610832   3.968   2.447   7.557 -0.8096  1.3484  0.4583
   89MOL    H9710833   3.854   2.475   7.429 -0.1626  0.0447 -0.8155
   89MOL    C9810834   3.928   2.646   7.542  0.1461  0.4531  0.2493
   89MOL    F9910835   4.047   2.691   7.576 -0.2563 -0.1189 -0.7407
   89MOL   F10010836   3.872   2.728   7.462  0.0367  0.1127 -0.6150
   89MOL   C10110837   3.850   2.657   7.678 -0.4452 -0.2878 -0.4828
   89MOL   H10210838   3.816   2.760   7.684  2.1025  0.5554  0.1626
   89MOL   H10310839   3.920   2.653   7.762  1.0626  0.8165 -1.6488
   89MOL   C10410840   3.726   2.570   7.700  1.4083 -0.1704 -0.6930
   89MOL   F10510841   3.638   2.583   7.602  0.0652 -0.2084 -0.0169
   89MOL   F10610842   3.765   2.441   7.711 -0.1925  0.1383  0.1979
   89MOL   C10710843   3.651   2.602   7.831  0.3507 -0.1984 -0.2731
   89MOL   H10810844   3.560   2.542   7.826 -1.8627  2.9740  0.0954
   89MOL   H10910845   3.620   2.707   7.827  1.5870  0.2527  1.3832
   89MOL   C11010846   3.716   2.582   7.973 -0.0988 -0.4423 -0.0641
   89MOL   F11110847   3.802   2.481   7.979 -0.5692  0.4313  0.0827
   89MOL   F11210848   3.786   2.689   7.990  0.1602  0.0264  0.1707
   89MOL   C11310849   3.611   2.574   8.080 -0.0759 -0.2098  0.0678
   89MOL   H11410850   3.554   2.485   8.053  0.1346  0.3383 -2.3938
   89MOL   H11510851   3.546   2.658   8.054  2.9126  2.0531 -0.4014
   89MOL   C11610852   3.652   2.573   8.223 -0.4872 -0.1905 -0.4453
   89MOL   F11710853   3.723   2.681   8.243 -0.1732  0.3721  0.2377
   89MOL   F11810854   3.553   2.578   8.305 -0.4158 -0.0525 -0.4150
   89MOL   C11910855   3.743   2.458   8.269 -0.3035  0.1401  0.5980
   89MOL   H12010856   3.686   2.365   8.264 -0.9097  0.4530  1.6123
   89MOL   H12110857   3.774   2.466   0.024  0.2834  0.4859  0.4004
   89MOL   H12210858   3.831   2.455   8.205 -0.0736 -1.9837  0.9782
   90MOL     C110859   0.670   6.739   4.731 -0.3552 -0.1531  0.0745
   90MOL     F210860   0.623   6.651   4.640  0.0194  0.0196  0.5052
   90MOL     F310861   0.676   6.683   4.855 -0.0137  0.1405  0.4224
   90MOL     C410862   0.588   6.876   4.723  0.5503 -0.1165 -0.3783
   90MOL     H510863   0.484   6.861   4.751  0.4594  0.1798 -0.5565
   90MOL     H610864   0.607   6.924   4.627 -0.5418  2.5013  0.6663
   90MOL     H710865   0.772   6.742   4.694 -0.0062  0.4135  1.0480
   90MOL     C810866   0.654   6.984   4.816 -0.1045 -0.4105  0.0652
   90MOL     F910867   0.634   6.951   4.948 -0.3033  0.0230  0.3277
   90MOL    F1010868   0.785   6.970   4.786  0.0364  0.2724 -0.3739
   90MOL    C1110869   0.609   7.133   4.800 -0.4618  0.2065 -0.2550
   90MOL    H1210870   0.628   7.178   4.702 -0.5433  1.9621  0.5220
   90MOL    H1310871   0.669   7.180   4.878  0.7536  0.7272 -1.4800
   90MOL    C1410872   0.458   7.145   4.824 -0.4210  0.1697  0.1069
   90MOL    F1510873   0.386   7.073   4.736 -0.3461 -0.4245 -0.1516
   90MOL    F1610874   0.435   7.104   4.948  0.4714 -0.1426 -0.5624
   90MOL    C1710875   0.405   7.300   4.818 -0.0842 -0.2967  0.3325
   90MOL    H1810876   0.413   7.352   4.722 -2.5402  1.8723  1.2493
   90MOL    H1910877   0.468   7.353   4.888  0.2244 -0.0974 -0.0939
   90MOL    C2010878   0.253   7.313   4.840 -0.7202 -0.0885 -0.1712
   90MOL    F2110879   0.203   7.438   4.823 -0.3259  0.1952  0.3384
   90MOL    F2210880   0.193   7.231   4.742 -0.5513  0.0888 -0.0096
   90MOL    C2310881   0.207   7.273   4.985 -0.5697  0.1455  0.0809
   90MOL    H2410882   0.214   7.165   5.003  1.5536  0.3645  0.6771
   90MOL    H2510883   0.100   7.291   4.989 -0.3021  3.0693 -3.5434
   90MOL    C2610884   0.264   7.351   5.110  0.2232  0.3775  0.6203
   90MOL    F2710885   0.191   7.319   5.218  0.3303  0.2598 -0.1440
   90MOL    F2810886   0.389   7.309   5.128 -0.4185 -0.4801 -0.4285
   90MOL    C2910887   0.264   7.506   5.093  0.3580  0.0362  0.0224
   90MOL    H3010888   0.172   7.534   5.042  1.0045 -1.1478 -1.8629
   90MOL    H3110889   0.347   7.523   5.024 -0.9691 -0.2497 -1.6935
   90MOL    C3210890   0.267   7.590   5.215 -0.2252 -0.7218 -0.2762
   90MOL    F3310891   0.275   7.720   5.171  0.4920 -0.0999  0.4128
   90MOL    F3410892   0.162   7.578   5.291 -0.2908  0.3834  0.2106
   90MOL    C3510893   0.398   7.560   5.302  0.0529 -0.6082 -0.0584
   90MOL    H3610894   0.491   7.587   5.253  0.7595  0.2095  1.6976
   90MOL    H3710895   0.395   7.452   5.309 -1.3280 -0.7908 -2.6540
   90MOL    C3810896   0.405   7.618   5.452 -0.0081 -0.2188 -0.1627
   90MOL    F3910897   0.318   7.556   5.533 -0.4732  0.0428  0.2941
   90MOL    F4010898   0.532   7.592   5.491 -0.4600 -0.2074  0.3550
   90MOL    C4110899   0.380   7.769   5.458 -0.5552 -0.4370 -0.8140
   90MOL    H4210900   0.280   7.784   5.418 -0.5943  0.5465 -0.3649
   90MOL    H4310901   0.434   7.819   5.377 -0.9769  0.0845 -0.7766
   90MOL    C4410902   0.391   7.850   5.589  0.7173 -0.3031  0.2261
   90MOL    F4510903   0.367   7.978   5.556  0.3461 -0.6683  0.6045
   90MOL    F4610904   0.289   7.812   5.676 -0.0803  0.3798  0.4634
   90MOL    C4710905   0.530   7.843   5.650 -0.0109 -0.2282  0.4269
   90MOL    H4810906   0.603   7.877   5.577 -0.2842 -2.6600 -1.0424
   90MOL    H4910907   0.550   7.740   5.680 -3.6843 -0.8454  1.0678
   90MOL    C5010908   0.546   7.905   5.796 -0.0557  0.0647  0.9263
   90MOL    F5110909   0.468   8.010   5.796 -0.3128 -0.1056 -0.3931
   90MOL    F5210910   0.494   7.824   5.883  0.2189  0.0759 -0.5154
   90MOL    C5310911   0.690   7.949   5.848  0.6364 -0.1611  0.0881
   90MOL    H5410912   0.730   8.018   5.774 -1.3437 -1.0696 -1.8966
   90MOL    H5510913   0.765   7.870   5.844 -0.3732 -1.1629  0.7635
   90MOL    C5610914   0.698   8.014   5.990  0.0861  0.1373 -0.0634
   90MOL    F5710915   0.612   8.119   5.982 -0.8224  0.1706 -0.1070
   90MOL    F5810916   0.661   7.925   6.081  0.0090 -0.3807  0.4243
   90MOL    C5910917   0.841   8.063   6.031 -0.1225  0.2240 -0.5062
   90MOL    H6010918   0.832   8.100   6.133 -0.0193  0.5357 -0.6073
   90MOL    H6110919   0.860   8.150   5.968  1.9833 -0.1806 -0.4700
   90MOL    C6210920   0.953   7.961   6.061 -0.1228  0.1263 -0.0367
   90MOL    F6310921   0.910   7.895   6.172 -0.1769  0.2176 -0.2435
   90MOL    F6410922   0.977   7.872   5.968 -0.2816  0.5377 -0.4002
   90MOL    C6510923   1.098   8.015   6.101  0.0826 -0.0046 -0.3163
   90MOL    H6610924   1.154   7.928   6.134 -0.3239  0.3013  1.2338
   90MOL    H6710925   1.099   8.072   6.194  0.0086 -0.2020 -0.1936
   90MOL    C6810926   1.172   8.105   5.996 -0.2881 -0.2671  0.4089
   90MOL    F6910927   1.153   8.058   5.874 -0.1577 -0.0383 -0.9442
   90MOL    F7010928   1.119   8.230   5.997 -0.0538 -0.2305  0.5670
   90MOL    C7110929   1.331   8.112   6.003 -0.2017  0.4544  0.0612
   90MOL    H7210930   1.368   8.169   5.918  1.1449 -1.1642 -0.4708
   90MOL    H7310931   1.381   8.017   5.987  1.2721  1.1072  0.7502
   90MOL    C7410932   1.393   8.181   6.120  0.0207 -0.2691 -0.1849
   90MOL    F7510933   1.348   8.305   6.137  0.1565  0.7039  0.3133
   90MOL    F7610934   1.369   8.113   6.238 -0.3200  0.1479 -0.0762
   90MOL    C7710935   1.549   8.178   6.096  0.8016 -0.9213  0.5120
   90MOL    H7810936   1.573   8.232   6.004  0.6009  1.8224  2.0222
   90MOL    H7910937   1.587   8.076   6.092 -2.5541 -2.2550  1.6615
   90MOL    C8010938   1.638   8.243   6.202  0.0991  0.1048  1.2527
   90MOL    F8110939   1.760   8.246   6.143  0.6175  0.1113  0.3014
   90MOL    F8210940   1.593   0.015   6.223 -0.0464  0.0504 -0.1230
   90MOL    C8310941   1.650   8.182   6.344  0.2841  0.0101  0.1055
   90MOL    H8410942   1.679   8.077   6.346 -0.5176 -0.2389 -0.9421
   90MOL    H8510943   1.549   8.176   6.385  0.2588 -2.2428 -0.2723
   90MOL    C8610944   1.741   8.270   6.436  0.0239  0.5010 -0.1696
   90MOL    F8710945   1.856   8.297   6.378  0.1960  0.0845  0.5492
   90MOL    F8810946   1.677   0.042   6.464 -0.1098  0.0364 -0.2811
   90MOL    C8910947   1.771   8.197   6.572  0.6464  0.2416 -0.2141
   90MOL    H9010948   1.841   8.262   6.626 -1.4914  1.5011  1.1278
   90MOL    H9110949   1.831   8.109   6.548 -1.8200 -2.2854  2.4695
   90MOL    C9210950   1.653   8.167   6.663  0.0509  0.6575 -0.1342
   90MOL    F9310951   1.559   8.255   6.658 -0.6055 -0.4470  0.3578
   90MOL    F9410952   1.597   8.054   6.628  0.1054 -0.1338  0.1848
   90MOL    C9510953   1.706   8.167   6.814 -0.3055  0.1459 -0.6649
   90MOL    H9610954   1.741   8.266   6.843 -1.0194  0.2948 -0.3032
   90MOL    H9710955   1.792   8.100   6.808 -1.5042 -1.7605  2.4282
   90MOL    C9810956   1.610   8.117   6.925  0.2112 -0.2797  0.2928
   90MOL    F9910957   1.594   7.989   6.918 -0.3161 -0.6417  0.0687
   90MOL   F10010958   1.659   8.134   7.047  0.4077  0.0620  0.0812
   90MOL   C10110959   1.471   8.190   6.930  0.0147  0.0802  0.4337
   90MOL   H10210960   1.427   8.185   6.831  3.1147 -1.0083 -0.9217
   90MOL   H10310961   1.490   8.296   6.947  0.2227  0.3231 -1.2628
   90MOL   C10410962   1.372   8.127   7.034 -0.3593 -0.0559 -0.5346
   90MOL   F10510963   1.342   8.003   6.998 -0.1132  0.8382  0.2328
   90MOL   F10610964   1.430   8.115   7.149 -0.0523 -0.3377  0.1095
   90MOL   C10710965   1.245   8.213   7.056  0.7726  0.6368 -0.0448
   90MOL   H10810966   1.277   8.310   7.094  0.5649  0.6312  0.1439
   90MOL   H10910967   1.185   8.159   7.129  0.4759 -3.7407 -3.2929
   90MOL   C11010968   1.163   8.251   6.930 -0.3906  0.3334 -0.2268
   90MOL   F11110969   1.239   8.336   6.857  0.4258 -0.0134  0.2692
   90MOL   F11210970   1.135   8.146   6.854 -0.1016 -0.5638  0.5896
   90MOL   C11310971   1.024   8.307   6.963  0.8354 -0.9061  0.0920
   90MOL   H11410972   0.977   8.247   7.040  1.3932 -0.8799  0.4536
   90MOL   H11510973   0.965   8.293   6.873 -3.2320  1.1756  2.2856
   90MOL   C11610974   1.005   0.104   7.006 -0.2551  0.1905  0.0174
   90MOL   F11710975   1.080   0.122   7.112 -0.0068  0.2353 -0.0816
   90MOL   F11810976   1.050   0.187   6.912  0.4493  0.0644 -0.1599
   90MOL   C11910977   0.865   0.151   7.042  0.0366  0.4538  0.6507
   90MOL   H12010978   0.788   0.145   6.965  1.1164  2.8796 -0.6555
   90MOL   H12110979   0.871   0.258   7.063 -1.0996  0.7479 -0.4664
   90MOL   H12210980   0.830   0.085   7.121  1.8129  1.1220  2.0328
   91MOL     C110981   0.883   3.214   6.670  0.4120 -0.5440  0.8074
   91MOL     F210982   0.884   3.317   6.585  0.1793  0.4531  0.2679
   91MOL     F310983   0.747   3.202   6.697  0.3039  0.1364  0.0912
   91MOL     C410984   0.974   3.220   6.787 -0.2271 -0.4263 -0.4978
   91MOL     H510985   0.937   3.154   6.865 -1.0020  2.3199  1.5671
   91MOL     H610986   0.957   3.315   6.839 -1.2065 -0.0553 -1.4782
   91MOL     H710987   0.907   3.128   6.607  1.8142 -1.8653  3.0651
   91MOL     C810988   1.123   3.190   6.755 -0.6182 -1.0325  0.2239
   91MOL     F910989   1.120   3.067   6.704  0.1931  0.0437 -0.4585
   91MOL    F1010990   1.172   3.280   6.666  0.1142  0.3180  0.0653
   91MOL    C1110991   1.203   3.191   6.883 -0.4064 -0.6621 -0.0343
   91MOL    H1210992   1.187   3.105   6.950 -0.3031 -1.5704 -1.1658
   91MOL    H1310993   1.180   3.274   6.950  3.4221 -0.6926  1.4365
   91MOL    C1410994   1.358   3.203   6.852 -0.2388 -0.7888  0.7377
   91MOL    F1510995   1.382   3.324   6.804  0.4507 -0.3638  0.2194
   91MOL    F1610996   1.416   3.205   6.968  0.2628 -0.2020 -0.1064
   91MOL    C1710997   1.428   3.107   6.757  0.2755  0.0732  0.1553
   91MOL    H1810998   1.514   3.151   6.707 -1.0075  2.4097 -0.0853
   91MOL    H1910999   1.360   3.104   6.672 -1.3781 -0.9771  1.5055
   91MOL    C2011000   1.454   2.966   6.799 -0.0454 -0.5309 -0.3831
   91MOL    F2111001   1.469   2.962   6.927 -0.0009  0.3693  0.3575
   91MOL    F2211002   1.340   2.899   6.773 -0.6170 -0.1165 -0.3401
   91MOL    C2311003   1.573   2.895   6.737 -0.5331  0.5941  0.5663
   91MOL    H2411004   1.572   2.789   6.760  0.0276 -0.2226 -2.8865
   91MOL    H2511005   1.670   2.928   6.774 -0.2214  2.2054 -1.5801
   91MOL    C2611006   1.577   2.884   6.584 -0.4566  0.2439 -0.1795
   91MOL    F2711007   1.465   2.824   6.552 -0.2982 -0.0812 -0.3006
   91MOL    F2811008   1.588   3.007   6.528  0.2856 -0.3899  0.2650
   91MOL    C2911009   1.697   2.816   6.527 -0.3344 -0.2842 -0.9858
   91MOL    H3011010   1.792   2.863   6.552  1.1245 -2.1997 -2.6809
   91MOL    H3111011   1.682   2.814   6.419 -1.8444 -0.5558 -0.7849
   91MOL    C3211012   1.718   2.665   6.558  0.2472  0.1483 -0.1626
   91MOL    F3311013   1.764   2.650   6.685  0.3410 -0.3803 -0.2149
   91MOL    F3411014   1.608   2.588   6.539 -0.2701  0.2304 -0.1465
   91MOL    C3511015   1.829   2.605   6.470  0.4400 -0.4468  0.3276
   91MOL    H3611016   1.782   2.589   6.373 -0.1375  1.4632  0.2671
   91MOL    H3711017   1.844   2.506   6.513 -2.7992 -0.9384  0.4345
   91MOL    C3811018   1.958   2.678   6.450  0.8249 -0.1725  0.0339
   91MOL    F3911019   1.937   2.770   6.352  0.3444 -0.4526 -0.1097
   91MOL    F4011020   1.991   2.742   6.560 -0.0117 -0.1508  0.6136
   91MOL    C4111021   2.082   2.592   6.413  0.0664  0.3773  0.0893
   91MOL    H4211022   2.161   2.662   6.439  2.2288 -2.0339  0.2478
   91MOL    H4311023   2.089   2.586   6.305  0.5444  0.4062  0.1178
   91MOL    C4411024   2.118   2.459   6.476  0.2195  0.3060  0.0128
   91MOL    F4511025   2.108   2.477   6.607 -0.6944 -0.3160  0.5380
   91MOL    F4611026   2.032   2.367   6.440 -0.3000  0.0248 -0.0986
   91MOL    C4711027   2.259   2.411   6.444  0.1763  0.0263 -0.0761
   91MOL    H4811028   2.326   2.494   6.466  0.7418 -0.3177 -0.4619
   91MOL    H4911029   2.256   2.406   6.335 -1.8045 -1.8507  0.0330
   91MOL    C5011030   2.316   2.278   6.501  0.4332  0.7015  0.5711
   91MOL    F5111031   2.314   2.276   6.637 -0.2687 -0.0110  0.1798
   91MOL    F5211032   2.227   2.195   6.455 -0.4197 -0.1251  0.1739
   91MOL    C5311033   2.461   2.258   6.456  0.0177  0.3840  1.2059
   91MOL    H5411034   2.516   2.351   6.469  2.7605 -0.8730 -0.7186
   91MOL    H5511035   2.470   2.258   6.347  1.2661 -0.4360  1.2929
   91MOL    C5611036   2.521   2.120   6.508 -0.1892 -0.4043  0.5112
   91MOL    F5711037   2.537   2.129   6.637 -0.3205  0.1549  0.0807
   91MOL    F5811038   2.433   2.029   6.471  0.0325  0.2713 -0.6540
   91MOL    C5911039   2.668   2.101   6.450 -0.1310  0.6086  0.4659
   91MOL    H6011040   2.727   2.186   6.486  1.3841  0.0869 -0.7638
   91MOL    H6111041   2.652   2.117   6.343 -0.6343 -1.2657  0.2552
   91MOL    C6211042   2.754   1.976   6.478  0.4149  0.3765 -0.0003
   91MOL    F6311043   2.777   1.991   6.608 -0.3771 -0.1741 -0.0950
   91MOL    F6411044   2.680   1.865   6.459  0.0401  0.1606  0.3972
   91MOL    C6511045   2.884   1.954   6.396 -1.0250 -0.3314  0.6146
   91MOL    H6611046   2.868   1.931   6.291  0.9364 -0.4418  0.3343
   91MOL    H6711047   2.934   1.874   6.451 -1.4996  1.1441  3.2751
   91MOL    C6811048   3.001   2.056   6.393 -0.3287 -0.9791  0.5340
   91MOL    F6911049   2.950   2.155   6.320  0.5604 -0.1187  0.2037
   91MOL    F7011050   3.036   2.096   6.515 -0.1103 -0.2401  0.1175
   91MOL    C7111051   3.122   1.997   6.313  0.3515 -0.2599 -0.9890
   91MOL    H7211052   3.105   1.925   6.233 -2.0320  0.5467 -1.2406
   91MOL    H7311053   3.171   1.933   6.386 -0.9330 -1.5156 -1.2219
   91MOL    C7411054   3.217   2.104   6.261 -0.0379 -0.6722 -0.3178
   91MOL    F7511055   3.149   2.195   6.188 -0.5594 -0.6014 -0.0114
   91MOL    F7611056   3.281   2.159   6.365 -0.2024 -0.1977  0.4820
   91MOL    C7711057   3.321   2.044   6.169  0.2291 -0.4258  0.0346
   91MOL    H7811058   3.259   2.010   6.086 -1.3084 -0.8549  1.3349
   91MOL    H7911059   3.364   1.954   6.215  2.6144  1.0974  0.9153
   91MOL    C8011060   3.428   2.138   6.117 -0.1565 -0.5628 -0.0003
   91MOL    F8111061   3.363   2.238   6.051  0.2154 -0.4787 -0.7974
   91MOL    F8211062   3.492   2.195   6.219  0.9825  0.0025 -0.0454
   91MOL    C8311063   3.521   2.078   6.009  0.2225 -0.2806 -0.1201
   91MOL    H8411064   3.616   2.051   6.055 -0.7805 -2.1992  0.8661
   91MOL    H8511065   3.553   2.161   5.945 -0.2768 -0.9195 -1.2139
   91MOL    C8611066   3.467   1.975   5.909 -0.1328  0.2563  0.1523
   91MOL    F8711067   3.414   1.877   5.981 -0.2055 -0.4424 -0.0487
   91MOL    F8811068   3.373   2.042   5.840  0.1912  0.6508 -0.0894
   91MOL    C8911069   3.586   1.922   5.822 -0.2076  0.1638 -0.2505
   91MOL    H9011070   3.676   1.905   5.882  1.1724  2.5390 -1.5351
   91MOL    H9111071   3.607   2.012   5.764  1.8003 -0.1684 -0.0930
   91MOL    C9211072   3.553   1.797   5.739 -0.0310  0.6333 -0.2571
   91MOL    F9311073   3.667   1.760   5.683  0.1123 -0.0324  0.4501
   91MOL    F9411074   3.523   1.699   5.826  0.0876 -0.0271 -0.1768
   91MOL    C9511075   3.429   1.811   5.654 -0.2055  0.5060  0.1483
   91MOL    H9611076   3.450   1.889   5.581  0.9921 -0.6634 -0.8007
   91MOL    H9711077   3.352   1.851   5.720  0.0837 -0.2752  0.9745
   91MOL    C9811078   3.374   1.687   5.580  0.1381 -0.6688 -0.0554
   91MOL    F9911079   3.466   1.638   5.502 -0.0263  0.5011  0.2012
   91MOL   F10011080   3.337   1.596   5.672  0.3213  0.0603 -0.0035
   91MOL   C10111081   3.240   1.721   5.506 -0.0128  0.0105 -0.0612
   91MOL   H10211082   3.263   1.804   5.440 -2.5541  1.3344  0.6446
   91MOL   H10311083   3.177   1.762   5.585  0.0913 -2.4125  1.3297
   91MOL   C10411084   3.163   1.601   5.444  0.0797  0.0123 -0.3466
   91MOL   F10511085   3.118   1.532   5.548  0.0869 -0.5643 -0.2078
   91MOL   F10611086   3.062   1.656   5.373 -0.0127 -0.2272 -0.2036
   91MOL   C10711087   3.240   1.509   5.352 -0.8629 -0.3786 -0.2522
   91MOL   H10811088   3.325   1.466   5.404  0.8974  0.3763 -2.3934
   91MOL   H10911089   3.282   1.559   5.264  0.7136  1.2337  1.3675
   91MOL   C11011090   3.161   1.387   5.302 -0.0169  0.3785 -0.2411
   91MOL   F11111091   3.133   1.319   5.412 -0.4391 -0.0575  0.3051
   91MOL   F11211092   3.048   1.422   5.240  0.2400 -0.3673  0.7880
   91MOL   C11311093   3.241   1.288   5.204  0.1966 -0.5505 -0.7084
   91MOL   H11411094   3.177   1.201   5.190 -3.2484  1.9166 -1.1179
   91MOL   H11511095   3.328   1.248   5.255 -0.2053 -1.2531 -0.5773
   91MOL   C11611096   3.267   1.339   5.057  0.3810 -0.4812 -0.1812
   91MOL   F11711097   3.149   1.341   4.997 -0.2363  0.2610 -0.1119
   91MOL   F11811098   3.326   1.461   5.049 -0.4360 -0.0628 -0.2300
   91MOL   C11911099   3.353   1.239   4.980  0.4447  0.3191  0.2585
   91MOL   H12011100   3.362   1.257   4.873 -0.5972 -0.0946  0.0955
   91MOL   H12111101   3.311   1.139   4.995 -2.1263  1.1515 -1.1742
   91MOL   H12211102   3.450   1.236   5.030  0.1555  0.0235  0.8074
   92MOL     C111103   6.746   7.790   2.385  0.7620  0.5420 -0.4101
   92MOL     F211104   6.780   7.850   2.493 -0.1029  0.0717 -0.4243
   92MOL     F311105   6.627   7.727   2.393  0.2964 -0.3331 -0.3999
   92MOL     C411106   6.855   7.693   2.343  0.6630  0.5677 -0.6169
   92MOL     H511107   6.821   7.626   2.264  3.3775 -0.5220 -0.9233
   92MOL     H611108   6.877   7.619   2.420  0.8488 -0.2879 -1.4863
   92MOL     H711109   6.733   7.866   2.307 -1.0956  2.1480  1.3785
   92MOL     C811110   6.979   7.768   2.293 -0.0828  0.4145  0.4474
   92MOL     F911111   7.063   7.682   2.243  0.2969 -0.2407 -0.0208
   92MOL    F1011112   6.927   7.847   2.199 -0.6517 -0.0534  0.0226
   92MOL    C1111113   7.063   7.844   2.400  0.0601 -0.1255 -0.2273
   92MOL    H1211114   7.077   7.783   2.489 -0.0244  1.2770  0.7630
   92MOL    H1311115   7.004   7.924   2.444 -0.2107 -0.8204  0.6835
   92MOL    C1411116   7.199   7.896   2.345  0.2094 -0.5240  0.4976
   92MOL    F1511117   7.256   7.946   2.453  0.6157  0.0844 -0.0003
   92MOL    F1611118   7.283   7.803   2.297 -0.0108 -0.1320  0.3148
   92MOL    C1711119   7.179   8.005   2.230  0.5083 -0.1488 -0.0087
   92MOL    H1811120   7.105   8.075   2.269  0.5376  0.3275 -0.8082
   92MOL    H1911121   7.138   7.960   2.140  2.4755  0.4183 -1.2212
   92MOL    C2011122   7.305   8.075   2.176 -0.1321 -0.2835 -0.3842
   92MOL    F2111123   7.365   8.144   2.277 -0.1342  0.2538 -0.1943
   92MOL    F2211124   7.389   7.981   2.132 -0.2344 -0.0473 -0.0064
   92MOL    C2311125   7.279   8.171   2.048  0.3611  0.0177 -0.5734
   92MOL    H2411126   7.236   8.262   2.089  1.4383 -0.4775  1.7393
   92MOL    H2511127   7.208   8.125   1.979 -2.3142  0.4729  1.8154
   92MOL    C2611128   7.403   8.222   1.974 -0.6300  0.6913  0.2040
   92MOL    F2711129   7.450   8.112   1.917  0.3782  0.4711 -0.3336
   92MOL    F2811130   7.374   8.315   1.879  0.4667  0.2452  0.4120
   92MOL    C2911131   7.518   8.276   2.047 -0.5377 -0.3954 -0.6045
   92MOL    H3011132   7.595   8.289   1.971 -0.3759 -1.6899 -0.6723
   92MOL    H3111133   7.556   8.201   2.116  0.4466 -0.5288 -1.2650
   92MOL    C3211134   7.504   0.065   2.129  0.3273 -0.1441 -0.2041
   92MOL    F3311135   7.423   0.156   2.067  0.2970 -0.0523  0.0867
   92MOL    F3411136   7.449   0.031   2.246 -0.0491  0.7160 -0.1659
   92MOL    C3511137   7.644   0.132   2.158  0.1938  0.6163 -0.1969
   92MOL    H3611138   7.629   0.236   2.190 -1.2319  0.4939 -0.4433
   92MOL    H3711139   7.697   0.136   2.063 -1.0342 -1.1669 -0.9863
   92MOL    C3811140   7.737   0.073   2.269 -0.2898  0.2965 -0.3904
   92MOL    F3911141   7.665   0.086   2.381  0.3887  0.6869  0.1249
   92MOL    F4011142   7.752   8.289   2.253 -0.0713  0.5811  0.7422
   92MOL    C4111143   7.867   0.146   2.268 -0.5231 -0.1333 -0.3688
   92MOL    H4211144   7.910   0.126   2.366 -1.2364  2.6642  0.5585
   92MOL    H4311145   7.853   0.254   2.276  1.3877  0.1272 -0.1569
   92MOL    C4411146   7.975   0.129   2.159 -0.2183 -0.0682  0.6593
   92MOL    F4511147   7.995   0.002   2.133  0.2865 -0.4713  0.0194
   92MOL    F4611148   7.926   0.189   2.049 -0.2966 -0.1937 -0.0075
   92MOL    C4711149   8.118   0.192   2.186 -0.5677  0.3126 -0.3590
   92MOL    H4811150   8.100   0.299   2.200  1.2308  0.3022  2.3233
   92MOL    H4911151   8.171   0.175   2.092 -2.7375 -1.1159 -1.3646
   92MOL    C5011152   8.197   0.142   2.308 -0.3456  0.1166  0.0242
   92MOL    F5111153   8.139   0.195   2.417  0.0945 -0.1278  0.2042
   92MOL    F5211154   8.191   0.005   2.308 -0.0574  0.4183 -0.0532
   92MOL    C5311155   8.347   0.184   2.305  0.0148  0.6010  0.5470
   92MOL    H5411156   0.041   0.158   2.209 -1.4059 -1.4373  0.4001
   92MOL    H5511157   0.060   0.128   2.376  1.4194  0.3311 -0.8774
   92MOL    C5611158   0.019   0.337   2.330 -0.1504 -0.2888 -0.2668
   92MOL    F5711159   8.310   0.413   2.240  0.2256  0.1212  0.2777
   92MOL    F5811160   8.326   0.366   2.449 -0.2317  0.2051 -0.2707
   92MOL    C5911161   0.172   0.371   2.331 -0.2401  0.5739 -0.2649
   92MOL    H6011162   0.219   0.344   2.236 -1.2829  0.7110 -0.8262
   92MOL    H6111163   0.227   0.335   2.418  1.4762 -2.0299 -2.3490
   92MOL    C6211164   0.201   0.524   2.330  0.0266  0.3523  0.2696
   92MOL    F6311165   0.172   0.579   2.207  0.1170  0.1208  0.1570
   92MOL    F6411166   0.118   0.583   2.418 -0.1406  0.1682  0.0841
   92MOL    C6511167   0.352   0.566   2.367  0.1913 -0.3634 -0.2866
   92MOL    H6611168   0.418   0.506   2.305 -0.0020 -2.2590  1.2720
   92MOL    H6711169   0.356   0.532   2.471 -1.0912 -1.4215 -0.5771
   92MOL    C6811170   0.393   0.709   2.376 -0.4113 -0.9898  0.1790
   92MOL    F6911171   0.303   0.781   2.442  0.4358 -0.1714 -0.7950
   92MOL    F7011172   0.510   0.723   2.450 -0.5219 -0.0588  0.2425
   92MOL    C7111173   0.410   0.789   2.242  0.3799  0.3346 -0.0218
   92MOL    H7211174   0.437   0.893   2.259 -0.4267  0.1790  2.3852
   92MOL    H7311175   0.312   0.801   2.196  0.3729 -2.3775 -0.7804
   92MOL    C7411176   0.499   0.722   2.134  0.0618 -0.2035  0.2656
   92MOL    F7511177   0.596   0.665   2.201 -0.1868 -0.7026  0.4090
   92MOL    F7611178   0.434   0.620   2.078 -0.0815 -0.2615 -0.6624
   92MOL    C7711179   0.548   0.814   2.020  0.2801 -0.9413 -0.0037
   92MOL    H7811180   0.629   0.762   1.969 -0.5289 -0.5328 -1.7177
   92MOL    H7911181   0.592   0.900   2.070  0.1202  0.0144 -1.4891
   92MOL    C8011182   0.454   0.884   1.923  0.6178  0.7947 -0.2459
   92MOL    F8111183   0.402   0.975   2.004 -0.1686 -0.2281  0.0954
   92MOL    F8211184   0.526   0.949   1.838  0.4452 -0.0507  0.1247
   92MOL    C8311185   0.346   0.798   1.851 -0.2097  0.0085  0.2433
   92MOL    H8411186   0.279   0.767   1.931 -1.8367  2.3467 -0.1425
   92MOL    H8511187   0.400   0.713   1.810 -1.4861 -0.8979  0.4338
   92MOL    C8611188   0.268   0.869   1.741  0.7043 -0.5721 -0.4224
   92MOL    F8711189   0.345   0.896   1.633  0.6550 -0.1909  0.4504
   92MOL    F8811190   0.166   0.788   1.696 -0.3492 -0.0650  0.0202
   92MOL    C8911191   0.203   1.009   1.775 -1.0960 -0.1584 -0.4333
   92MOL    H9011192   0.270   1.092   1.796 -1.1676 -0.5550  1.4266
   92MOL    H9111193   0.143   0.992   1.864 -0.9150 -1.8490 -0.6098
   92MOL    C9211194   0.100   1.064   1.664 -0.3711  0.0340  0.1855
   92MOL    F9311195   0.165   1.084   1.552 -0.2202 -0.0764  0.2479
   92MOL    F9411196   0.001   0.978   1.650  0.3270  0.3025  0.2010
   92MOL    C9511197   0.039   1.195   1.712  0.5169  0.0645 -0.2897
   92MOL    H9611198   0.114   1.273   1.721 -0.1892  0.7233 -0.1236
   92MOL    H9711199   0.007   1.181   1.815 -0.1524 -1.2733 -0.6632
   92MOL    C9811200   8.280   1.244   1.626 -0.2189 -0.0831 -0.4633
   92MOL    F9911201   8.177   1.159   1.636  0.1827  0.0195  0.5683
   92MOL   F10011202   8.225   1.358   1.670  0.4353 -0.0178 -0.2968
   92MOL   C10111203   8.318   1.279   1.473  0.1365 -0.0530 -0.6450
   92MOL   H10211204   8.232   1.304   1.409 -1.2682  0.9848  1.5897
   92MOL   H10311205   8.342   1.187   1.420 -0.5331  0.6424 -2.1986
   92MOL   C10411206   0.081   1.385   1.446  0.1688 -0.0321 -0.4913
   92MOL   F10511207   0.195   1.355   1.507  0.0760 -0.1246 -0.2172
   92MOL   F10611208   0.095   1.387   1.317 -0.4325 -0.5920 -1.0456
   92MOL   C10711209   0.031   1.526   1.488 -0.7227  0.3137  0.4343
   92MOL   H10811210   0.025   1.520   1.597  3.4465 -0.0413  0.7182
   92MOL   H10911211   8.281   1.540   1.445 -0.6347  1.8313  0.7140
   92MOL   C11011212   0.116   1.643   1.444  0.2143 -0.1279  0.7336
   92MOL   F11111213   0.115   1.650   1.314 -0.0975  0.0495  0.0706
   92MOL   F11211214   0.067   1.753   1.504 -0.3039  0.2325 -0.6361
   92MOL   C11311215   0.265   1.629   1.478 -0.5724 -0.3543  0.2397
   92MOL   H11411216   0.310   1.551   1.417 -0.5100 -0.3108  0.2305
   92MOL   H11511217   0.275   1.589   1.579 -1.6662 -1.1483  0.0512
   92MOL   C11611218   0.350   1.757   1.455 -0.1240  0.3191 -0.1926
   92MOL   F11711219   0.473   1.734   1.492  0.2810  0.1542 -0.2978
   92MOL   F11811220   0.353   1.794   1.325  0.1966 -0.4466  0.0858
   92MOL   C11911221   0.291   1.884   1.526 -0.0800  0.3107 -0.2286
   92MOL   H12011222   0.366   1.961   1.543  2.4543 -2.6227  2.6214
   92MOL   H12111223   0.258   1.855   1.626 -0.3410  0.5192 -0.2557
   92MOL   H12211224   0.214   1.930   1.464 -0.5420 -0.4033 -0.1913
   93MOL     C111225   6.043   1.456   6.315 -0.4347 -0.2331  0.5150
   93MOL     F211226   6.087   1.525   6.417  0.1322  0.4829  0.0651
   93MOL     F311227   6.066   1.535   6.207 -0.2843 -0.0869 -1.1730
   93MOL     C411228   5.892   1.427   6.335 -0.3616  0.3468 -0.0955
   93MOL     H511229   5.849   1.386   6.243 -1.9594 -1.5852  1.4734
   93MOL     H611230   5.846   1.525   6.350 -0.1869  0.3141  0.6550
   93MOL     H711231   6.102   1.365   6.316  0.6339  0.4215 -0.7310
   93MOL     C811232   5.867   1.310   6.439  0.0615 -0.7889 -0.3650
   93MOL     F911233   5.917   1.196   6.400  0.2546 -0.2299 -0.5447
   93MOL    F1011234   5.925   1.346   6.558  0.1724 -0.4468  0.1841
   93MOL    C1111235   5.722   1.286   6.475  0.3114 -0.4902  0.4098
   93MOL    H1211236   5.715   1.195   6.535 -0.3935 -1.9915 -1.9203
   93MOL    H1311237   5.670   1.257   6.384 -1.0915 -0.3558  1.1409
   93MOL    C1411238   5.644   1.406   6.534 -0.7118  0.4920  1.0354
   93MOL    F1511239   5.717   1.452   6.635  0.0838  0.6361  0.0902
   93MOL    F1611240   5.621   1.507   6.454  0.9987 -0.2608  0.2721
   93MOL    C1711241   5.505   1.364   6.594 -0.7552 -0.3412  0.3177
   93MOL    H1811242   5.460   1.447   6.648 -0.1275  0.1160  0.1520
   93MOL    H1911243   5.527   1.282   6.662  1.5812 -0.5702 -0.6633
   93MOL    C2011244   5.394   1.330   6.494  0.5979  0.1308  1.1802
   93MOL    F2111245   5.435   1.233   6.412 -0.3628 -0.1499  0.0217
   93MOL    F2211246   5.290   1.282   6.559  0.1423 -0.2412 -0.0593
   93MOL    C2311247   5.346   1.450   6.398  0.0537 -0.3535  0.6511
   93MOL    H2411248   5.434   1.480   6.341 -0.3281 -1.7476 -0.7110
   93MOL    H2511249   5.310   1.543   6.442 -0.3701 -0.2139  0.0294
   93MOL    C2611250   5.241   1.413   6.294  0.2865 -1.1759  0.6651
   93MOL    F2711251   5.243   1.508   6.200 -0.3479 -0.4815 -0.0265
   93MOL    F2811252   5.266   1.299   6.227  0.1773 -0.3841  0.1156
   93MOL    C2911253   5.097   1.382   6.346  1.0935 -0.0765 -0.5466
   93MOL    H3011254   5.093   1.293   6.409  1.1484 -0.5405 -1.1964
   93MOL    H3111255   5.046   1.358   6.252  0.7012  1.7739 -0.8304
   93MOL    C3211256   5.019   1.494   6.422 -1.2662  0.6660  0.0278
   93MOL    F3311257   4.916   1.429   6.468 -0.0478  0.5143  0.2068
   93MOL    F3411258   5.083   1.537   6.531  0.1470  0.1322  0.1581
   93MOL    C3511259   4.982   1.606   6.332  0.2257  0.9985 -0.2760
   93MOL    H3611260   4.950   1.567   6.236  1.2307  0.8802 -0.5682
   93MOL    H3711261   5.080   1.650   6.317  1.7989 -2.0454  0.7290
   93MOL    C3811262   4.893   1.714   6.391 -0.1591  0.4536  0.4407
   93MOL    F3911263   4.771   1.661   6.409  0.0131 -0.0329  1.0864
   93MOL    F4011264   4.942   1.756   6.512  0.1652 -0.6605  0.0535
   93MOL    C4111265   4.882   1.829   6.290 -0.4576  0.1254  0.0109
   93MOL    H4211266   4.790   1.876   6.325  0.4612  0.0301  2.6413
   93MOL    H4311267   4.856   1.787   6.192  0.4824 -0.0663 -0.1595
   93MOL    C4411268   5.004   1.928   6.280 -0.3135 -0.1722  0.1994
   93MOL    F4511269   5.004   1.990   6.403  0.1814  0.2816  0.0988
   93MOL    F4611270   5.116   1.856   6.258 -0.7732 -0.1287 -0.1610
   93MOL    C4711271   4.973   2.035   6.168  0.4236  0.3556  0.0175
   93MOL    H4811272   4.890   2.098   6.199  0.4391 -0.9197  2.7786
   93MOL    H4911273   4.941   1.976   6.082 -2.1776  1.3618  0.2430
   93MOL    C5011274   5.094   2.118   6.134  0.5059  0.1605 -0.2144
   93MOL    F5111275   5.146   2.177   6.234 -0.1686 -0.7957 -0.2198
   93MOL    F5211276   5.183   2.032   6.086  0.5047  0.2187 -0.2762
   93MOL    C5311277   5.087   2.221   6.027 -0.3392  0.5026  0.0405
   93MOL    H5411278   5.002   2.284   6.054  0.0729  1.5125 -0.9615
   93MOL    H5511279   5.056   2.163   5.940  0.4616 -0.1190  0.1629
   93MOL    C5611280   5.211   2.308   6.007 -0.1106  0.0693 -0.2687
   93MOL    F5711281   5.218   2.399   6.112 -0.4365 -0.0183  0.3398
   93MOL    F5811282   5.323   2.231   6.009  0.3541 -0.3204  0.0494
   93MOL    C5911283   5.205   2.390   5.879  0.7906 -0.3065  0.8953
   93MOL    H6011284   5.289   2.459   5.868 -0.0639  1.1585  3.0695
   93MOL    H6111285   5.118   2.455   5.890  0.2591 -0.6933 -0.9381
   93MOL    C6211286   5.190   2.307   5.744  0.0406  0.0125 -0.1650
   93MOL    F6311287   5.281   2.214   5.732 -0.0070  0.0863 -0.2215
   93MOL    F6411288   5.069   2.260   5.739  0.1016  0.6150 -0.1323
   93MOL    C6511289   5.210   2.401   5.628 -0.6996 -0.2487 -0.1791
   93MOL    H6611290   5.314   2.435   5.633 -0.8708  0.5698 -1.9278
   93MOL    H6711291   5.159   2.497   5.642  2.2986  1.2500  1.0123
   93MOL    C6811292   5.173   2.346   5.487  0.6994 -0.2160  0.6134
   93MOL    F6911293   5.038   2.320   5.490 -0.3343 -0.0138 -0.4472
   93MOL    F7011294   5.203   2.451   5.406  0.3522  0.4289 -0.3304
   93MOL    C7111295   5.255   2.221   5.453  0.3251 -0.3350  0.2672
   93MOL    H7211296   5.217   2.138   5.511  0.8675 -0.5828  0.2764
   93MOL    H7311297   5.353   2.248   5.492 -0.7689  4.1859  0.0865
   93MOL    C7411298   5.263   2.173   5.305 -0.3823  0.1421  0.3042
   93MOL    F7511299   5.323   2.258   5.218  0.1442  0.0553  0.0391
   93MOL    F7611300   5.334   2.061   5.306  0.5098 -0.0071 -0.0154
   93MOL    C7711301   5.120   2.151   5.245  0.4257 -0.6949  0.6834
   93MOL    H7811302   5.080   2.251   5.229  0.1769 -0.5393  2.2532
   93MOL    H7911303   5.064   2.096   5.321 -0.7888  0.0950  0.3835
   93MOL    C8011304   5.103   2.081   5.110  0.4536 -0.3566 -0.1267
   93MOL    F8111305   5.185   2.135   5.019 -0.0424 -0.2840 -0.1393
   93MOL    F8211306   5.136   1.956   5.127 -0.2808 -0.6729  0.2589
   93MOL    C8311307   4.964   2.068   5.045 -0.5082  0.3228 -0.7702
   93MOL    H8411308   4.899   2.011   5.111 -1.2398 -0.6289 -2.2828
   93MOL    H8511309   4.983   2.004   4.959 -1.6652  0.3198 -1.0317
   93MOL    C8611310   4.901   2.199   4.996 -0.2444 -0.4183 -0.6174
   93MOL    F8711311   4.878   2.280   5.102  0.1318  0.2364  0.1642
   93MOL    F8811312   4.979   2.259   4.903  0.1553  0.0011 -0.2036
   93MOL    C8911313   4.774   2.160   4.923 -0.4195  0.1340  0.8266
   93MOL    H9011314   4.706   2.114   4.996 -0.5223  0.7251  1.1026
   93MOL    H9111315   4.800   2.081   4.852  0.0966  1.3542 -0.3526
   93MOL    C9211316   4.698   2.267   4.848 -0.2586 -0.0985 -0.4808
   93MOL    F9311317   4.671   2.354   4.944  0.0898  0.1077 -0.0454
   93MOL    F9411318   4.781   2.325   4.758 -0.0454 -0.3964  0.3318
   93MOL    C9511319   4.559   2.227   4.781 -0.0350  0.5444 -0.1439
   93MOL    H9611320   4.509   2.165   4.854  1.0521  2.5037  2.3340
   93MOL    H9711321   4.588   2.162   4.699 -1.6629 -0.4978  0.0958
   93MOL    C9811322   4.471   2.335   4.723 -0.3201  0.4976  0.9877
   93MOL    F9911323   4.455   2.439   4.802 -0.6501  0.2747  0.1288
   93MOL   F10011324   4.544   2.379   4.623  0.1687  0.1156 -0.0920
   93MOL   C10111325   4.337   2.278   4.675  0.0228 -0.3278  1.2647
   93MOL   H10211326   4.289   2.225   4.758 -0.8180  0.2253  1.1402
   93MOL   H10311327   4.356   2.193   4.610 -3.6831  1.8563 -2.9374
   93MOL   C10411328   4.234   2.378   4.616 -0.5009  0.2883  0.0215
   93MOL   F10511329   4.208   2.476   4.704  0.0451 -0.3263  0.1374
   93MOL   F10611330   4.275   2.441   4.505  0.2688 -0.0215  0.1081
   93MOL   C10711331   4.096   2.310   4.588  0.0490  0.8323  0.6628
   93MOL   H10811332   4.021   2.383   4.557 -0.0293  0.2558 -0.5246
   93MOL   H10911333   4.059   2.279   4.686  0.0468  0.4246  0.5325
   93MOL   C11011334   4.086   2.198   4.480 -0.4506  0.8062 -0.0564
   93MOL   F11111335   4.157   2.222   4.369  0.2269 -0.0577 -0.1768
   93MOL   F11211336   4.126   2.083   4.525 -0.0168  0.5267 -0.0479
   93MOL   C11311337   3.931   2.186   4.442 -0.3754  0.3507 -0.4996
   93MOL   H11411338   3.926   2.103   4.371 -0.0270 -0.4370  0.3854
   93MOL   H11511339   3.908   2.277   4.387 -0.7847 -0.4871 -1.7366
   93MOL   C11611340   3.830   2.149   4.558 -0.0418 -0.3372  0.1614
   93MOL   F11711341   3.890   2.061   4.647  0.2618  0.1464 -0.7867
   93MOL   F11811342   3.798   2.258   4.627  0.1997 -0.8241  0.0573
   93MOL   C11911343   3.705   2.089   4.489  0.0121 -0.4970  0.1446
   93MOL   H12011344   3.672   2.148   4.403  1.9064 -0.1219 -0.3444
   93MOL   H12111345   3.622   2.082   4.560 -0.5536  0.9993 -0.3589
   93MOL   H12211346   3.726   1.986   4.461 -0.9740 -0.4483 -0.8173
   94MOL     C111347   6.042   6.929   7.411  0.2520 -0.4168 -0.0241
   94MOL     F211348   5.936   7.001   7.356  0.0600 -0.0261  0.2257
   94MOL     F311349   6.131   7.023   7.455  0.2769  0.1881 -0.4861
   94MOL     C411350   6.120   6.842   7.316  0.6491  0.7974 -0.5795
   94MOL     H511351   6.204   6.790   7.362 -0.5288 -0.3625  0.2730
   94MOL     H611352   6.181   6.889   7.239  1.2217 -0.4331 -0.9023
   94MOL     H711353   6.014   6.883   7.506  2.4989 -2.2965 -0.2100
   94MOL     C811354   6.040   6.741   7.237  0.9064  0.0312  0.2407
   94MOL     F911355   5.988   6.654   7.324 -0.0264 -0.0557  0.1459
   94MOL    F1011356   5.939   6.797   7.165 -0.2340  0.4394  0.7083
   94MOL    C1111357   6.139   6.662   7.145 -0.7864  1.0030 -0.4533
   94MOL    H1211358   6.223   6.612   7.195  0.4250  1.8160 -1.6270
   94MOL    H1311359   6.189   6.743   7.093 -0.2228  1.0692  0.1731
   94MOL    C1411360   6.074   6.550   7.061  0.9317  0.8394 -0.2810
   94MOL    F1511361   6.174   6.473   7.010  0.7308  0.0016 -0.1690
   94MOL    F1611362   6.003   6.470   7.130  0.4104  0.1681 -0.2415
   94MOL    C1711363   5.983   6.592   6.944 -0.6285 -0.3371 -0.0978
   94MOL    H1811364   5.908   6.658   6.987  0.5198 -1.0023  3.0160
   94MOL    H1911365   5.930   6.503   6.909 -0.4416 -0.0472 -1.1404
   94MOL    C2011366   6.051   6.647   6.814  0.6066  0.1547 -0.2630
   94MOL    F2111367   6.117   6.760   6.844 -0.3239  0.0690 -0.4498
   94MOL    F2211368   6.142   6.560   6.778  0.4258 -0.6989 -0.0682
   94MOL    C2311369   5.946   6.672   6.705 -0.0196  0.2887 -0.7596
   94MOL    H2411370   5.914   6.581   6.655 -0.6005  0.1289 -0.1025
   94MOL    H2511371   5.991   6.730   6.624 -0.3194  0.9047 -0.4922
   94MOL    C2611372   5.820   6.753   6.751 -0.0004  0.9926 -0.4260
   94MOL    F2711373   5.754   6.759   6.635  0.3428  0.1270  0.0678
   94MOL    F2811374   5.745   6.673   6.823  0.1290 -0.2953  0.3390
   94MOL    C2911375   5.849   6.894   6.810 -1.0345  0.1131 -0.1684
   94MOL    H3011376   5.900   6.943   6.727 -0.8693 -0.4391 -0.3945
   94MOL    H3111377   5.926   6.886   6.886 -0.9979  0.3591 -0.1781
   94MOL    C3211378   5.736   6.971   6.883  0.2604 -0.1321  0.2155
   94MOL    F3311379   5.696   6.924   6.989  0.0209  0.0065  0.6585
   94MOL    F3411380   5.795   7.088   6.914 -0.1360 -0.5764 -0.1462
   94MOL    C3511381   5.607   6.999   6.803  0.4361  0.4379 -0.0562
   94MOL    H3611382   5.561   6.905   6.771 -2.9550  2.0941 -0.2462
   94MOL    H3711383   5.632   7.051   6.711 -2.4667 -0.5039 -1.4443
   94MOL    C3811384   5.486   7.070   6.876  0.1737  0.6087 -0.1685
   94MOL    F3911385   5.516   7.182   6.935 -0.8396 -0.1594 -0.4052
   94MOL    F4011386   5.397   7.100   6.786  0.1309 -0.0967 -0.1658
   94MOL    C4111387   5.411   6.974   6.976  0.2532 -0.2956 -0.0486
   94MOL    H4211388   5.480   6.958   7.059 -1.2537 -0.1668  1.2559
   94MOL    H4311389   5.386   6.881   6.926  0.9609 -0.5039 -0.0277
   94MOL    C4411390   5.281   7.024   7.041  0.1034 -0.0007  0.6700
   94MOL    F4511391   5.197   7.068   6.948  0.1930 -0.1106 -0.0353
   94MOL    F4611392   5.227   6.912   7.092 -0.2947 -0.0780 -0.1494
   94MOL    C4711393   5.299   7.138   7.149 -0.5421 -0.7330  0.8187
   94MOL    H4811394   5.326   7.232   7.101  1.3650 -1.2691  0.8217
   94MOL    H4911395   5.383   7.113   7.214  1.3080  3.4249  0.2125
   94MOL    C5011396   5.174   7.155   7.233  0.6629 -0.2787 -1.1799
   94MOL    F5111397   5.074   7.183   7.147 -0.0243 -0.0592  0.0238
   94MOL    F5211398   5.143   7.041   7.303 -0.1357 -0.1284 -0.6296
   94MOL    C5311399   5.163   7.275   7.324 -0.8969 -0.2202 -0.8890
   94MOL    H5411400   5.180   7.361   7.260  0.3500 -0.6615 -1.1663
   94MOL    H5511401   5.258   7.263   7.376 -1.5705 -1.5419  0.0637
   94MOL    C5611402   5.040   7.303   7.408  0.8316 -0.1656  0.4574
   94MOL    F5711403   4.940   7.340   7.329  0.0497  0.3290 -0.3501
   94MOL    F5811404   5.011   7.189   7.471 -0.2479 -0.3484 -0.5658
   94MOL    C5911405   5.068   7.404   7.522 -0.1909  0.7186  0.3842
   94MOL    H6011406   5.126   7.353   7.599  1.5115  1.8751 -0.0963
   94MOL    H6111407   4.974   7.421   7.574 -0.7287  0.8168 -0.5983
   94MOL    C6211408   5.126   7.539   7.480  0.3968 -0.0661  1.3168
   94MOL    F6311409   5.250   7.512   7.448  0.3399  0.3157  0.0435
   94MOL    F6411410   5.065   7.592   7.377 -0.6652  0.1596 -0.1681
   94MOL    C6511411   5.131   7.639   7.601  0.1258 -0.1262  0.3243
   94MOL    H6611412   5.182   7.731   7.571 -1.9407  0.5742 -1.1475
   94MOL    H6711413   5.186   7.597   7.685  0.6100  3.4326  1.9174
   94MOL    C6811414   5.002   7.701   7.658 -0.0357  0.0204  0.2276
   94MOL    F6911415   4.924   7.762   7.567  0.0604 -0.0644  0.1748
   94MOL    F7011416   4.930   7.611   7.720  0.0047 -0.8265 -0.3939
   94MOL    C7111417   5.032   7.807   7.770  0.2354  0.1705 -0.3541
   94MOL    H7211418   5.080   7.762   7.857  2.2395  0.8738 -1.0682
   94MOL    H7311419   4.938   7.861   7.786  1.6734  3.2126 -1.6564
   94MOL    C7411420   5.127   7.923   7.734 -0.0054  0.4853 -0.0207
   94MOL    F7511421   5.248   7.874   7.727 -0.4912 -0.1339 -0.0944
   94MOL    F7611422   5.075   7.981   7.624 -0.5513 -0.3818 -0.4847
   94MOL    C7711423   5.121   8.026   7.845 -0.3322  0.3541  0.0222
   94MOL    H7811424   5.165   7.984   7.935 -2.8289 -1.3134  0.5312
   94MOL    H7911425   5.016   8.037   7.873  0.2786 -0.3108  2.7609
   94MOL    C8011426   5.197   8.156   7.818  0.1468 -0.2058  0.5356
   94MOL    F8111427   5.135   8.216   7.715 -0.1264  0.0579 -0.2805
   94MOL    F8211428   5.185   8.220   7.934 -0.0340  0.2061  0.1695
   94MOL    C8311429   5.353   8.160   7.780 -0.7275 -0.4216 -0.1894
   94MOL    H8411430   5.364   8.131   7.675  1.0833  1.7752 -0.6266
   94MOL    H8511431   5.408   8.096   7.849 -1.5763 -2.2635 -1.1638
   94MOL    C8611432   5.411   8.303   7.782 -0.7539 -0.3814 -0.0695
   94MOL    F8711433   5.409   0.005   7.905  0.0033  0.1711 -0.1526
   94MOL    F8811434   5.535   8.294   7.748 -0.8166  0.2155 -0.3410
   94MOL    C8911435   5.331   0.051   7.686 -0.4047 -0.2572  1.0771
   94MOL    H9011436   5.230   0.075   7.719 -1.4690 -0.1319 -2.0998
   94MOL    H9111437   5.308   0.001   7.592 -0.7673 -2.0256  2.0877
   94MOL    C9211438   5.390   0.191   7.667 -0.3793 -0.2007  0.3576
   94MOL    F9311439   5.399   0.258   7.781  0.2607  0.3499 -0.1534
   94MOL    F9411440   5.509   0.172   7.618  0.1599 -0.1618  0.0122
   94MOL    C9511441   5.314   0.274   7.566 -0.2039 -0.0623 -0.3948
   94MOL    H9611442   5.217   0.302   7.607  0.9511  1.2825  1.5190
   94MOL    H9711443   5.296   0.217   7.475  1.0710  0.3475 -0.9125
   94MOL    C9811444   5.392   0.401   7.518  0.8346  0.5079  0.7969
   94MOL    F9911445   5.420   0.481   7.622 -0.1133  0.3334 -0.8007
   94MOL   F10011446   5.504   0.355   7.460 -0.3298  0.0421 -0.2282
   94MOL   C10111447   5.307   0.471   7.404 -0.2235  0.1293  0.6375
   94MOL   H10211448   5.201   0.488   7.420 -0.4122 -1.7552  1.5221
   94MOL   H10311449   5.311   0.412   7.313  0.2214  0.1418  0.6484
   94MOL   C10411450   5.374   0.610   7.362  0.2760 -0.0133 -0.3453
   94MOL   F10511451   5.299   0.646   7.257  0.3704 -0.4495  0.0637
   94MOL   F10611452   5.349   0.706   7.458 -0.2994 -0.3158 -0.1113
   94MOL   C10711453   5.511   0.610   7.304  0.5695  0.3597 -0.0320
   94MOL   H10811454   5.506   0.550   7.213 -0.2567  1.4072 -0.6721
   94MOL   H10911455   5.584   0.558   7.367 -1.6537 -1.4792  1.1031
   94MOL   C11011456   5.575   0.735   7.247 -0.4525  0.4518 -0.1847
   94MOL   F11111457   5.700   0.704   7.217 -0.1183  0.2791 -0.3956
   94MOL   F11211458   5.522   0.771   7.138  0.0060 -0.0383  0.3162
   94MOL   C11311459   5.592   0.852   7.342  0.2132  0.4990 -0.2705
   94MOL   H11411460   5.628   0.813   7.437  0.1234  0.2586 -0.3348
   94MOL   H11511461   5.498   0.895   7.376  0.7704 -0.7633  2.9737
   94MOL   C11611462   5.673   0.969   7.284  0.7886  0.6375  0.2944
   94MOL   F11711463   5.806   0.939   7.270  0.7639  0.1899  0.0823
   94MOL   F11811464   5.621   0.997   7.163 -0.0596  0.5563 -0.3084
   94MOL   C11911465   5.652   1.088   7.359 -0.1148 -1.2864 -0.1078
   94MOL   H12011466   5.548   1.119   7.348  0.5100  0.4568 -1.3504
   94MOL   H12111467   5.722   1.168   7.335 -1.8795 -0.4943 -2.8142
   94MOL   H12211468   5.654   1.056   7.463 -1.3540 -0.9244  0.0390
   95MOL     C111469   3.640   2.100   2.820  0.5335  0.5179 -0.0708
   95MOL     F211470   3.640   2.224   2.767 -0.2050 -0.3906  0.6760
   95MOL     F311471   3.727   2.113   2.928 -0.1539  0.0854  0.1374
   95MOL     C411472   3.665   1.987   2.721  0.3118  0.2646 -0.1133
   95MOL     H511473   3.753   1.998   2.657  1.2429  0.6933  1.2120
   95MOL     H611474   3.584   1.972   2.650  0.6446 -1.4215 -0.1697
   95MOL     H711475   3.548   2.082   2.876  0.3057  0.4832 -0.4584
   95MOL     C811476   3.707   1.855   2.783  0.8558 -0.0171 -0.5189
   95MOL     F911477   3.810   1.881   2.863 -0.1505  0.1094  0.7580
   95MOL    F1011478   3.617   1.797   2.865 -0.2511 -0.0831 -0.2185
   95MOL    C1111479   3.761   1.755   2.679  0.4588 -0.8056  0.1437
   95MOL    H1211480   3.859   1.786   2.643 -0.3903 -0.1908 -1.6525
   95MOL    H1311481   3.696   1.736   2.594  0.1750 -2.1483  0.6410
   95MOL    C1411482   3.808   1.618   2.741  0.8950  0.4560  1.1741
   95MOL    F1511483   3.907   1.629   2.835 -0.1667 -0.1342 -0.1929
   95MOL    F1611484   3.703   1.562   2.801  0.3277  0.3166 -0.0636
   95MOL    C1711485   3.856   1.526   2.622 -0.0490 -0.3132 -0.0919
   95MOL    H1811486   3.943   1.574   2.577  0.1209  1.4535  2.0013
   95MOL    H1911487   3.779   1.528   2.545  0.5761 -0.0041 -0.7113
   95MOL    C2011488   3.883   1.384   2.658 -0.5107  0.1571 -0.7760
   95MOL    F2111489   3.766   1.326   2.684 -0.5978 -0.8842  0.6987
   95MOL    F2211490   3.929   1.328   2.543  0.1850 -0.0603  0.1089
   95MOL    C2311491   3.993   1.362   2.771 -0.6792  0.3452 -0.2861
   95MOL    H2411492   3.966   1.422   2.858  0.8706  1.5750 -0.6233
   95MOL    H2511493   4.093   1.393   2.739  0.0564 -0.7275  0.9284
   95MOL    C2611494   3.995   1.220   2.834  0.0175  0.6318  0.1234
   95MOL    F2711495   4.071   1.227   2.942 -0.1565  0.1838 -0.4926
   95MOL    F2811496   3.882   1.189   2.892  0.3075 -0.5929 -0.4399
   95MOL    C2911497   4.035   1.114   2.735  0.2540  0.2930 -0.0618
   95MOL    H3011498   4.134   1.138   2.697  0.6694  0.4223  1.0739
   95MOL    H3111499   3.962   1.105   2.655 -1.0861 -0.5447  1.2404
   95MOL    C3211500   4.042   0.968   2.793 -0.7892  0.0611  0.4145
   95MOL    F3311501   4.120   0.966   2.908  0.0060 -0.5458 -0.1886
   95MOL    F3411502   3.912   0.950   2.829 -0.4431  0.5403  0.3909
   95MOL    C3511503   4.096   0.854   2.693  0.2419  0.1171 -0.5038
   95MOL    H3611504   4.193   0.885   2.654  0.2068  0.1884 -0.5333
   95MOL    H3711505   4.035   0.845   2.603  0.5216  0.4002 -0.7204
   95MOL    C3811506   4.112   0.712   2.757  0.0706 -0.2573  0.2453
   95MOL    F3911507   4.204   0.709   2.857 -0.0336 -0.3066 -0.7087
   95MOL    F4011508   3.991   0.677   2.809 -0.0631  0.4037  0.1567
   95MOL    C4111509   4.162   0.604   2.659 -0.0950 -0.9425 -0.7094
   95MOL    H4211510   4.261   0.628   2.621  0.4863 -1.6686  0.3325
   95MOL    H4311511   4.093   0.611   2.574 -2.1407  0.0607  0.9997
   95MOL    C4411512   4.158   0.459   2.703  0.0437  0.3612  0.5013
   95MOL    F4511513   4.253   0.442   2.790  0.5012 -0.5482  0.0618
   95MOL    F4611514   4.038   0.421   2.748 -0.0591  0.6675  0.5180
   95MOL    C4711515   4.184   0.366   2.578 -0.0019 -0.4832 -0.7243
   95MOL    H4811516   4.273   0.399   2.525 -0.4271  0.9297 -0.5786
   95MOL    H4911517   4.103   0.365   2.505  1.1720 -1.2632 -2.0330
   95MOL    C5011518   4.212   0.214   2.593  0.2602 -0.2049  0.1796
   95MOL    F5111519   4.100   0.159   2.628 -0.0440 -0.3459 -0.0221
   95MOL    F5211520   4.251   0.161   2.476 -0.6337 -0.3117 -0.2323
   95MOL    C5311521   4.315   0.174   2.696  0.1944  0.5106  0.1384
   95MOL    H5411522   4.293   0.204   2.799  1.0364 -0.2197  0.5323
   95MOL    H5511523   4.415   0.216   2.685  0.3545  0.1198  0.0747
   95MOL    C5611524   4.343   0.021   2.696  0.1060 -0.3340  0.2883
   95MOL    F5711525   4.225   8.304   2.717  0.0126 -0.2932 -0.3619
   95MOL    F5811526   4.398   8.316   2.583 -0.1793  0.0673  0.2289
   95MOL    C5911527   4.424   8.320   2.823  0.9220  0.2482 -0.3838
   95MOL    H6011528   4.385   0.015   2.914 -1.9708 -2.7076 -0.0817
   95MOL    H6111529   4.528   0.003   2.813  0.0661  3.2535  0.1710
   95MOL    C6211530   4.423   8.164   2.841 -0.3808 -0.2161  0.2593
   95MOL    F6311531   4.301   8.114   2.839  0.6958 -0.1336 -0.1316
   95MOL    F6411532   4.490   8.111   2.742  0.4127 -0.0838  0.2972
   95MOL    C6511533   4.492   8.118   2.975  0.0789  0.0354  0.3919
   95MOL    H6611534   4.444   8.030   3.015  0.4576 -1.5765 -2.5725
   95MOL    H6711535   4.493   8.202   3.045  0.4822  3.6140 -3.6538
   95MOL    C6811536   4.639   8.072   2.963 -1.1850 -0.1182  0.0729
   95MOL    F6911537   4.651   7.972   2.870 -0.4722 -0.2353 -0.3986
   95MOL    F7011538   4.697   8.183   2.911 -0.1107 -0.3292  0.2412
   95MOL    C7111539   4.700   8.043   3.105 -0.3853 -0.1047  0.5485
   95MOL    H7211540   4.653   7.950   3.136 -0.9990 -0.4738 -1.4091
   95MOL    H7311541   4.659   8.122   3.169 -0.2352  1.4627 -1.2302
   95MOL    C7411542   4.858   8.033   3.109 -0.0477 -1.0821 -1.0437
   95MOL    F7511543   4.903   8.154   3.076  0.4831  0.0222  0.3982
   95MOL    F7611544   4.905   8.004   3.229 -0.0481 -0.4107 -0.4356
   95MOL    C7711545   4.919   7.921   3.022  0.3963 -0.1057 -0.0768
   95MOL    H7811546   5.026   7.944   3.020  0.6319 -1.0296  1.3035
   95MOL    H7911547   4.879   7.909   2.922  0.7614 -1.1792 -0.0927
   95MOL    C8011548   4.906   7.774   3.081  0.5878 -0.4070  0.6525
   95MOL    F8111549   5.005   7.756   3.169 -0.1351 -0.0042 -0.3965
   95MOL    F8211550   4.781   7.754   3.143 -0.1165 -0.3502  0.6287
   95MOL    C8311551   4.938   7.664   2.975 -0.1399 -0.0687  0.4990
   95MOL    H8411552   5.019   7.678   2.904 -0.0012 -1.6228  0.3434
   95MOL    H8511553   4.847   7.669   2.915  0.3190 -1.2307 -0.3263
   95MOL    C8611554   4.962   7.513   3.026 -0.2980 -0.5817  0.1339
   95MOL    F8711555   5.085   7.507   3.093 -0.1581  0.7169  0.3736
   95MOL    F8811556   4.861   7.480   3.107 -0.5239  0.0424  0.1447
   95MOL    C8911557   4.961   7.415   2.903 -0.0828 -0.4319 -0.0930
   95MOL    H9011558   5.057   7.424   2.852 -0.4974 -0.6323 -0.9219
   95MOL    H9111559   4.884   7.438   2.829  0.0146  0.3042  0.0278
   95MOL    C9211560   4.940   7.263   2.932  0.7088  0.1092 -0.6298
   95MOL    F9311561   5.024   7.211   3.021 -0.3608  0.2071  0.3305
   95MOL    F9411562   4.811   7.260   2.974 -0.8887  0.3426 -0.0703
   95MOL    C9511563   4.959   7.172   2.803  0.5403  0.2257  0.2080
   95MOL    H9611564   4.911   7.076   2.824 -0.0416  0.2937 -0.7512
   95MOL    H9711565   5.059   7.150   2.765 -0.0526 -1.8965 -0.2221
   95MOL    C9811566   4.878   7.223   2.680 -0.3678 -0.3821 -0.2379
   95MOL    F9911567   4.764   7.262   2.721 -0.2338  0.4611 -0.0520
   95MOL   F10011568   4.946   7.328   2.633  0.2004  0.0362  0.3655
   95MOL   C10111569   4.870   7.119   2.563  0.1739 -0.1474  0.0654
   95MOL   H10211570   4.833   7.024   2.602 -1.2338  0.3185 -0.1135
   95MOL   H10311571   4.966   7.094   2.518  0.1378  1.4572 -0.9573
   95MOL   C10411572   4.794   7.177   2.440 -0.5850  0.4309 -0.1149
   95MOL   F10511573   4.664   7.201   2.455 -0.7303  0.0721 -0.3339
   95MOL   F10611574   4.847   7.296   2.406  0.4010  0.0968  0.5515
   95MOL   C10711575   4.807   7.079   2.318 -0.0237  0.3214 -0.5632
   95MOL   H10811576   4.740   6.998   2.351  0.6012 -0.0056 -0.0801
   95MOL   H10911577   4.907   7.037   2.320  0.0421  0.4159 -1.8335
   95MOL   C11011578   4.760   7.128   2.184 -0.4234  0.1037  0.3025
   95MOL   F11111579   4.645   7.186   2.205 -0.1778  0.3880  0.1291
   95MOL   F11211580   4.846   7.227   2.150 -0.0056 -0.1786  0.3762
   95MOL   C11311581   4.757   7.015   2.080  0.3215 -0.5704  0.1491
   95MOL   H11411582   4.717   7.057   1.988  0.3205  0.2043  0.4992
   95MOL   H11511583   4.675   6.950   2.110  0.5226 -0.9161 -0.0377
   95MOL   C11611584   4.882   6.929   2.043  0.1792 -0.0372 -0.0327
   95MOL   F11711585   4.975   7.013   2.000  0.2180 -0.2289 -0.5673
   95MOL   F11811586   4.935   6.855   2.138 -0.1221 -0.1084  0.0966
   95MOL   C11911587   4.851   6.830   1.936  0.6542 -0.0740  0.0931
   95MOL   H12011588   4.776   6.757   1.965 -1.1112  1.7911  0.3573
   95MOL   H12111589   4.943   6.777   1.908  1.3349  1.3307 -0.4045
   95MOL   H12211590   4.808   6.880   1.849  0.9584 -0.1637 -0.1125
   96MOL     C111591   1.161   6.696   2.686  0.2994  0.2279  0.1771
   96MOL     F211592   1.174   6.735   2.814  0.6251  0.6555  0.3076
   96MOL     F311593   1.227   6.582   2.665  0.1895  0.4014 -0.2006
   96MOL     C411594   1.238   6.802   2.603 -0.1829 -0.7186  0.1862
   96MOL     H511595   1.235   6.773   2.498 -0.5627  1.4897 -0.4438
   96MOL     H611596   1.343   6.810   2.631  0.2614  2.9178 -2.1682
   96MOL     H711597   1.057   6.692   2.654  0.5403  1.4995 -0.8008
   96MOL     C811598   1.178   6.939   2.587  0.2005  0.4760  0.6837
   96MOL     F911599   1.252   7.003   2.498  0.4526  0.2174 -0.5051
   96MOL    F1011600   1.052   6.919   2.542 -0.7803 -1.1327 -0.1056
   96MOL    C1111601   1.177   7.024   2.723 -0.5323  0.3653 -0.2387
   96MOL    H1211602   1.282   7.035   2.751 -0.4852  0.3104 -0.3998
   96MOL    H1311603   1.116   6.966   2.793  1.0161  0.3764  1.1501
   96MOL    C1411604   1.124   7.171   2.710 -0.3043  0.0719 -0.1058
   96MOL    F1511605   1.191   7.242   2.616 -0.2177 -0.4259 -0.0580
   96MOL    F1611606   1.000   7.177   2.668  0.0015 -0.0156 -0.3220
   96MOL    C1711607   1.131   7.242   2.848 -0.1947 -0.9079  0.4665
   96MOL    H1811608   1.234   7.249   2.882 -0.5355 -2.0691  1.7941
   96MOL    H1911609   1.089   7.184   2.930 -0.5988  1.5561  2.0676
   96MOL    C2011610   1.047   7.375   2.857 -0.5884  0.8464  0.4312
   96MOL    F2111611   0.916   7.347   2.846  0.1424 -0.0410  0.5041
   96MOL    F2211612   1.070   7.426   2.979 -0.0252  0.4185 -0.5382
   96MOL    C2311613   1.080   7.479   2.746 -0.0384  0.8181  0.0604
   96MOL    H2411614   1.068   7.436   2.646 -0.8211  0.2447  0.3969
   96MOL    H2511615   1.184   7.499   2.772  0.8413 -0.2178 -2.4694
   96MOL    C2611616   0.998   7.608   2.761  0.6631 -0.7603 -0.0585
   96MOL    F2711617   0.868   7.571   2.782  0.6206  0.6172 -0.1854
   96MOL    F2811618   1.029   7.690   2.861 -0.7109  0.1562  0.2184
   96MOL    C2911619   1.010   7.687   2.621 -0.2823 -0.5773  0.0564
   96MOL    H3011620   0.955   7.781   2.627  0.8381  0.2088 -1.6256
   96MOL    H3111621   0.975   7.621   2.542  0.8027 -1.6366  0.4423
   96MOL    C3211622   1.155   7.728   2.589 -0.1897  0.5422 -0.0774
   96MOL    F3311623   1.243   7.624   2.594  0.0961 -0.4658  0.3052
   96MOL    F3411624   1.150   7.759   2.458 -0.2995 -0.2478  0.2614
   96MOL    C3511625   1.205   7.849   2.670 -0.3296  0.3416 -0.0428
   96MOL    H3611626   1.236   7.799   2.762 -0.7843 -2.2692 -1.2722
   96MOL    H3711627   1.132   7.921   2.707 -0.3474 -0.5033  1.6413
   96MOL    C3811628   1.320   7.920   2.598  0.0622  0.0590 -0.0141
   96MOL    F3911629   1.406   7.827   2.559 -0.0881  0.1217  0.4104
   96MOL    F4011630   1.263   7.982   2.497  0.2205  0.1566 -0.3175
   96MOL    C4111631   1.395   8.017   2.689  0.4573 -0.4164  0.1256
   96MOL    H4211632   1.419   7.977   2.787 -0.0417 -0.7323  0.1180
   96MOL    H4311633   1.330   8.104   2.707 -1.3189 -1.2776 -1.8769
   96MOL    C4411634   1.528   8.078   2.637 -0.0025 -0.4861 -0.1072
   96MOL    F4511635   1.567   8.172   2.725 -0.1475 -0.2959  0.0278
   96MOL    F4611636   1.624   7.983   2.632 -0.1706  0.1644 -0.2998
   96MOL    C4711637   1.506   8.155   2.494 -0.3614 -0.0159 -0.6594
   96MOL    H4811638   1.435   8.238   2.502 -0.4153  0.2189 -3.1334
   96MOL    H4911639   1.468   8.097   2.410  0.0944  1.8704 -2.2329
   96MOL    C5011640   1.634   8.222   2.437 -0.1970  0.2229 -0.2158
   96MOL    F5111641   1.661   8.318   2.522 -0.2434  0.3124  0.0046
   96MOL    F5211642   1.735   8.129   2.425  0.0314 -0.5026  0.2084
   96MOL    C5311643   1.603   8.279   2.294  1.0906  0.3632  0.5350
   96MOL    H5411644   1.518   8.348   2.297  0.8903  0.1487 -0.0560
   96MOL    H5511645   1.560   8.206   2.225  1.0044  0.0841  0.8870
   96MOL    C5611646   1.723   8.339   2.221 -0.3417  0.0601 -0.0068
   96MOL    F5711647   1.784   0.089   2.286 -0.0544  0.3559  0.0895
   96MOL    F5811648   1.807   8.233   2.209 -0.3836  0.3079  0.0426
   96MOL    C5911649   1.666   0.032   2.082 -0.3596 -0.2485  0.1418
   96MOL    H6011650   1.571   0.084   2.091  0.5718  1.1148  2.4321
   96MOL    H6111651   1.632   8.294   2.027 -0.4834  2.2451 -3.8971
   96MOL    C6211652   1.749   0.116   1.985  0.0918 -0.4029 -0.4787
   96MOL    F6311653   1.663   0.145   1.883 -0.0441  0.3693 -0.2851
   96MOL    F6411654   1.782   0.224   2.054  0.1434  0.2617 -0.4357
   96MOL    C6511655   1.874   0.036   1.918  0.6069  0.4419 -0.1908
   96MOL    H6611656   1.846   8.284   1.891  2.3629 -0.1109 -0.0045
   96MOL    H6711657   1.943   0.019   2.001 -0.5228  0.3096  0.7284
   96MOL    C6811658   1.951   0.106   1.799  0.1947  0.1353 -0.6914
   96MOL    F6911659   2.002   0.216   1.854 -0.0780 -0.4068 -0.3112
   96MOL    F7011660   2.057   0.032   1.763  0.2413  0.3987  0.0596
   96MOL    C7111661   1.870   0.147   1.673 -0.3732  0.6826  0.9014
   96MOL    H7211662   1.944   0.191   1.607 -1.6395 -0.9609 -1.7100
   96MOL    H7311663   1.799   0.229   1.686  2.6197  3.3015  1.1030
   96MOL    C7411664   1.801   0.031   1.603  0.3379 -0.9771  0.0202
   96MOL    F7511665   1.702   8.319   1.671 -0.3108  0.4192  0.2617
   96MOL    F7611666   1.736   0.083   1.495  0.1636 -0.2853 -0.0873
   96MOL    C7711667   1.889   8.262   1.562 -0.2123 -0.2665 -0.0127
   96MOL    H7811668   1.903   8.196   1.648 -3.3882 -0.2356  0.6012
   96MOL    H7911669   1.990   8.293   1.536 -0.2973 -0.6847 -0.8494
   96MOL    C8011670   1.842   8.175   1.445 -0.3269 -0.3751  0.2355
   96MOL    F8111671   1.846   8.235   1.321  0.2280 -0.4954 -0.4121
   96MOL    F8211672   1.923   8.074   1.423  0.2248 -0.3209 -0.3202
   96MOL    C8311673   1.698   8.124   1.449 -0.5639  0.0391  0.4861
   96MOL    H8411674   1.628   8.202   1.477 -0.5884  0.5851 -1.0439
   96MOL    H8511675   1.686   8.053   1.530  1.2569  0.8979  1.5423
   96MOL    C8611676   1.651   8.058   1.315 -0.0702 -0.1806  0.2622
   96MOL    F8711677   1.609   8.140   1.221 -0.3234  0.0106 -0.6319
   96MOL    F8811678   1.752   7.983   1.267 -0.2909 -0.1740 -0.1402
   96MOL    C8911679   1.531   7.967   1.335 -0.0751 -0.4393  0.4584
   96MOL    H9011680   1.563   7.885   1.398  0.9102  0.5197  1.2265
   96MOL    H9111681   1.495   7.936   1.237 -2.1782 -0.1825  1.1164
   96MOL    C9211682   1.403   8.023   1.402  0.0312  0.6449  0.2156
   96MOL    F9311683   1.443   8.037   1.528  0.4997  0.0562  0.0676
   96MOL    F9411684   1.375   8.140   1.349 -0.9353 -0.0308 -0.3533
   96MOL    C9511685   1.280   7.926   1.391  0.8418 -0.3080 -0.0547
   96MOL    H9611686   1.325   7.829   1.408  0.9429 -0.7560 -2.7763
   96MOL    H9711687   1.253   7.915   1.286 -0.0453  0.5420  0.0743
   96MOL    C9811688   1.160   7.939   1.483  0.2619 -0.5382 -0.1869
   96MOL    F9911689   1.078   7.840   1.447  0.2297 -0.7895  0.5326
   96MOL   F10011690   1.178   7.949   1.611  0.1108  0.1171 -0.0307
   96MOL   C10111691   1.098   8.073   1.445 -0.7857 -0.4399 -0.4119
   96MOL   H10211692   1.083   8.072   1.337  0.8078  0.2186 -0.6420
   96MOL   H10311693   1.155   8.164   1.462 -3.0068  0.8141  0.6479
   96MOL   C10411694   0.954   8.096   1.501  0.6807 -0.8235 -0.1747
   96MOL   F10511695   0.865   8.010   1.444  0.2706  0.1919 -0.2393
   96MOL   F10611696   0.960   8.069   1.634 -0.1799  0.3961  0.2159
   96MOL   C10711697   0.910   8.247   1.493 -0.1310  0.5445 -0.1011
   96MOL   H10811698   0.980   8.308   1.550  1.3100  0.4503 -1.7157
   96MOL   H10911699   0.814   8.254   1.543  1.0168 -2.4964  2.7055
   96MOL   C11011700   0.891   8.299   1.347 -0.2287 -0.2577 -0.3937
   96MOL   F11111701   1.007   8.297   1.283  1.0655 -0.0049 -0.5188
   96MOL   F11211702   0.802   8.218   1.283 -0.6747 -0.1268 -0.0886
   96MOL   C11311703   0.832   0.093   1.346 -0.4678 -0.4891 -0.1011
   96MOL   H11411704   0.737   0.091   1.399  0.5500  0.0882  1.7813
   96MOL   H11511705   0.822   0.126   1.242  2.5636 -2.2572 -1.0128
   96MOL   C11611706   0.906   0.206   1.414  0.6228  0.2255 -0.1607
   96MOL   F11711707   0.826   0.315   1.419 -0.3334 -0.1314  0.0753
   96MOL   F11811708   0.933   0.179   1.540  0.2914 -0.3688 -0.3028
   96MOL   C11911709   1.037   0.245   1.347  0.0836  0.1334 -0.1023
   96MOL   H12011710   1.076   0.342   1.380  2.1111 -1.1818  1.4895
   96MOL   H12111711   1.032   0.234   1.239 -0.9158 -1.0198  0.0499
   96MOL   H12211712   1.110   0.167   1.368  1.5322  1.0574 -1.6567
   97MOL     C111713   4.243   2.972   2.850 -0.3669  0.0661  0.2382
   97MOL     F211714   4.256   3.087   2.923 -0.0444  0.0633 -0.1791
   97MOL     F311715   4.154   2.892   2.905  0.4112  0.4496 -0.3495
   97MOL     C411716   4.381   2.914   2.819  0.5646  0.8428 -0.2665
   97MOL     H511717   4.437   2.978   2.751  1.5365 -2.2475 -2.4701
   97MOL     H611718   4.372   2.817   2.769 -1.4552  2.0411 -2.3465
   97MOL     H711719   4.190   2.989   2.756  0.6259  0.8164 -0.1967
   97MOL     C811720   4.458   2.887   2.944 -0.3226 -0.5592  0.2527
   97MOL     F911721   4.579   2.849   2.907  0.3808 -0.4788 -0.1601
   97MOL    F1011722   4.473   2.999   3.005 -0.4482 -0.2050  0.2572
   97MOL    C1111723   4.402   2.770   3.037 -0.5153 -0.0311  0.0225
   97MOL    H1211724   4.414   2.674   2.988  0.3456 -0.2521  0.6628
   97MOL    H1311725   4.293   2.771   3.038 -0.5362  2.4700 -1.4665
   97MOL    C1411726   4.461   2.760   3.175 -0.5312 -0.1197  0.7375
   97MOL    F1511727   4.436   2.880   3.236 -0.1147 -0.7406 -0.1589
   97MOL    F1611728   4.380   2.675   3.236  0.1806 -0.2022  0.2990
   97MOL    C1711729   4.609   2.727   3.181 -0.4948  0.1381 -1.2055
   97MOL    H1811730   4.672   2.804   3.135  1.5044  0.3522  1.6697
   97MOL    H1911731   4.618   2.631   3.131 -1.2960 -0.9932  0.7839
   97MOL    C2011732   4.667   2.690   3.322  0.9369 -0.0298  0.1095
   97MOL    F2111733   4.648   2.798   3.401  0.6387 -0.5493 -0.4109
   97MOL    F2211734   4.606   2.585   3.380  0.3759 -0.1794  0.3032
   97MOL    C2311735   4.809   2.641   3.326  0.0349 -0.1807  0.4540
   97MOL    H2411736   4.821   2.543   3.279  1.7646  0.0231  0.4493
   97MOL    H2511737   4.842   2.616   3.427  1.9620 -0.5735 -0.2520
   97MOL    C2611738   4.914   2.727   3.251  0.3508  0.2539 -0.2748
   97MOL    F2711739   4.892   2.741   3.122  0.0847 -0.6634 -0.2386
   97MOL    F2811740   4.901   2.849   3.295  0.0238  0.2429  0.4123
   97MOL    C2911741   5.057   2.681   3.284 -0.0154 -0.5259  0.2291
   97MOL    H3011742   5.070   2.682   3.392 -3.1457  1.1354  0.6499
   97MOL    H3111743   5.130   2.749   3.239 -0.6589 -0.4170 -0.6618
   97MOL    C3211744   5.094   2.540   3.233 -0.9502 -0.0116  0.1976
   97MOL    F3311745   5.032   2.452   3.308  1.0528  0.2883  0.4656
   97MOL    F3411746   5.056   2.528   3.107 -0.2465  0.1384 -0.3756
   97MOL    C3511747   5.245   2.529   3.245  0.7759  0.3064  0.2012
   97MOL    H3611748   5.289   2.547   3.343  1.4705 -0.3021  0.0027
   97MOL    H3711749   5.291   2.604   3.181 -0.3062  0.3902 -0.4915
   97MOL    C3811750   5.305   2.393   3.200 -0.1219 -0.1533 -0.1463
   97MOL    F3911751   5.276   2.371   3.074  0.0788  0.7567  0.3407
   97MOL    F4011752   5.433   2.403   3.212 -0.0054 -0.1507 -0.2928
   97MOL    C4111753   5.268   2.263   3.271 -0.8922 -0.3306  0.0003
   97MOL    H4211754   5.304   2.180   3.209 -0.2505  0.7884 -1.1398
   97MOL    H4311755   5.161   2.244   3.277 -0.3353 -3.9888 -0.4058
   97MOL    C4411756   5.327   2.249   3.414  0.4534 -0.2567  0.2865
   97MOL    F4511757   5.457   2.218   3.393 -0.1286  0.4302 -0.7464
   97MOL    F4611758   5.317   2.366   3.489  0.3939  0.1061  0.4192
   97MOL    C4711759   5.259   2.133   3.488  0.5576  0.3591  0.0029
   97MOL    H4811760   5.153   2.156   3.498  0.3956 -0.5610  0.4774
   97MOL    H4911761   5.303   2.129   3.588  2.1181 -0.7258 -0.7084
   97MOL    C5011762   5.262   1.996   3.428  0.5526  0.0362 -0.2716
   97MOL    F5111763   5.202   1.989   3.309  0.5773 -0.1439  0.0142
   97MOL    F5211764   5.387   1.954   3.413  0.4319  0.1979 -0.0140
   97MOL    C5311765   5.208   1.890   3.526 -0.4566 -0.0928  0.5075
   97MOL    H5411766   5.274   1.860   3.608 -1.3035 -0.0304  1.2239
   97MOL    H5511767   5.203   1.801   3.465 -0.2999 -0.5055  1.0908
   97MOL    C5611768   5.056   1.900   3.573  0.1114 -0.5580 -0.6516
   97MOL    F5711769   5.041   2.008   3.650  0.6072  0.0315 -0.2434
   97MOL    F5811770   4.969   1.901   3.471  0.0681  0.6626 -0.2410
   97MOL    C5911771   5.023   1.781   3.665 -0.0403  0.0205 -0.6292
   97MOL    H6011772   5.088   1.803   3.749  0.0193  1.2820 -1.0067
   97MOL    H6111773   5.061   1.684   3.633 -1.4615 -0.0355 -2.2546
   97MOL    C6211774   4.878   1.755   3.707 -0.3560 -0.0866 -0.6774
   97MOL    F6311775   4.812   1.880   3.722 -0.2220  0.2491  0.4974
   97MOL    F6411776   4.816   1.687   3.610 -0.6602  0.3306 -0.2607
   97MOL    C6511777   4.857   1.678   3.834  0.4034  0.4065  0.4182
   97MOL    H6611778   4.749   1.671   3.849  0.3604 -0.5083 -0.2479
   97MOL    H6711779   4.885   1.740   3.918  1.4941  0.3898  0.0666
   97MOL    C6811780   4.924   1.537   3.852  0.5445 -0.0301  0.2269
   97MOL    F6911781   4.862   1.449   3.771  0.0849 -0.3342 -0.6226
   97MOL    F7011782   5.047   1.535   3.816  0.0271 -0.1769 -0.1525
   97MOL    C7111783   4.902   1.488   4.000 -0.1399 -0.4791  0.1175
   97MOL    H7211784   4.912   1.380   4.003 -0.9154 -0.5995 -1.2586
   97MOL    H7311785   4.797   1.502   4.026  0.3979  1.3332  1.4567
   97MOL    C7411786   4.989   1.564   4.110 -0.7879  0.0563 -0.0487
   97MOL    F7511787   5.008   1.688   4.092 -0.4613 -0.0171  0.2537
   97MOL    F7611788   4.929   1.561   4.226  0.4801 -0.2968 -0.7196
   97MOL    C7711789   5.136   1.505   4.137  0.3166  0.0295  0.6115
   97MOL    H7811790   5.184   1.496   4.039 -1.0773 -2.4959  0.1267
   97MOL    H7911791   5.129   1.401   4.169 -0.9037  0.0321  0.3854
   97MOL    C8011792   5.231   1.580   4.234  0.4196  0.8581  0.2690
   97MOL    F8111793   5.277   1.684   4.172  0.6571 -0.3018  0.1832
   97MOL    F8211794   5.155   1.614   4.342  0.3011 -0.0539  0.2295
   97MOL    C8311795   5.338   1.496   4.297 -0.4306 -0.5545  0.2646
   97MOL    H8411796   5.278   1.415   4.338 -0.3380 -0.7482  0.0111
   97MOL    H8511797   5.384   1.553   4.378 -0.3860 -2.5272  1.6519
   97MOL    C8611798   5.439   1.438   4.197  0.1926 -1.3497 -0.3321
   97MOL    F8711799   5.388   1.348   4.114 -0.1910 -0.0697 -0.0268
   97MOL    F8811800   5.475   1.538   4.121  0.0205  0.2161 -0.1510
   97MOL    C8911801   5.559   1.364   4.268 -0.1250 -0.6451 -0.0751
   97MOL    H9011802   5.527   1.274   4.320  0.0171 -1.6471 -1.6841
   97MOL    H9111803   5.622   1.431   4.327  1.0540  0.2718 -2.3170
   97MOL    C9211804   5.667   1.310   4.158  0.6193  0.4318  0.5670
   97MOL    F9311805   5.764   1.262   4.235  0.3263  0.6009  0.0642
   97MOL    F9411806   5.612   1.204   4.095 -0.3443  0.0336 -0.0860
   97MOL    C9511807   5.724   1.403   4.053  0.1939 -0.1204  0.2765
   97MOL    H9611808   5.755   1.494   4.104  1.8348 -0.0672 -0.7848
   97MOL    H9711809   5.649   1.437   3.982 -0.4356 -0.3921  0.8101
   97MOL    C9811810   5.842   1.357   3.965 -0.3085 -0.6111 -0.1922
   97MOL    F9911811   5.899   1.460   3.899 -0.4108  0.5665  0.8982
   97MOL   F10011812   5.933   1.311   4.050  0.2596 -0.1433 -0.3206
   97MOL   C10111813   5.815   1.249   3.862 -0.0316 -0.0539 -0.2840
   97MOL   H10211814   5.802   1.155   3.916  2.9032  0.3765  1.2640
   97MOL   H10311815   5.911   1.229   3.813 -0.3433  0.0610 -0.9531
   97MOL   C10411816   5.715   1.288   3.754 -0.2136  0.2639  0.0381
   97MOL   F10511817   5.599   1.273   3.804  0.2872 -0.0404  0.5585
   97MOL   F10611818   5.720   1.416   3.721 -0.2703 -0.3423  0.1773
   97MOL   C10711819   5.730   1.215   3.616 -0.8522 -0.1428 -0.3643
   97MOL   H10811820   5.830   1.238   3.579 -1.2506  0.2725 -1.1763
   97MOL   H10911821   5.662   1.253   3.540  0.9126  1.9260 -0.9432
   97MOL   C11011822   5.726   1.057   3.615  0.1927 -0.6792  0.7630
   97MOL   F11111823   5.829   0.996   3.671 -0.4538  0.0026  0.0596
   97MOL   F11211824   5.610   1.028   3.688  0.6112 -0.4092 -0.0196
   97MOL   C11311825   5.693   0.992   3.472  0.3170 -0.2907 -0.1693
   97MOL   H11411826   5.761   1.031   3.396 -0.3680  0.6655 -0.2911
   97MOL   H11511827   5.596   1.026   3.436  1.9667  1.1542 -3.4391
   97MOL   C11611828   5.688   0.839   3.461  0.0123  0.1478 -0.1503
   97MOL   F11711829   5.807   0.794   3.495  0.7285  0.4260 -0.1033
   97MOL   F11811830   5.597   0.796   3.545 -0.6099 -0.0483  0.3435
   97MOL   C11911831   5.666   0.788   3.318  0.2784 -0.5033  0.2505
   97MOL   H12011832   5.737   0.843   3.256 -1.1147  1.5078  0.4101
   97MOL   H12111833   5.564   0.814   3.293 -0.1096 -1.1653  1.1131
   97MOL   H12211834   5.698   0.685   3.304  2.5668  0.2141 -0.0529
   98MOL     C111835   6.055   6.128   5.715  0.2810  0.0432  0.7306
   98MOL     F211836   6.034   6.110   5.585  0.5772 -0.9749  0.3803
   98MOL     F311837   6.036   6.261   5.744  0.3783 -0.1447 -0.2201
   98MOL     C411838   6.194   6.081   5.758 -0.4267 -0.0021  1.2066
   98MOL     H511839   6.204   5.973   5.763 -0.0998 -0.0775 -0.7672
   98MOL     H611840   6.218   6.132   5.851  0.7187  1.5119  0.1185
   98MOL     H711841   5.983   6.066   5.768  0.3794 -0.1832  0.5965
   98MOL     C811842   6.302   6.137   5.655 -0.3763  0.4057 -0.6259
   98MOL     F911843   6.287   6.072   5.539 -0.4020 -0.1582 -0.6032
   98MOL    F1011844   6.300   6.269   5.616  0.4456  0.2844  0.0622
   98MOL    C1111845   6.452   6.127   5.701 -0.9034  0.0637  0.3368
   98MOL    H1211846   6.472   6.026   5.737 -0.1447  0.5559  1.3149
   98MOL    H1311847   6.458   6.192   5.788  0.9100  0.6619 -0.2130
   98MOL    C1411848   6.562   6.169   5.595  0.5547  0.0694 -0.3046
   98MOL    F1511849   6.541   6.086   5.495  0.5444 -0.1737 -0.1102
   98MOL    F1611850   6.545   6.293   5.555 -0.3194 -0.0575 -0.5748
   98MOL    C1711851   6.703   6.140   5.642  0.0619 -0.5911 -0.2538
   98MOL    H1811852   6.715   6.038   5.677  1.5030  0.3731  2.1806
   98MOL    H1911853   6.723   6.212   5.722 -2.1176  1.7857 -1.7471
   98MOL    C2011854   6.804   6.141   5.527  0.0864 -0.0885  0.4978
   98MOL    F2111855   6.792   6.037   5.451 -0.2547  0.0749  0.5073
   98MOL    F2211856   6.788   6.248   5.445 -0.0660 -0.2095 -0.9651
   98MOL    C2311857   6.944   6.147   5.591  0.4611 -0.2936 -0.4554
   98MOL    H2411858   6.952   6.056   5.652  1.5628 -0.7234 -1.2273
   98MOL    H2511859   6.959   6.235   5.654  0.1405 -0.9696  0.5810
   98MOL    C2611860   7.059   6.145   5.495 -0.4082  0.4187 -0.3639
   98MOL    F2711861   7.182   6.135   5.557  0.1890  0.2724  0.3147
   98MOL    F2811862   7.054   6.035   5.421  0.2689 -0.9606  0.3992
   98MOL    C2911863   7.070   6.257   5.390 -0.0945 -0.2176 -0.4513
   98MOL    H3011864   6.985   6.244   5.322 -0.3994  0.5427 -0.2242
   98MOL    H3111865   7.151   6.229   5.322 -1.6362 -1.3956 -1.8755
   98MOL    C3211866   7.081   6.406   5.438 -0.2717  0.2222  0.5592
   98MOL    F3311867   7.077   6.482   5.326  0.6088  0.6175 -0.3065
   98MOL    F3411868   6.982   6.445   5.509  0.3846 -0.6521 -0.1484
   98MOL    C3511869   7.213   6.431   5.511  0.8075  0.2429 -0.9759
   98MOL    H3611870   7.299   6.384   5.463  1.9977  1.6879 -0.2549
   98MOL    H3711871   7.212   6.388   5.611  0.8767  0.8241 -0.7294
   98MOL    C3811872   7.251   6.578   5.546 -0.4099  0.1536  0.1482
   98MOL    F3911873   7.138   6.642   5.584  0.1097  0.0514  0.0687
   98MOL    F4011874   7.332   6.581   5.654  0.1829  0.5683 -0.6588
   98MOL    C4111875   7.312   6.668   5.431  0.6262  0.6625 -0.2695
   98MOL    H4211876   7.233   6.667   5.355  2.4033 -1.4165 -2.1643
   98MOL    H4311877   7.392   6.618   5.375  1.4641  1.7722 -0.0683
   98MOL    C4411878   7.364   6.799   5.475  0.0852  0.1324  0.2995
   98MOL    F4511879   7.269   6.873   5.525 -0.8460 -0.4134 -0.7962
   98MOL    F4611880   7.460   6.770   5.569  0.3002 -0.1421  0.2599
   98MOL    C4711881   7.439   6.879   5.364  0.5913  0.6034  0.5121
   98MOL    H4811882   7.509   6.810   5.317 -0.3723 -1.7085  2.3799
   98MOL    H4911883   7.502   6.960   5.400  0.0779  1.2100  0.0424
   98MOL    C5011884   7.349   6.932   5.253  0.1538  0.0876  0.0951
   98MOL    F5111885   7.427   7.004   5.177 -0.4813  0.1021  0.5273
   98MOL    F5211886   7.309   6.818   5.192 -0.0716 -0.7679  0.3399
   98MOL    C5311887   7.231   7.030   5.294  0.3191 -0.4180 -0.1950
   98MOL    H5411888   7.282   7.108   5.351  1.0569 -1.4703  0.6044
   98MOL    H5511889   7.153   6.985   5.355  0.4973  0.0598  0.3924
   98MOL    C5611890   7.168   7.105   5.175 -0.3897 -0.4448 -0.7492
   98MOL    F5711891   7.257   7.183   5.111 -0.3252 -0.2482 -0.1343
   98MOL    F5811892   7.133   7.018   5.083 -0.0877 -0.2960 -0.0426
   98MOL    C5911893   7.050   7.206   5.217 -0.2032 -0.2835  0.8441
   98MOL    H6011894   6.958   7.150   5.232 -0.6986  0.2060 -0.3140
   98MOL    H6111895   7.022   7.279   5.141  0.9528  0.6871  1.3315
   98MOL    C6211896   7.076   7.286   5.350 -0.2337 -0.1894 -1.0081
   98MOL    F6311897   7.084   7.197   5.449 -0.2223 -0.0549 -0.0572
   98MOL    F6411898   7.196   7.337   5.343 -0.6059 -0.3651  0.2416
   98MOL    C6511899   6.969   7.393   5.390 -0.5232  0.2496 -0.3809
   98MOL    H6611900   6.973   7.449   5.296 -3.7616 -1.6123 -1.7338
   98MOL    H6711901   7.001   7.448   5.478  0.1857 -0.0196 -0.4705
   98MOL    C6811902   6.824   7.361   5.424  0.6191  0.5890  0.9492
   98MOL    F6911903   6.763   7.463   5.481 -0.4172 -0.1741  0.5480
   98MOL    F7011904   6.758   7.335   5.306  0.2378 -0.1703  0.2466
   98MOL    C7111905   6.807   7.227   5.509  0.3031 -0.4507 -1.2308
   98MOL    H7211906   6.867   7.233   5.600 -0.1345  3.6327 -1.1287
   98MOL    H7311907   6.850   7.140   5.459 -1.2061 -1.6027 -0.5989
   98MOL    C7411908   6.662   7.174   5.538 -0.2790  0.0349 -0.2452
   98MOL    F7511909   6.598   7.153   5.424 -0.0743  0.4954 -0.1369
   98MOL    F7611910   6.678   7.065   5.603 -0.1287  0.0081 -0.3245
   98MOL    C7711911   6.589   7.267   5.633 -0.4232  0.5981  0.2128
   98MOL    H7811912   6.557   7.355   5.577  0.0969  0.0098 -1.0296
   98MOL    H7911913   6.663   7.285   5.710  0.7367 -3.3508  0.1153
   98MOL    C8011914   6.458   7.212   5.698 -0.2429 -0.1045  0.0277
   98MOL    F8111915   6.481   7.109   5.779  0.2004  0.3846 -0.4109
   98MOL    F8211916   6.405   7.309   5.767 -0.0992  0.5774 -0.0824
   98MOL    C8311917   6.349   7.177   5.591 -0.7085  0.1179 -0.0169
   98MOL    H8411918   6.390   7.103   5.522  2.2695  0.8034  0.9406
   98MOL    H8511919   6.318   7.262   5.530  0.3842 -0.3169 -1.2061
   98MOL    C8611920   6.213   7.122   5.644  0.6972  0.1394  1.0435
   98MOL    F8711921   6.185   7.176   5.761 -0.4432  0.9257  0.2428
   98MOL    F8811922   6.120   7.164   5.553  0.6916  0.0782 -0.2808
   98MOL    C8911923   6.202   6.967   5.670 -0.4855 -0.8656  0.3214
   98MOL    H9011924   6.244   6.928   5.763 -3.1453 -0.7404  1.6271
   98MOL    H9111925   6.264   6.911   5.600 -1.9728 -2.1338 -0.0092
   98MOL    C9211926   6.063   6.902   5.683 -0.4037 -0.4246 -0.1262
   98MOL    F9311927   5.999   6.915   5.565  0.6618  0.0549 -0.0334
   98MOL    F9411928   6.084   6.771   5.702  0.6833  0.1817  0.2865
   98MOL    C9511929   5.973   6.965   5.787  0.0241  0.4586 -0.4228
   98MOL    H9611930   5.960   7.070   5.760 -2.5122  0.4298  0.5384
   98MOL    H9711931   6.019   6.976   5.886 -1.8209 -0.0526  0.5103
   98MOL    C9811932   5.834   6.896   5.809 -0.9314  0.5143 -0.7069
   98MOL    F9911933   5.859   6.778   5.859 -0.1157 -0.1171  0.3464
   98MOL   F10011934   5.779   6.961   5.912  0.2833 -0.1779  0.4699
   98MOL   C10111935   5.743   6.880   5.686 -0.1130 -0.5094  0.9016
   98MOL   H10211936   5.660   6.821   5.723  0.7815 -1.5978  1.1945
   98MOL   H10311937   5.793   6.813   5.617 -0.3912 -2.1194  2.2404
   98MOL   C10411938   5.688   7.007   5.613 -0.0220  0.7644  0.5143
   98MOL   F10511939   5.609   7.058   5.703  0.2901 -0.9033  0.1279
   98MOL   F10611940   5.775   7.095   5.584 -0.1861  0.1751 -0.4236
   98MOL   C10711941   5.605   6.966   5.489  0.1336  0.4764 -0.3163
   98MOL   H10811942   5.524   6.903   5.526  1.4343  0.0877  1.9078
   98MOL   H10911943   5.661   6.910   5.413  0.1888  0.7893 -0.5074
   98MOL   C11011944   5.531   7.090   5.417  0.1892  0.1333 -0.2350
   98MOL   F11111945   5.436   7.034   5.336  0.0995 -0.2297 -0.0474
   98MOL   F11211946   5.467   7.162   5.503  0.2216 -0.3384 -0.2167
   98MOL   C11311947   5.628   7.181   5.344  0.4200  0.1766 -0.2820
   98MOL   H11411948   5.713   7.206   5.407  0.0390 -0.9801  0.7364
   98MOL   H11511949   5.574   7.273   5.324  0.5973  0.4165  0.3163
   98MOL   C11611950   5.684   7.127   5.216  0.2821 -0.2965 -0.5112
   98MOL   F11711951   5.767   7.025   5.248  0.3382 -0.0049 -0.5908
   98MOL   F11811952   5.591   7.081   5.137  0.1147  0.4231  0.4856
   98MOL   C11911953   5.774   7.225   5.140 -0.2830 -0.7588  0.6481
   98MOL   H12011954   5.724   7.315   5.105 -1.6359 -1.2935  1.1719
   98MOL   H12111955   5.803   7.173   5.049 -0.1518 -1.0711  0.8685
   98MOL   H12211956   5.858   7.249   5.205  0.1975  0.2567 -0.3223
   99MOL     C111957   2.239   6.551   6.982 -0.1954  0.1819 -0.8404
   99MOL     F211958   2.238   6.675   7.042  0.1389  0.0203  0.0314
   99MOL     F311959   2.238   6.564   6.851  0.2456 -0.1255 -0.2177
   99MOL     C411960   2.113   6.467   7.015  0.0276 -0.5753 -0.4300
   99MOL     H511961   2.037   6.486   6.939 -0.1881  3.5004  0.7079
   99MOL     H611962   2.073   6.488   7.114 -1.4810 -3.3280 -0.3869
   99MOL     H711963   2.330   6.496   7.006 -0.5462  0.1551  0.4863
   99MOL     C811964   2.139   6.311   7.016  0.7737 -0.6979  0.4209
   99MOL     F911965   2.175   6.291   6.889  0.0818 -0.3665 -0.1578
   99MOL    F1011966   2.234   6.280   7.102 -0.4923 -0.6067 -0.3117
   99MOL    C1111967   2.018   6.228   7.048  0.2901  0.1358  0.8189
   99MOL    H1211968   1.943   6.236   6.968  0.3187  2.8457  1.0012
   99MOL    H1311969   1.951   6.252   7.131 -0.9767 -3.3417  0.8872
   99MOL    C1411970   2.057   6.075   7.070  0.0864 -0.0256 -0.7785
   99MOL    F1511971   2.116   6.028   6.967  0.7814 -0.4278 -0.0553
   99MOL    F1611972   2.125   6.068   7.180 -0.0678 -0.2497  0.0742
   99MOL    C1711973   1.921   5.997   7.067 -0.2700 -0.3911 -0.4557
   99MOL    H1811974   1.874   6.008   6.970  0.6835 -1.7615 -1.0974
   99MOL    H1911975   1.873   6.047   7.151 -1.8059  0.1460 -1.6366
   99MOL    C2011976   1.923   5.843   7.086  0.1182 -0.4257  0.8488
   99MOL    F2111977   2.000   5.789   6.991  0.4711 -0.0080 -0.2937
   99MOL    F2211978   1.985   5.806   7.201  0.3152 -0.6529  0.1157
   99MOL    C2311979   1.784   5.771   7.080 -0.1169 -0.7326 -0.0426
   99MOL    H2411980   1.740   5.780   7.180 -0.9215 -0.8980 -0.3802
   99MOL    H2511981   1.798   5.666   7.058 -1.6637 -0.7679 -0.9421
   99MOL    C2611982   1.680   5.823   6.979  0.0166 -0.7332 -0.3900
   99MOL    F2711983   1.628   5.947   7.018  0.3025 -0.0894  0.6392
   99MOL    F2811984   1.740   5.831   6.860 -0.3208 -0.1972  0.1850
   99MOL    C2911985   1.559   5.732   6.967  0.5634 -0.7981 -0.3909
   99MOL    H3011986   1.471   5.784   6.930  0.1407 -0.3760  1.1759
   99MOL    H3111987   1.530   5.713   7.070 -1.0192  3.7409  0.1210
   99MOL    C3211988   1.566   5.608   6.882  0.1691  0.4633  1.0343
   99MOL    F3311989   1.605   5.636   6.760 -0.2926 -0.6618  0.1721
   99MOL    F3411990   1.655   5.530   6.942  0.5246 -0.2069  0.3931
   99MOL    C3511991   1.430   5.545   6.872  0.1098  0.7481 -0.0345
   99MOL    H3611992   1.373   5.615   6.811  1.4495  2.0240  0.1356
   99MOL    H3711993   1.391   5.534   6.973  0.8486 -1.7547 -0.0042
   99MOL    C3811994   1.441   5.410   6.804  0.6605 -0.2459 -0.3205
   99MOL    F3911995   1.517   5.403   6.693  0.0784 -0.7383 -0.6576
   99MOL    F4011996   1.477   5.321   6.896 -0.0947  0.4463  0.0615
   99MOL    C4111997   1.301   5.368   6.755  0.9316 -0.0427  0.7145
   99MOL    H4211998   1.274   5.445   6.683  1.6794 -1.3410 -0.9893
   99MOL    H4311999   1.228   5.384   6.834 -1.2528 -2.1809 -0.7901
   99MOL    C4412000   1.283   5.228   6.679  0.2159  0.6352  0.7721
   99MOL    F4512001   1.358   5.232   6.561  0.4009 -0.0440  0.0413
   99MOL    F4612002   1.327   5.125   6.747 -0.3107 -0.5647  0.2189
   99MOL    C4712003   1.142   5.196   6.617  0.2595 -0.1352 -0.0895
   99MOL    H4812004   1.149   5.106   6.556 -3.0154 -0.0340 -0.6944
   99MOL    H4912005   1.110   5.277   6.552 -0.3648  0.9365  1.5448
   99MOL    C5012006   1.027   5.183   6.713 -0.4618  0.2505 -0.4434
   99MOL    F5112007   1.066   5.105   6.813 -0.1113 -0.0640  0.2956
   99MOL    F5212008   1.006   5.309   6.766 -0.3659 -0.3675 -0.3782
   99MOL    C5312009   0.895   5.116   6.664  0.3358  0.1172  0.7057
   99MOL    H5412010   0.829   5.115   6.751  0.5589 -2.3985  0.8745
   99MOL    H5512011   0.895   5.011   6.637  0.4818 -0.2026  1.9313
   99MOL    C5612012   0.834   5.194   6.545 -0.5224  0.5039  0.4507
   99MOL    F5712013   0.830   5.320   6.586  0.0939 -0.0303  0.7189
   99MOL    F5812014   0.918   5.191   6.439  0.4515  0.5461 -0.0825
   99MOL    C5912015   0.690   5.146   6.509 -0.5468  0.1797 -0.0087
   99MOL    H6012016   0.634   5.163   6.601 -0.1458 -0.8427  0.4365
   99MOL    H6112017   0.684   5.040   6.484  3.3674 -0.1766  0.2881
   99MOL    C6212018   0.612   5.234   6.402 -0.5117 -0.3799 -0.5573
   99MOL    F6312019   0.631   5.355   6.444 -0.2870  0.2513 -0.2198
   99MOL    F6412020   0.666   5.214   6.285 -0.1987  0.2876  0.1015
   99MOL    C6512021   0.464   5.199   6.397 -0.0513 -0.2023 -0.6868
   99MOL    H6612022   0.424   5.178   6.496  0.6006  0.5575 -0.2552
   99MOL    H6712023   0.456   5.108   6.338 -0.7455  0.4328 -1.5774
   99MOL    C6812024   0.382   5.300   6.322  0.4514 -0.6789 -0.0235
   99MOL    F6912025   0.357   5.407   6.397  0.5028  0.5571  0.2700
   99MOL    F7012026   0.444   5.338   6.207  0.7609  0.0244  0.5386
   99MOL    C7112027   0.250   5.243   6.276  0.2829 -0.3624  0.1702
   99MOL    H7212028   0.275   5.164   6.205  0.9449  0.9896 -1.1162
   99MOL    H7312029   0.205   5.323   6.217 -1.0499 -0.3427  1.1884
   99MOL    C7412030   0.158   5.188   6.385 -0.4739 -0.9276 -0.0669
   99MOL    F7512031   0.180   5.059   6.419 -0.4600  0.0727 -0.7167
   99MOL    F7612032   0.160   5.270   6.491  0.3686  0.1393 -0.5606
   99MOL    C7712033   0.013   5.193   6.327 -0.5671  0.9433 -0.4175
   99MOL    H7812034   0.019   5.137   6.234 -0.2887  1.6095 -0.8060
   99MOL    H7912035   0.002   5.298   6.299  0.0442  1.5009  1.4064
   99MOL    C8012036   8.250   5.135   6.420  0.2315 -0.2248 -0.4023
   99MOL    F8112037   8.301   5.017   6.466 -0.5658  0.6556  0.0646
   99MOL    F8212038   8.234   5.217   6.530 -0.3066 -0.0066  0.0090
   99MOL    C8312039   8.109   5.119   6.359  0.0680 -0.0030 -0.0134
   99MOL    H8412040   8.045   5.091   6.443 -1.1435  0.7428 -0.6734
   99MOL    H8512041   8.104   5.032   6.293 -0.6069  0.1400 -0.1584
   99MOL    C8612042   8.052   5.235   6.271  0.1015 -0.6415  0.3289
   99MOL    F8712043   8.110   5.354   6.319  0.5253 -0.2921  0.3526
   99MOL    F8812044   8.086   5.221   6.149  0.0728  0.0393 -0.0875
   99MOL    C8912045   7.896   5.241   6.268  0.5631 -0.1070  0.4096
   99MOL    H9012046   7.884   5.302   6.179 -0.1600 -1.5504 -0.5030
   99MOL    H9112047   7.873   5.304   6.354  1.1737  2.3614 -1.1866
   99MOL    C9212048   7.809   5.117   6.244  0.5706  0.0821 -0.7805
   99MOL    F9312049   7.824   5.037   6.353  0.1189 -0.1853 -0.1557
   99MOL    F9412050   7.680   5.155   6.247 -0.3597  0.1427 -0.0587
   99MOL    C9512051   7.837   5.026   6.123  0.2010 -0.1784  0.0010
   99MOL    H9612052   7.785   4.931   6.133 -0.1283 -0.2323 -2.0251
   99MOL    H9712053   7.941   4.999   6.139  0.9502  0.9853 -2.6782
   99MOL    C9812054   7.823   5.083   5.977  0.6273 -0.3399 -0.3240
   99MOL    F9912055   7.892   5.205   5.958  0.6901 -0.2224 -0.3121
   99MOL   F10012056   7.866   4.983   5.899 -0.6993 -0.2354  0.6664
   99MOL   C10112057   7.669   5.107   5.940  0.1468 -0.1412 -0.1720
   99MOL   H10212058   7.635   5.189   6.003  0.6211 -1.5166  1.9180
   99MOL   H10312059   7.604   5.024   5.968  0.4404 -0.1672  0.4513
   99MOL   C10412060   7.645   5.149   5.797  0.8114 -0.0332 -0.5340
   99MOL   F10512061   7.712   5.063   5.727 -0.3979 -0.8033  0.1548
   99MOL   F10612062   7.518   5.129   5.776  0.3651 -0.4157 -0.1329
   99MOL   C10712063   7.689   5.289   5.743 -0.2082 -0.0958 -0.0848
   99MOL   H10812064   7.795   5.307   5.757  0.3096 -2.4349 -0.6577
   99MOL   H10912065   7.641   5.366   5.803 -0.1295 -0.9394  1.0852
   99MOL   C11012066   7.660   5.316   5.587 -0.2046  0.8373 -0.3512
   99MOL   F11112067   7.705   5.438   5.555  0.0650  0.0125  0.2348
   99MOL   F11212068   7.726   5.219   5.524 -0.3839  0.4393 -0.4667
   99MOL   C11312069   7.514   5.299   5.549  0.4972 -0.1313  0.0805
   99MOL   H11412070   7.484   5.195   5.563 -0.2662  0.2740  1.5968
   99MOL   H11512071   7.500   5.326   5.444 -0.0627  1.5814  0.5786
   99MOL   C11612072   7.405   5.391   5.611  0.1353  0.6074 -0.1367
   99MOL   F11712073   7.406   5.403   5.741  0.0131 -0.2683  0.0825
   99MOL   F11812074   7.414   5.515   5.559  0.1173  0.0736 -0.3668
   99MOL   C11912075   7.268   5.341   5.581  0.1967  0.2729 -0.7634
   99MOL   H12012076   7.237   5.247   5.626  2.7814  0.4445  1.4649
   99MOL   H12112077   7.248   5.333   5.474 -1.4454  1.2352 -0.5550
   99MOL   H12212078   7.188   5.411   5.607 -0.4108 -0.5595 -0.3741
  100MOL     C112079   3.511   3.825   1.243  0.2096 -0.0667 -0.1206
  100MOL     F212080   3.533   3.914   1.343 -0.2111 -0.5442 -0.1142
  100MOL     F312081   3.572   3.715   1.283  0.0724 -0.0752  0.2296
  100MOL     C412082   3.557   3.868   1.109 -0.0879  0.4518 -0.3678
  100MOL     H512083   3.545   3.782   1.042  1.5327  0.8369 -1.1707
  100MOL     H612084   3.660   3.901   1.118  0.1119  0.5004 -2.5958
  100MOL     H712085   3.404   3.803   1.244  0.9003 -3.5520  0.9021
  100MOL     C812086   3.469   3.980   1.055  0.0711  0.2904 -0.8003
  100MOL     F912087   3.337   3.937   1.048 -0.5142  0.0393  0.0092
  100MOL    F1012088   3.475   4.083   1.143  0.4294 -0.3040  0.0922
  100MOL    C1112089   3.510   4.046   0.918 -0.2927  0.4268 -0.3206
  100MOL    H1212090   3.590   4.116   0.943 -0.8372  0.4318  1.4951
  100MOL    H1312091   3.429   4.113   0.890 -1.5217 -0.8981  0.0050
  100MOL    C1412092   3.550   3.955   0.801 -0.0638 -0.0818 -0.3452
  100MOL    F1512093   3.647   3.872   0.834  0.6106 -0.5850 -0.1068
  100MOL    F1612094   3.443   3.877   0.787 -0.0582 -0.1863  0.2895
  100MOL    C1712095   3.589   4.038   0.676  0.1178 -0.1019 -0.9019
  100MOL    H1812096   3.619   3.967   0.598  2.2592 -0.6150  0.3421
  100MOL    H1912097   3.677   4.101   0.692  0.3220 -0.5540 -0.2109
  100MOL    C2012098   3.481   4.128   0.615  0.2117 -0.3751  0.4546
  100MOL    F2112099   3.469   4.229   0.702 -0.0609 -0.1582  0.0545
  100MOL    F2212100   3.527   4.188   0.503  0.0378 -0.3737  0.3567
  100MOL    C2312101   3.334   4.068   0.593 -0.4809 -0.0422 -0.4401
  100MOL    H2412102   3.269   4.145   0.550 -0.3760  1.2250  1.6364
  100MOL    H2512103   3.292   4.037   0.688 -1.4014  2.1057 -0.1119
  100MOL    C2612104   3.323   3.952   0.490 -0.3614 -0.3310  0.6471
  100MOL    F2712105   3.365   3.989   0.368  0.6125 -0.2987 -0.5888
  100MOL    F2812106   3.407   3.856   0.530 -0.1319 -0.0068 -0.1228
  100MOL    C2912107   3.179   3.899   0.466  0.1632 -0.2573 -0.4592
  100MOL    H3012108   3.205   3.807   0.414  0.9623 -0.1780 -0.2003
  100MOL    H3112109   3.123   3.962   0.396  1.0894 -2.3673 -3.1805
  100MOL    C3212110   3.096   3.873   0.592  0.3083  0.4388 -0.3066
  100MOL    F3312111   3.172   3.833   0.689 -0.7527 -0.3543 -0.6041
  100MOL    F3412112   3.044   3.988   0.628 -0.2120  0.1211  0.1458
  100MOL    C3512113   2.982   3.770   0.567 -0.2685  0.0887 -0.3505
  100MOL    H3612114   2.936   3.742   0.661 -0.7389  0.6698 -0.4087
  100MOL    H3712115   3.017   3.683   0.511  0.2385  1.0963 -1.6327
  100MOL    C3812116   2.859   3.822   0.489  0.1296 -0.2064 -0.2877
  100MOL    F3912117   2.819   3.947   0.517 -0.5759 -0.0864  0.2977
  100MOL    F4012118   2.908   3.821   0.363  0.4246  0.2541 -0.3778
  100MOL    C4112119   2.736   3.732   0.491  0.2460  0.1899  0.6249
  100MOL    H4212120   2.666   3.767   0.415  2.6980  0.1476 -1.6917
  100MOL    H4312121   2.699   3.734   0.594  0.6146 -2.0997  0.8337
  100MOL    C4412122   2.754   3.578   0.460  0.3257 -0.1774 -0.9374
  100MOL    F4512123   2.827   3.567   0.354  0.1231 -0.6514  0.2266
  100MOL    F4612124   2.821   3.520   0.563 -0.0988  0.3610 -0.0486
  100MOL    C4712125   2.618   3.509   0.453  0.2837 -0.2910 -0.2441
  100MOL    H4812126   2.562   3.550   0.369 -1.0998 -0.2427  0.6902
  100MOL    H4912127   2.565   3.531   0.546  0.1598  1.9924 -0.8351
  100MOL    C5012128   2.620   3.350   0.441 -0.3602 -0.0013 -0.3694
  100MOL    F5112129   2.717   3.318   0.353 -0.4086 -0.2656  0.1389
  100MOL    F5212130   2.660   3.314   0.561  0.0932 -0.4006 -0.0499
  100MOL    C5312131   2.486   3.291   0.407 -0.5869 -0.2319  0.3133
  100MOL    H5412132   2.440   3.343   0.323 -2.3638  0.2928  1.5961
  100MOL    H5512133   2.419   3.303   0.492  0.7268 -1.7050  1.5716
  100MOL    C5612134   2.480   3.147   0.375  0.2333  0.2322  1.0777
  100MOL    F5712135   2.355   3.114   0.336 -0.5083 -0.3043  0.2490
  100MOL    F5812136   2.563   3.124   0.276  0.0117  0.0206  0.7430
  100MOL    C5912137   2.527   3.053   0.485  0.2369 -0.4731 -0.3627
  100MOL    H6012138   2.628   3.079   0.516 -0.1136 -0.2093  0.5832
  100MOL    H6112139   2.547   2.956   0.440 -1.0123 -2.1562  2.5454
  100MOL    C6212140   2.433   3.051   0.610  0.6680  0.8105 -0.3106
  100MOL    F6312141   2.441   3.167   0.682 -0.0265 -0.1352 -0.1211
  100MOL    F6412142   2.305   3.032   0.572  0.1526 -0.3998  0.1016
  100MOL    C6512143   2.465   2.932   0.705  0.0612  0.4284 -0.1531
  100MOL    H6612144   2.470   2.841   0.645  1.6302  0.5424 -0.2234
  100MOL    H6712145   2.372   2.925   0.760 -0.4557 -1.1782 -1.1983
  100MOL    C6812146   2.586   2.943   0.795 -0.5353  0.3721  0.8920
  100MOL    F6912147   2.681   2.989   0.712  0.0685 -0.1784  0.3883
  100MOL    F7012148   2.567   3.026   0.896  0.0504  0.0661 -0.1907
  100MOL    C7112149   2.619   2.808   0.864  0.2678 -0.1129  0.2693
  100MOL    H7212150   2.625   2.734   0.784  0.3753  1.6126 -1.3653
  100MOL    H7312151   2.540   2.771   0.930 -0.8577  0.7529 -0.5544
  100MOL    C7412152   2.760   2.805   0.930  1.0006  0.0039 -0.0197
  100MOL    F7512153   2.780   2.678   0.959  0.4498  0.8431 -0.1114
  100MOL    F7612154   2.853   2.836   0.835 -0.1818 -0.0245  0.1414
  100MOL    C7712155   2.774   2.895   1.056 -0.4671 -0.1024  0.4524
  100MOL    H7812156   2.677   2.887   1.106 -1.2000  0.5091 -0.8490
  100MOL    H7912157   2.788   2.997   1.018  1.1265 -0.0422  1.1371
  100MOL    C8012158   2.885   2.848   1.145  0.1517  0.7585 -0.7016
  100MOL    F8112159   2.867   2.928   1.252  0.0754 -0.2143  0.0914
  100MOL    F8212160   2.865   2.725   1.185 -0.0606  0.0119  0.3661
  100MOL    C8312161   3.029   2.864   1.091  0.0107  0.6479  0.7084
  100MOL    H8412162   3.056   2.969   1.102  1.3746  0.3080  0.6910
  100MOL    H8512163   3.029   2.844   0.983 -2.1879 -0.5926  0.9156
  100MOL    C8612164   3.145   2.777   1.156  0.2205 -0.0556  0.0465
  100MOL    F8712165   3.141   2.794   1.291 -0.0672  0.0187 -0.6783
  100MOL    F8812166   3.120   2.649   1.131 -0.2705 -0.3709 -0.1252
  100MOL    C8912167   3.299   2.806   1.114 -0.4577 -0.2490  0.1269
  100MOL    H9012168   3.373   2.758   1.177  0.3172 -2.2391 -2.1972
  100MOL    H9112169   3.313   2.913   1.131 -0.5023 -0.1770 -0.2796
  100MOL    C9212170   3.342   2.774   0.974  0.0861 -0.2179  0.7838
  100MOL    F9312171   3.337   2.647   0.951  0.1725 -0.2324 -0.5997
  100MOL    F9412172   3.265   2.828   0.879 -0.0533  0.0994  0.0971
  100MOL    C9512173   3.493   2.804   0.945 -0.7822 -0.5859  0.1394
  100MOL    H9612174   3.535   2.751   0.860 -0.4059  1.2877 -0.8791
  100MOL    H9712175   3.550   2.760   1.027 -0.9550 -0.9255  0.0758
  100MOL    C9812176   3.539   2.953   0.927  0.0734  0.1403 -0.4662
  100MOL    F9912177   3.465   3.004   0.829 -0.0564 -0.2111 -0.5064
  100MOL   F10012178   3.519   3.016   1.040  0.6586 -0.4946 -0.0822
  100MOL   C10112179   3.689   2.948   0.896  0.0657 -0.6525 -0.0034
  100MOL   H10212180   3.699   2.892   0.803 -0.7116 -0.3296 -0.2858
  100MOL   H10312181   3.743   2.892   0.972  2.9115  0.0851 -1.4258
  100MOL   C10412182   3.763   3.079   0.887  0.1312  0.5735 -0.2829
  100MOL   F10512183   3.694   3.160   0.807 -0.1224 -0.3616 -0.1708
  100MOL   F10612184   3.761   3.128   1.013 -0.2333 -0.3570  0.0093
  100MOL   C10712185   3.908   3.076   0.834 -0.1879 -0.7203 -0.7262
  100MOL   H10812186   3.933   3.181   0.819 -0.7016 -0.5857 -0.6531
  100MOL   H10912187   3.904   3.043   0.730  1.3608 -0.9726 -0.7196
  100MOL   C11012188   4.017   3.007   0.918 -0.1376 -0.0942 -0.3724
  100MOL   F11112189   4.058   3.083   1.020 -0.0349  0.4609  0.7297
  100MOL   F11212190   3.980   2.883   0.962 -0.1625 -0.3212  0.0682
  100MOL   C11312191   4.138   2.983   0.823 -0.5121 -0.7460 -0.1297
  100MOL   H11412192   4.176   3.077   0.783 -0.6095 -1.4478 -1.9161
  100MOL   H11512193   4.095   2.931   0.737 -0.3325 -1.0707 -0.0242
  100MOL   C11612194   4.251   2.888   0.873 -0.2314 -0.0546  0.0068
  100MOL   F11712195   4.284   2.923   0.999 -0.0203  0.0553 -0.5595
  100MOL   F11812196   4.206   2.762   0.881  0.0642 -0.1338 -0.3803
  100MOL   C11912197   4.384   2.889   0.794 -0.1608  0.0876 -0.1261
  100MOL   H12012198   4.373   2.869   0.687  1.4798 -1.0928 -0.1024
  100MOL   H12112199   4.439   2.802   0.831 -0.8056 -0.5630 -0.6905
  100MOL   H12212200   4.440   2.982   0.807 -0.9077  0.6654 -0.9966
  101MOL     C112201   8.159   5.327   1.130  0.1096  0.4808 -0.8615
  101MOL     F212202   8.198   5.452   1.161 -0.1221  0.3087  0.2316
  101MOL     F312203   8.258   5.246   1.170  0.0959 -0.3406 -0.4687
  101MOL     C412204   8.131   5.321   0.978  0.4901 -0.0421  0.2664
  101MOL     H512205   8.115   5.215   0.958  0.5188  0.0590 -0.2935
  101MOL     H612206   8.223   5.353   0.930 -1.2104  0.8227 -2.5584
  101MOL     H712207   8.067   5.305   1.185  0.8008  2.0434  0.9847
  101MOL     C812208   8.001   5.395   0.917  0.5065 -0.2158  0.1557
  101MOL     F912209   7.884   5.342   0.964  0.6886  0.0620 -0.2580
  101MOL    F1012210   8.002   5.518   0.967 -0.4310  0.3612  0.1448
  101MOL    C1112211   8.013   5.399   0.761  0.3834  0.4177 -0.5958
  101MOL    H1212212   8.008   5.296   0.726  0.4447  1.2224 -3.0707
  101MOL    H1312213   8.112   5.435   0.733  0.6902 -0.6385 -0.8658
  101MOL    C1412214   7.902   5.485   0.692  0.2138 -0.2317  0.0347
  101MOL    F1512215   7.783   5.428   0.710  0.1846  0.5558 -0.3191
  101MOL    F1612216   7.899   5.605   0.752 -0.5308  0.2586  0.1864
  101MOL    C1712217   7.919   5.509   0.535 -0.1711 -0.1456 -0.5042
  101MOL    H1812218   7.943   5.419   0.479  0.2763  0.2354 -0.9321
  101MOL    H1912219   8.011   5.564   0.518  0.4285 -1.3172 -1.0770
  101MOL    C2012220   7.808   5.584   0.469 -0.1108  0.4503  0.1670
  101MOL    F2112221   7.687   5.534   0.475  0.4856 -0.1175  0.0342
  101MOL    F2212222   7.797   5.706   0.531 -0.1880  0.5753  0.0773
  101MOL    C2312223   7.843   5.599   0.315 -0.4102  0.3614  0.0965
  101MOL    H2412224   7.921   5.674   0.299  0.8976 -0.9068  0.3710
  101MOL    H2512225   7.758   5.641   0.261  0.0177 -0.7804 -1.4894
  101MOL    C2612226   7.884   5.475   0.234  0.2628 -0.7550 -0.6087
  101MOL    F2712227   8.010   5.430   0.260  0.6786 -0.0124  0.8317
  101MOL    F2812228   7.794   5.386   0.259  0.0781  0.0684 -0.0367
  101MOL    C2912229   7.877   5.513   0.091 -0.0573 -0.1225 -0.5105
  101MOL    H3012230   7.945   5.597   0.075 -0.1891 -0.0079 -0.4711
  101MOL    H3112231   7.776   5.547   0.066  0.3146  0.3873 -1.3435
  101MOL    C3212232   7.914   5.400   8.343  0.1613 -0.0577  0.8619
  101MOL    F3312233   7.862   5.291   0.037  0.3914 -0.4479 -0.4235
  101MOL    F3412234   7.856   5.437   8.227 -0.7417 -0.1571  0.6227
  101MOL    C3512235   8.068   5.389   8.309 -0.2086 -1.0522 -0.7286
  101MOL    H3612236   8.126   5.361   0.048 -0.6015  1.5904  0.3797
  101MOL    H3712237   8.091   5.489   8.272 -1.5580 -0.6391 -0.4761
  101MOL    C3812238   8.114   5.303   8.192 -0.2543 -0.2610  1.0166
  101MOL    F3912239   8.061   5.354   8.078  0.7351 -0.4717  0.0321
  101MOL    F4012240   8.242   5.327   8.187 -0.1999 -0.3113  0.4203
  101MOL    C4112241   8.086   5.153   8.213  0.3307  0.5667  0.3072
  101MOL    H4212242   7.978   5.135   8.220  0.8694 -2.2880  1.9467
  101MOL    H4312243   8.131   5.123   8.308 -0.7514 -0.7089  0.4288
  101MOL    C4412244   8.149   5.044   8.113  0.0836 -0.0345 -0.3872
  101MOL    F4512245   8.132   5.073   7.986  0.7233  0.2761  0.0348
  101MOL    F4612246   8.282   5.057   8.125 -0.0503  0.2552  0.6112
  101MOL    C4712247   8.108   4.897   8.141  0.2584 -0.3421  0.1533
  101MOL    H4812248   7.999   4.893   8.145  0.1704  0.3410 -1.3115
  101MOL    H4912249   8.135   4.857   8.238  0.1426  0.7832  0.6553
  101MOL    C5012250   8.158   4.793   8.033 -0.0084  0.0898  0.0348
  101MOL    F5112251   8.088   4.813   7.921 -0.0627  0.0510  0.3487
  101MOL    F5212252   8.281   4.821   8.000 -0.5314 -0.0861 -0.1364
  101MOL    C5312253   8.140   4.645   8.085  0.0294 -0.4390  0.1710
  101MOL    H5412254   8.035   4.617   8.091 -0.6585  2.4506  3.6411
  101MOL    H5512255   8.191   4.635   8.181 -0.1024 -0.6531  0.2190
  101MOL    C5612256   8.219   4.540   8.003 -0.9588 -0.0801  0.0944
  101MOL    F5712257   8.350   4.577   8.002 -0.2102 -0.0662  0.3374
  101MOL    F5812258   8.198   4.415   8.055  0.0418 -0.8022 -0.3069
  101MOL    C5912259   8.158   4.530   7.856  0.1476 -0.7862 -0.6210
  101MOL    H6012260   8.213   4.461   7.793 -1.9528 -1.9631 -1.2144
  101MOL    H6112261   8.162   4.621   7.796  0.7048  0.9939  2.0040
  101MOL    C6212262   8.014   4.479   7.845 -0.9083  0.5667  0.6927
  101MOL    F6312263   7.992   4.378   7.928  0.2196 -0.0512  0.1233
  101MOL    F6412264   7.926   4.565   7.883  0.2362  0.9922 -0.1121
  101MOL    C6512265   7.978   4.420   7.708 -0.5827  0.2324  0.6493
  101MOL    H6612266   7.886   4.365   7.728 -0.3460  0.4637  2.5261
  101MOL    H6712267   8.046   4.339   7.682 -0.8873  0.3955 -0.6810
  101MOL    C6812268   7.971   4.515   7.584 -0.3671 -0.8316 -0.4619
  101MOL    F6912269   8.100   4.550   7.558  0.1536 -0.3389 -0.6169
  101MOL    F7012270   7.932   4.446   7.481 -0.1802 -0.2164  0.1313
  101MOL    C7112271   7.877   4.635   7.604  0.1506 -0.1310  0.5375
  101MOL    H7212272   7.911   4.700   7.684  1.0865 -0.4042  0.3652
  101MOL    H7312273   7.786   4.589   7.643 -0.9705  2.3342  0.8911
  101MOL    C7412274   7.862   4.728   7.483 -0.4751 -0.0462  0.3709
  101MOL    F7512275   7.989   4.755   7.435  0.0177 -0.4078 -0.1947
  101MOL    F7612276   7.802   4.676   7.376 -0.0669 -0.1118 -0.1518
  101MOL    C7712277   7.790   4.863   7.533 -0.3038  0.8192 -0.4929
  101MOL    H7812278   7.855   4.929   7.591  1.5492 -0.7845 -0.6869
  101MOL    H7912279   7.710   4.834   7.600  0.2625 -1.8550 -0.9103
  101MOL    C8012280   7.740   4.946   7.413  0.3180  0.3658  0.6704
  101MOL    F8112281   7.635   4.884   7.353  0.1519 -0.2490 -0.1482
  101MOL    F8212282   7.702   5.070   7.456  0.3074  0.2315  0.4467
  101MOL    C8312283   7.848   4.965   7.298  0.1588 -0.0489 -0.2832
  101MOL    H8412284   7.861   4.868   7.251 -2.2822 -0.9976  0.8909
  101MOL    H8512285   7.942   5.000   7.341 -0.6428  0.0189  1.4766
  101MOL    C8612286   7.828   5.060   7.187  0.1781  0.9256 -0.1965
  101MOL    F8712287   7.812   5.184   7.214  0.0054  0.1751 -0.4996
  101MOL    F8812288   7.937   5.051   7.112  0.5799 -0.5283 -0.4489
  101MOL    C8912289   7.716   5.030   7.090  0.0381 -0.5446 -0.8119
  101MOL    H9012290   7.716   5.114   7.020  0.6479  0.0488 -0.1073
  101MOL    H9112291   7.617   5.036   7.136  0.1333  0.0835 -0.6868
  101MOL    C9212292   7.704   4.898   7.016  0.3291  0.2610  0.6402
  101MOL    F9312293   7.675   4.805   7.100 -0.2170  0.0153  0.0304
  101MOL    F9412294   7.605   4.925   6.928  0.2607  0.0614  0.1006
  101MOL    C9512295   7.825   4.854   6.936  0.3594  0.0458 -0.0871
  101MOL    H9612296   7.908   4.823   7.000 -0.1971 -3.6912 -1.0731
  101MOL    H9712297   7.852   4.941   6.876 -0.6576  1.5741  1.6098
  101MOL    C9812298   7.809   4.736   6.841 -0.5071  0.2419 -0.1530
  101MOL    F9912299   7.768   4.627   6.902  0.3996  0.0034 -0.2670
  101MOL   F10012300   7.719   4.764   6.752 -0.1010 -0.0768 -0.2969
  101MOL   C10112301   7.946   4.699   6.779 -0.1290  0.3631 -0.1562
  101MOL   H10212302   7.937   4.610   6.716  2.1763  0.6892 -0.9571
  101MOL   H10312303   8.014   4.675   6.861  1.3149  0.7366 -1.2463
  101MOL   C10412304   8.013   4.804   6.691  0.5278  0.1235  0.0251
  101MOL   F10512305   7.930   4.854   6.593 -0.2127  0.5911 -0.5260
  101MOL   F10612306   8.060   4.908   6.758  0.0164  0.6747 -0.9496
  101MOL   C10712307   8.131   4.735   6.622  0.2844 -0.4431  0.0326
  101MOL   H10812308   8.155   4.794   6.533  1.6349  1.7306  1.7866
  101MOL   H10912309   8.088   4.653   6.564  0.8611 -0.6122 -0.1536
  101MOL   C11012310   8.257   4.703   6.702  0.1424 -0.0800 -0.3842
  101MOL   F11112311   8.316   4.818   6.742  0.4142 -0.0537  0.0495
  101MOL   F11212312   8.236   4.634   6.812  0.4311 -0.0164 -0.3272
  101MOL   C11312313   0.004   4.624   6.615 -0.3950  0.4078 -0.0400
  101MOL   H11412314   0.019   4.679   6.522 -0.5926  1.6169  0.6232
  101MOL   H11512315   8.301   4.533   6.589  1.7048 -0.3126 -1.9152
  101MOL   C11612316   0.137   4.572   6.684 -0.8883 -0.0438 -0.5838
  101MOL   F11712317   0.215   4.510   6.596 -0.5841 -0.0925 -0.4720
  101MOL   F11812318   0.209   4.678   6.705  0.0891  0.0793 -0.1687
  101MOL   C11912319   0.132   4.489   6.817 -0.1076  0.3769  0.4450
  101MOL   H12012320   0.069   4.401   6.805  1.0314 -0.2204 -1.2001
  101MOL   H12112321   0.094   4.556   6.895  1.8022  2.2873 -0.2415
  101MOL   H12212322   0.230   4.451   6.843  0.0784  1.3503  1.1842
  102MOL     C112323   5.095   3.480   5.519  0.3534  0.2684 -0.2034
  102MOL     F212324   5.021   3.390   5.457 -0.2368  0.1017  0.4150
  102MOL     F312325   5.182   3.541   5.441 -0.2568 -0.3570 -1.1013
  102MOL     C412326   5.175   3.431   5.648  0.4942 -0.5412 -0.7346
  102MOL     H512327   5.258   3.497   5.672 -0.1731  0.3314 -0.7886
  102MOL     H612328   5.225   3.338   5.622 -1.5207 -1.5719 -1.0661
  102MOL     H712329   5.023   3.558   5.543 -0.5001 -0.5171 -0.1950
  102MOL     C812330   5.086   3.397   5.766 -0.0672 -0.2633 -0.1553
  102MOL     F912331   5.010   3.501   5.794  0.7379 -0.5852  0.1066
  102MOL    F1012332   5.015   3.286   5.747 -0.0188  0.0078  0.2210
  102MOL    C1112333   5.170   3.381   5.899  0.3844 -0.1063 -0.1794
  102MOL    H1212334   5.205   3.483   5.914  1.1641 -0.8927  4.3219
  102MOL    H1312335   5.254   3.314   5.880 -1.2015 -1.7980 -1.3646
  102MOL    C1412336   5.095   3.332   6.024 -0.0420  0.7801  0.5894
  102MOL    F1512337   5.043   3.211   6.008  0.0091 -0.0879  0.3299
  102MOL    F1612338   5.190   3.327   6.116 -0.2874  0.4858  0.1450
  102MOL    C1712339   4.981   3.433   6.060  0.0377  0.0054 -0.6934
  102MOL    H1812340   4.899   3.425   5.989 -1.9816 -2.9654  1.8153
  102MOL    H1912341   5.012   3.537   6.071 -4.3972  1.1856  1.8619
  102MOL    C2012342   4.920   3.407   6.201  0.3047 -0.3339 -0.8267
  102MOL    F2112343   4.825   3.494   6.225  0.0997  0.3855 -0.0598
  102MOL    F2212344   4.858   3.293   6.196  0.2089  0.1014  0.1917
  102MOL    C2312345   5.019   3.390   6.325 -0.3793  0.1287  0.2275
  102MOL    H2412346   5.075   3.299   6.311  0.5647  0.4885  1.5303
  102MOL    H2512347   4.953   3.372   6.410  0.4163  1.0912  1.0577
  102MOL    C2612348   5.104   3.518   6.370  0.2178  0.5231 -0.9529
  102MOL    F2712349   5.184   3.480   6.471 -0.3087  0.1560  0.1642
  102MOL    F2812350   5.188   3.547   6.268  0.0310  0.1114 -0.3348
  102MOL    C2912351   5.032   3.649   6.410  0.3984 -0.5299 -0.0517
  102MOL    H3012352   4.951   3.630   6.480 -0.7408  1.4747 -0.7739
  102MOL    H3112353   4.986   3.697   6.324  0.6612  0.4895  0.3695
  102MOL    C3212354   5.117   3.763   6.479 -0.0596 -0.5474  0.1414
  102MOL    F3312355   5.036   3.867   6.507 -0.0545 -0.2705  0.2052
  102MOL    F3412356   5.150   3.709   6.592 -0.2044 -0.3608 -0.1334
  102MOL    C3512357   5.244   3.808   6.396 -1.1871 -0.6225 -0.1931
  102MOL    H3612358   5.205   3.857   6.306  0.7976 -0.5451 -1.0457
  102MOL    H3712359   5.302   3.722   6.363  2.9684  1.1415  2.0666
  102MOL    C3812360   5.339   3.905   6.468  0.3351  0.0990  0.1015
  102MOL    F3912361   5.454   3.886   6.394 -0.1228  0.4773  0.0973
  102MOL    F4012362   5.302   4.034   6.452 -0.0680 -0.2261 -0.1607
  102MOL    C4112363   5.366   3.871   6.620 -0.3399 -0.5748 -0.7585
  102MOL    H4212364   5.392   3.767   6.637 -0.5005 -0.5251 -0.1970
  102MOL    H4312365   5.279   3.894   6.682  1.1158 -0.5619  1.3192
  102MOL    C4412366   5.495   3.940   6.681 -0.3589  0.0315 -0.1484
  102MOL    F4512367   5.481   4.068   6.656 -0.8163 -0.7178 -0.3852
  102MOL    F4612368   5.500   3.917   6.810  0.0946  0.0522 -0.0685
  102MOL    C4712369   5.636   3.894   6.620 -0.5774 -0.1265 -0.4678
  102MOL    H4812370   5.645   3.919   6.514 -1.7019 -1.5455 -0.9137
  102MOL    H4912371   5.639   3.786   6.610  2.8953 -0.1958  0.7867
  102MOL    C5012372   5.755   3.940   6.707 -0.2505  0.7031 -0.4689
  102MOL    F5112373   5.750   4.067   6.730  0.0736  0.0357 -0.2372
  102MOL    F5212374   5.754   3.863   6.815 -0.1688 -0.2831  0.0688
  102MOL    C5312375   5.893   3.917   6.645 -0.0292  0.5377 -0.3226
  102MOL    H5412376   5.907   3.976   6.555  3.4904  0.2211 -0.0532
  102MOL    H5512377   5.894   3.812   6.617 -2.0187  0.5360 -0.3915
  102MOL    C5612378   6.015   3.938   6.736  0.4494 -0.4166  0.5256
  102MOL    F5712379   6.011   3.836   6.822 -0.2033  0.3564 -0.0231
  102MOL    F5812380   6.135   3.920   6.670  0.7585 -0.0052 -0.5402
  102MOL    C5912381   6.011   4.076   6.815 -0.1477  0.0795  0.4109
  102MOL    H6012382   5.921   4.085   6.877 -0.0368 -1.3215  0.7999
  102MOL    H6112383   6.006   4.146   6.732  0.0928 -1.8828 -1.2987
  102MOL    C6212384   6.136   4.115   6.895 -0.1999  1.2565 -0.1020
  102MOL    F6312385   6.245   4.094   6.819  0.3427 -0.1613  0.3488
  102MOL    F6412386   6.130   4.239   6.929 -0.4808  0.1033 -0.5086
  102MOL    C6512387   6.163   4.033   7.023  0.0351  0.3032 -0.6304
  102MOL    H6612388   6.250   4.080   7.069 -0.6188 -0.3303  1.3146
  102MOL    H6712389   6.185   3.931   6.992  0.2016 -0.0515  0.6118
  102MOL    C6812390   6.051   4.029   7.133 -0.1124 -0.0127  0.4772
  102MOL    F6912391   6.025   4.154   7.160 -0.6721 -0.3807 -0.4517
  102MOL    F7012392   5.935   3.975   7.087  0.1895 -0.0998  0.3519
  102MOL    C7112393   6.099   3.953   7.258  0.2766  0.8298  0.1959
  102MOL    H7212394   6.198   3.984   7.291  0.1354  1.4299  0.0487
  102MOL    H7312395   6.109   3.849   7.226  1.7343  0.4272  1.8673
  102MOL    C7412396   6.015   3.975   7.382 -0.5321  1.0741 -0.0305
  102MOL    F7512397   6.056   3.895   7.477 -0.3291  0.3480  0.0053
  102MOL    F7612398   6.033   4.107   7.420  0.0656 -0.4018  0.4488
  102MOL    C7712399   5.855   3.954   7.363 -0.5399  0.3756  0.0617
  102MOL    H7812400   5.827   3.853   7.333 -0.0227  1.3516 -4.0391
  102MOL    H7912401   5.827   4.018   7.279 -0.3224 -0.0139 -0.3111
  102MOL    C8012402   5.768   4.005   7.483 -0.4483 -0.2982  0.6978
  102MOL    F8112403   5.779   4.137   7.485 -0.0379 -0.1457 -0.6700
  102MOL    F8212404   5.647   3.974   7.438  0.8114 -0.0555  0.1006
  102MOL    C8312405   5.787   3.939   7.617 -0.2699 -0.7930 -0.0964
  102MOL    H8412406   5.892   3.927   7.645 -1.0474 -0.5079  3.1121
  102MOL    H8512407   5.744   3.839   7.610 -0.5835 -0.6918  0.3594
  102MOL    C8612408   5.709   4.019   7.731 -0.0165 -0.2505 -0.3205
  102MOL    F8712409   5.740   3.959   7.841 -0.2877  0.1083 -0.2647
  102MOL    F8812410   5.753   4.149   7.723 -0.3160 -0.2947 -0.3312
  102MOL    C8912411   5.554   4.016   7.715 -0.3568 -0.0284 -0.3574
  102MOL    H9012412   5.518   3.914   7.707 -2.5652  0.6831  0.0925
  102MOL    H9112413   5.538   4.068   7.620 -2.2934 -2.2310 -1.3004
  102MOL    C9212414   5.482   4.085   7.835  0.2193  0.2730  0.1695
  102MOL    F9312415   5.514   4.014   7.943  0.3331 -0.0766 -0.5117
  102MOL    F9412416   5.540   4.206   7.837  0.1600  0.5308  0.6531
  102MOL    C9512417   5.324   4.097   7.826 -0.4204  0.4497  0.7491
  102MOL    H9612418   5.278   3.998   7.826  0.4193 -0.0031 -2.5423
  102MOL    H9712419   5.307   4.141   7.728  1.6282  1.6340  0.8944
  102MOL    C9812420   5.232   4.177   7.933  0.5384  0.1422 -0.4932
  102MOL    F9912421   5.217   4.118   8.055 -0.7097 -0.3138  0.3175
  102MOL   F10012422   5.305   4.285   7.957  0.2664  0.0481  0.3744
  102MOL   C10112423   5.096   4.227   7.878  0.3192  0.0306  0.0398
  102MOL   H10212424   5.112   4.287   7.788  0.4070 -1.4186 -0.9289
  102MOL   H10312425   5.046   4.290   7.951  0.0939  0.7375 -0.7123
  102MOL   C10412426   4.993   4.115   7.854  0.1369  0.3454 -0.6716
  102MOL   F10512427   5.031   4.035   7.758  0.3703 -0.4542 -0.0822
  102MOL   F10612428   4.961   4.042   7.963 -0.2870 -0.5566 -0.2008
  102MOL   C10712429   4.859   4.176   7.819 -0.3514 -0.5646 -0.3578
  102MOL   H10812430   4.879   4.237   7.730  0.6330 -1.4558 -0.7623
  102MOL   H10912431   4.821   4.234   7.903 -0.8347 -2.0063  0.4247
  102MOL   C11012432   4.745   4.085   7.784 -0.8169 -0.1576 -0.1190
  102MOL   F11112433   4.778   4.022   7.674 -0.1567 -0.6290  0.1512
  102MOL   F11212434   4.711   3.995   7.878 -0.9572 -0.3299 -0.0487
  102MOL   C11312435   4.605   4.161   7.771 -0.4356  0.1172 -0.0307
  102MOL   H11412436   4.612   4.255   7.717 -0.4917  0.3408  0.3489
  102MOL   H11512437   4.576   4.197   7.869 -1.1591 -0.3605 -0.0623
  102MOL   C11612438   4.491   4.088   7.691 -0.2486 -0.6429  0.4511
  102MOL   F11712439   4.518   4.070   7.558  0.1808  0.7369 -0.2068
  102MOL   F11812440   4.464   3.974   7.755  0.3405  0.5486 -0.0220
  102MOL   C11912441   4.363   4.163   7.693 -0.1639 -0.1774  0.3588
  102MOL   H12012442   4.305   4.104   7.621 -0.2216 -2.6068  2.3065
  102MOL   H12112443   4.360   4.267   7.662  2.5299 -0.5353 -1.2048
  102MOL   H12212444   4.312   4.159   7.790 -1.2239  1.8231 -0.0955
  103MOL     C112445   5.482   7.679   5.603 -0.6439  0.5820  0.3100
  103MOL     F212446   5.525   7.638   5.723  0.3857 -0.3812 -0.2676
  103MOL     F312447   5.346   7.686   5.610 -0.3373 -0.0808  0.0952
  103MOL     C412448   5.541   7.583   5.495  0.6839  0.3609  0.0581
  103MOL     H512449   5.497   7.622   5.404  1.1060  1.3214  0.2508
  103MOL     H612450   5.505   7.481   5.506 -0.4467  0.6773 -0.6361
  103MOL     H712451   5.516   7.782   5.596 -2.1487  1.1004  0.3547
  103MOL     C812452   5.692   7.600   5.472  0.6762 -0.3965 -0.7249
  103MOL     F912453   5.704   7.559   5.350  0.0262 -0.1304  0.2452
  103MOL    F1012454   5.729   7.731   5.483  0.6125 -0.0414 -0.5020
  103MOL    C1112455   5.783   7.525   5.577 -0.1696 -0.3812 -0.3007
  103MOL    H1212456   5.725   7.443   5.618  0.0058  0.9755  2.7440
  103MOL    H1312457   5.810   7.586   5.663  2.4848 -0.8576 -0.7613
  103MOL    C1412458   5.921   7.490   5.518  0.1697  0.5468 -0.1882
  103MOL    F1512459   5.979   7.429   5.622  0.0900 -0.2939 -0.5274
  103MOL    F1612460   5.909   7.409   5.414  0.4347  0.0752  0.3183
  103MOL    C1712461   6.007   7.609   5.477  0.6418 -0.0573  0.1813
  103MOL    H1812462   6.016   7.669   5.567  1.4711  0.0861  0.0013
  103MOL    H1912463   5.945   7.659   5.403  0.2851  0.3845  0.7732
  103MOL    C2012464   6.147   7.577   5.422  0.0228  0.1592  0.2655
  103MOL    F2112465   6.219   7.490   5.507 -0.2293  0.0168 -0.6579
  103MOL    F2212466   6.120   7.520   5.306  0.5038  0.2472 -0.0065
  103MOL    C2312467   6.226   7.710   5.402  0.0130  0.3793 -0.6340
  103MOL    H2412468   6.246   7.756   5.499 -0.0458 -1.2691  0.1939
  103MOL    H2512469   6.169   7.783   5.346 -2.4172 -1.8065 -1.1198
  103MOL    C2612470   6.364   7.684   5.320  0.3503 -0.4441 -0.5132
  103MOL    F2712471   6.445   7.598   5.377 -0.0668  0.3040 -0.0300
  103MOL    F2812472   6.324   7.638   5.208  0.1863 -0.0282  0.2796
  103MOL    C2912473   6.434   7.822   5.314 -1.3137 -0.6567 -0.3990
  103MOL    H3012474   6.442   7.872   5.410 -0.9058 -0.9134 -0.2966
  103MOL    H3112475   6.358   7.879   5.262  0.1036  1.6901  0.0534
  103MOL    C3212476   6.577   7.821   5.243 -0.2658  0.3770  0.4343
  103MOL    F3312477   6.658   7.723   5.292  0.0588  0.2398  0.0745
  103MOL    F3412478   6.561   7.784   5.118  0.5887 -0.0673 -0.0825
  103MOL    C3512479   6.650   7.956   5.231 -0.7010  0.2005 -0.4937
  103MOL    H3612480   6.568   8.019   5.197 -1.9152 -2.9004 -3.5141
  103MOL    H3712481   6.720   7.956   5.147 -0.2737 -1.5222 -0.1520
  103MOL    C3812482   6.710   8.022   5.354 -0.3448 -0.1348 -0.0649
  103MOL    F3912483   6.693   8.158   5.336  0.0752  0.4632 -0.1907
  103MOL    F4012484   6.650   7.977   5.462 -0.2999 -0.3082 -0.3766
  103MOL    C4112485   6.871   7.997   5.344  0.0647 -0.9704 -0.3644
  103MOL    H4212486   6.912   8.028   5.248 -0.8152  0.6194 -0.2312
  103MOL    H4312487   6.882   7.889   5.358  0.8087 -0.5564  2.6999
  103MOL    C4412488   6.942   8.073   5.462  0.5675 -0.0035 -0.2809
  103MOL    F4512489   6.897   8.196   5.462 -0.5350  0.1756  0.0360
  103MOL    F4612490   6.892   8.025   5.574 -0.3485  0.1463 -0.1126
  103MOL    C4712491   7.094   8.052   5.484  0.0891 -0.1482  0.1969
  103MOL    H4812492   7.112   7.944   5.484 -1.8831 -0.5048 -0.0577
  103MOL    H4912493   7.128   8.086   5.582 -2.0138 -0.0226  0.9043
  103MOL    C5012494   7.188   8.102   5.377 -0.8649 -0.0212 -0.4165
  103MOL    F5112495   7.313   8.087   5.418  0.1708 -0.1554  0.4461
  103MOL    F5212496   7.173   8.021   5.275  0.1629 -0.8502  0.2243
  103MOL    C5312497   7.157   8.241   5.324 -0.4427  0.1654  0.0186
  103MOL    H5412498   7.135   8.302   5.412 -2.9953 -1.5754  0.6366
  103MOL    H5512499   7.063   8.237   5.268  1.0656  0.9939 -2.6827
  103MOL    C5612500   7.264   8.312   5.251 -0.5217  0.3433  0.6666
  103MOL    F5712501   7.289   8.245   5.135  0.2392  0.6794  0.4590
  103MOL    F5812502   7.209   0.082   5.224 -0.2611  0.0183  0.3659
  103MOL    C5912503   7.399   0.001   5.319  0.1559  0.1216 -0.7532
  103MOL    H6012504   7.461   0.060   5.252 -1.2009  2.3058 -0.1291
  103MOL    H6112505   7.458   8.261   5.338  1.0784  1.0849  1.0176
  103MOL    C6212506   7.403   0.084   5.453 -0.3032  1.1811  0.2400
  103MOL    F6312507   7.325   0.187   5.438  0.0851 -0.2535 -0.1408
  103MOL    F6412508   7.350   0.010   5.553 -0.7245  0.0760 -0.8424
  103MOL    C6512509   7.543   0.136   5.500 -0.0046  0.1123 -0.0503
  103MOL    H6612510   7.524   0.164   5.603 -0.2480  0.9791 -0.3274
  103MOL    H6712511   7.561   0.226   5.441  0.9897 -0.8256 -1.2215
  103MOL    C6812512   7.663   0.035   5.486 -0.1344  0.5715  0.2533
  103MOL    F6912513   7.630   8.277   5.557 -0.2217  0.0442  0.1531
  103MOL    F7012514   7.682   0.008   5.357  0.2199 -0.1947  0.6501
  103MOL    C7112515   7.788   0.093   5.549  0.2631  0.0489  0.7502
  103MOL    H7212516   7.753   0.097   5.652  0.3083  0.8203  0.7392
  103MOL    H7312517   7.802   0.198   5.522 -0.3968  0.5527  2.3242
  103MOL    C7412518   7.919   0.013   5.536  0.6888  1.1146 -0.5937
  103MOL    F7512519   7.908   8.247   5.590 -0.0409 -0.1743 -0.1322
  103MOL    F7612520   7.949   8.345   5.409 -0.2788  0.1600  0.1425
  103MOL    C7712521   8.045   0.072   5.602 -0.0037  0.7300  0.0299
  103MOL    H7812522   8.124   8.349   5.582 -0.7941  0.1650 -1.0535
  103MOL    H7912523   8.034   0.078   5.711  1.3045 -0.9446  0.2686
  103MOL    C8012524   8.112   0.196   5.540  0.3585 -0.2603  0.1519
  103MOL    F8112525   8.131   0.181   5.405 -0.1989 -0.6991 -0.7526
  103MOL    F8212526   8.029   0.300   5.556 -0.0907  0.0813 -0.1591
  103MOL    C8312527   8.240   0.235   5.613  0.1722  0.0852  0.0638
  103MOL    H8412528   8.315   0.166   5.574  1.2373  1.6988 -0.7982
  103MOL    H8512529   8.229   0.204   5.717 -1.0460 -0.2441 -0.1544
  103MOL    C8612530   8.293   0.380   5.586 -0.3653 -0.2984  0.0578
  103MOL    F8712531   0.070   0.384   5.620 -0.2241 -0.6698  0.0916
  103MOL    F8812532   8.275   0.406   5.457  0.2023  0.5970  0.1877
  103MOL    C8912533   8.230   0.489   5.669 -0.1446 -0.7686  0.0753
  103MOL    H9012534   8.251   0.470   5.775  0.2908 -0.0194  0.1262
  103MOL    H9112535   8.121   0.485   5.664 -0.1743 -1.3286  0.9760
  103MOL    C9212536   8.273   0.633   5.632  0.5310 -0.3792  0.6722
  103MOL    F9312537   8.210   0.701   5.727 -0.1905 -0.1919 -0.0269
  103MOL    F9412538   0.056   0.658   5.645  0.4481  0.2652  0.2660
  103MOL    C9512539   8.221   0.681   5.494  0.3542 -0.2918  0.7320
  103MOL    H9612540   8.120   0.646   5.472 -0.0775  1.3261  0.0172
  103MOL    H9712541   8.281   0.641   5.413  0.0816  0.2481  0.2555
  103MOL    C9812542   8.227   0.830   5.483  0.7077  0.8310 -0.4964
  103MOL    F9912543   8.167   0.857   5.369  0.5988 -0.4400 -0.4037
  103MOL   F10012544   8.156   0.887   5.572  0.0794  0.0306 -0.3318
  103MOL   C10112545   0.016   0.887   5.476  0.0229 -0.1153 -0.5594
  103MOL   H10212546   0.076   0.834   5.403 -0.5682 -1.9676  0.2525
  103MOL   H10312547   0.067   0.871   5.571  0.3552 -1.3244 -0.9366
  103MOL   C10412548   0.029   1.037   5.453 -0.2131 -0.2057 -0.1139
  103MOL   F10512549   8.312   1.072   5.339  0.5339 -0.0401 -0.7326
  103MOL   F10612550   8.337   1.108   5.557  0.7149 -0.1186  0.0171
  103MOL   C10712551   0.174   1.089   5.415  0.2790 -0.7340  0.1452
  103MOL   H10812552   0.200   1.047   5.318  1.5063 -0.3520  0.2989
  103MOL   H10912553   0.247   1.057   5.489 -1.4271  0.6092  2.4468
  103MOL   C11012554   0.198   1.240   5.415  0.5718 -0.0354 -0.2873
  103MOL   F11112555   0.116   1.305   5.334  0.0388  0.0327 -0.2008
  103MOL   F11212556   0.168   1.286   5.538  0.3662 -0.2979  0.1656
  103MOL   C11312557   0.341   1.271   5.365 -0.8223 -0.1600  0.1293
  103MOL   H11412558   0.356   1.225   5.268  2.6377 -1.0674  1.0183
  103MOL   H11512559   0.409   1.217   5.432 -0.1076  0.2474 -0.2722
  103MOL   C11612560   0.381   1.412   5.360  0.2051 -0.9019  1.2387
  103MOL   F11712561   0.507   1.413   5.319  0.0115  0.3857  0.0930
  103MOL   F11812562   0.308   1.476   5.273  0.3680 -0.3080  0.3201
  103MOL   C11912563   0.380   1.481   5.494  0.4856 -0.0893 -0.1122
  103MOL   H12012564   0.278   1.471   5.532  1.1819  1.1669  2.1131
  103MOL   H12112565   0.422   1.581   5.487 -3.0374  1.4988  0.5721
  103MOL   H12212566   0.442   1.422   5.561 -0.7205  0.6406  1.6687
  104MOL     C112567   7.471   7.204   1.290 -0.2638 -0.9587 -0.0969
  104MOL     F212568   7.424   7.090   1.319  0.2151  0.2571 -0.0971
  104MOL     F312569   7.468   7.220   1.156 -0.2478 -0.0418 -1.0559
  104MOL     C412570   7.620   7.212   1.315 -0.4498  0.0259 -0.6116
  104MOL     H512571   7.651   7.312   1.282 -0.4515  0.5684  0.9890
  104MOL     H612572   7.679   7.140   1.259  0.2997 -0.0397  0.2599
  104MOL     H712573   7.425   7.293   1.332 -1.3957 -1.8880  0.6757
  104MOL     C812574   7.656   7.196   1.453  0.4898 -0.7146  0.0992
  104MOL     F912575   7.787   7.230   1.462 -0.2695  0.1575  0.6426
  104MOL    F1012576   7.592   7.291   1.524 -0.0490 -0.1738  0.2895
  104MOL    C1112577   7.631   7.062   1.527  0.1010  0.0361  0.2797
  104MOL    H1212578   7.679   6.978   1.477 -1.6703  1.0612 -3.2918
  104MOL    H1312579   7.525   7.041   1.521  0.5762 -2.6144  0.5610
  104MOL    C1412580   7.661   7.050   1.675  0.3059 -0.0363 -0.3020
  104MOL    F1512581   7.790   7.077   1.706 -0.7544  0.0770  0.2007
  104MOL    F1612582   7.588   7.145   1.736 -0.6739  0.0006  0.8686
  104MOL    C1712583   7.606   6.928   1.751  0.8794  0.4839 -0.0002
  104MOL    H1812584   7.498   6.935   1.741  0.6626 -0.4508  1.4724
  104MOL    H1912585   7.618   6.946   1.858  0.4452 -0.7458  0.2607
  104MOL    C2012586   7.663   6.784   1.712  0.7418  0.0998  0.2590
  104MOL    F2112587   7.592   6.699   1.786  0.8528 -0.0523  0.0838
  104MOL    F2212588   7.644   6.759   1.586 -0.4172  0.2520 -0.1796
  104MOL    C2312589   7.810   6.776   1.753 -0.7092  0.1900  0.3387
  104MOL    H2412590   7.833   6.838   1.839  1.5336 -0.2709  0.1003
  104MOL    H2512591   7.880   6.824   1.684 -2.3539  0.7264 -0.9842
  104MOL    C2612592   7.860   6.634   1.792  0.0600 -0.6152  0.0607
  104MOL    F2712593   7.988   6.647   1.829  0.2491  0.5231  0.2591
  104MOL    F2812594   7.801   6.599   1.902  0.0934 -0.1918  0.1687
  104MOL    C2912595   7.843   6.526   1.684  0.6333 -0.5538 -0.5077
  104MOL    H3012596   7.738   6.518   1.659 -0.0508  1.2966  1.6667
  104MOL    H3112597   7.864   6.433   1.738 -1.7114 -1.0464 -0.4219
  104MOL    C3212598   7.926   6.544   1.553  0.8322  0.4523  0.6781
  104MOL    F3312599   7.875   6.651   1.482 -0.7685 -0.2013  0.2972
  104MOL    F3412600   8.050   6.584   1.589 -0.2760 -0.4648  0.3205
  104MOL    C3512601   7.933   6.421   1.454 -0.2493  0.3711  0.6051
  104MOL    H3612602   7.967   6.334   1.509  0.9268  2.0831  2.6785
  104MOL    H3712603   8.016   6.448   1.387  0.1408 -1.8713  0.1596
  104MOL    C3812604   7.801   6.384   1.381 -0.3082  1.1055 -0.2059
  104MOL    F3912605   7.721   6.334   1.475 -0.0424 -0.7181 -0.4830
  104MOL    F4012606   7.746   6.494   1.333 -0.0497 -0.1058 -0.0599
  104MOL    C4112607   7.823   6.274   1.269  1.0525 -0.1497  0.4501
  104MOL    H4212608   7.886   6.197   1.314  1.5317  0.5870  1.0566
  104MOL    H4312609   7.880   6.314   1.185 -1.2198 -1.3302 -1.6967
  104MOL    C4412610   7.690   6.215   1.208  0.4623 -0.2626  0.5208
  104MOL    F4512611   7.635   6.117   1.285 -0.3907  0.3302 -0.4729
  104MOL    F4612612   7.604   6.320   1.189  0.6344 -0.2307 -0.1949
  104MOL    C4712613   7.710   6.149   1.072 -0.5385 -0.6070 -0.3483
  104MOL    H4812614   7.788   6.075   1.090  0.8244  0.7702 -0.5333
  104MOL    H4912615   7.757   6.218   1.002 -1.1890  1.5362  1.3108
  104MOL    C5012616   7.600   6.072   1.001 -1.0547  0.4495 -0.1324
  104MOL    F5112617   7.668   6.028   0.897  0.3470  0.0527  0.4021
  104MOL    F5212618   7.557   5.966   1.069  0.4179 -0.8373  0.1587
  104MOL    C5312619   7.486   6.161   0.951  0.6434  0.6357  0.3235
  104MOL    H5412620   7.434   6.202   1.037 -0.2874  0.6243 -0.2269
  104MOL    H5512621   7.409   6.090   0.920  0.5917  0.8904 -0.1283
  104MOL    C5612622   7.507   6.268   0.848 -0.7610  0.5667  0.9735
  104MOL    F5712623   7.578   6.369   0.895  0.1377  0.1604 -0.1252
  104MOL    F5812624   7.569   6.208   0.748 -0.8106  0.4074 -0.1772
  104MOL    C5912625   7.376   6.319   0.791 -0.0407 -0.2560  0.6982
  104MOL    H6012626   7.315   6.354   0.875  0.2815  0.9779  0.4397
  104MOL    H6112627   7.316   6.239   0.748  2.8541 -1.7706 -0.6306
  104MOL    C6212628   7.382   6.438   0.689 -0.1316 -0.3357  0.8737
  104MOL    F6312629   7.458   6.539   0.738  0.1682  0.4059 -0.2105
  104MOL    F6412630   7.443   6.400   0.578  0.2073 -0.0391  0.5078
  104MOL    C6512631   7.240   6.499   0.656 -0.8866 -0.4173  0.6892
  104MOL    H6612632   7.256   6.568   0.573 -0.5053  2.7557  3.3020
  104MOL    H6712633   7.215   6.559   0.743 -2.7854 -0.2856  0.0723
  104MOL    C6812634   7.126   6.400   0.620 -0.6252  0.0868 -0.1901
  104MOL    F6912635   7.095   6.328   0.725  0.0153  0.1462  0.2642
  104MOL    F7012636   7.019   6.481   0.590 -0.6733 -0.1871  0.2857
  104MOL    C7112637   7.137   6.311   0.498 -0.4147  0.3591  0.4541
  104MOL    H7212638   7.045   6.253   0.501 -1.6911  2.1885 -1.7384
  104MOL    H7312639   7.213   6.239   0.528  0.0683  0.4509 -0.5445
  104MOL    C7412640   7.155   6.360   0.350  0.2735  0.2877  0.4336
  104MOL    F7512641   7.053   6.435   0.329  0.3054 -0.2596  0.8782
  104MOL    F7612642   7.261   6.441   0.344 -0.2429  0.1001 -0.0355
  104MOL    C7712643   7.167   6.260   0.238  0.2257  0.3994  0.4181
  104MOL    H7812644   7.252   6.200   0.269 -0.7844 -1.1681  0.1898
  104MOL    H7912645   7.193   6.316   0.148  1.0183 -0.3182  0.1996
  104MOL    C8012646   7.043   6.165   0.210 -0.1612  0.3863 -1.0066
  104MOL    F8112647   7.077   6.092   0.106 -0.1354 -0.3706 -0.0181
  104MOL    F8212648   7.012   6.089   0.316 -0.4298  0.2304 -0.6086
  104MOL    C8312649   6.928   6.249   0.161  0.3582  0.1047  0.5615
  104MOL    H8412650   6.960   6.337   0.105  4.1791 -0.8558  1.1119
  104MOL    H8512651   6.887   6.302   0.247  0.6366 -2.0292  2.0295
  104MOL    C8612652   6.802   6.174   0.100 -0.5803 -0.0220  0.6808
  104MOL    F8712653   6.716   6.266   0.062  0.2115  0.2644 -0.0326
  104MOL    F8812654   6.835   6.109   8.343 -0.2974  0.1392 -0.4209
  104MOL    C8912655   6.729   6.078   0.196  0.9227  0.2994  0.1486
  104MOL    H9012656   6.800   5.998   0.217 -0.8248 -2.1689 -2.9093
  104MOL    H9112657   6.638   6.038   0.152  0.6822  0.1840  0.7446
  104MOL    C9212658   6.671   6.139   0.326  0.2218  0.4012  0.1800
  104MOL    F9312659   6.762   6.188   0.405 -0.8197 -0.0587  0.0002
  104MOL    F9412660   6.587   6.241   0.298  0.2166  0.0540  0.0505
  104MOL    C9512661   6.591   6.040   0.412  0.2458 -0.1193  0.1783
  104MOL    H9612662   6.510   5.996   0.355 -0.8918 -0.2086  1.8188
  104MOL    H9712663   6.542   6.101   0.489 -0.6551  0.7149 -1.0460
  104MOL    C9812664   6.659   5.919   0.465  0.3309 -0.0812 -0.2589
  104MOL    F9912665   6.558   5.842   0.510  0.0167 -0.3241  0.2623
  104MOL   F10012666   6.717   5.845   0.374 -0.1473 -0.3804  0.2491
  104MOL   C10112667   6.753   5.950   0.582 -0.6402 -0.4098  1.0020
  104MOL   H10212668   6.725   6.033   0.647  0.9016  1.1066 -0.2207
  104MOL   H10312669   6.842   5.985   0.528  1.3868 -1.9088  3.2499
  104MOL   C10412670   6.791   5.842   0.679 -0.0866  0.2905  0.7591
  104MOL   F10512671   6.846   5.733   0.619 -0.1926  0.2121 -0.1069
  104MOL   F10612672   6.897   5.887   0.750  0.2515 -0.4256  0.4962
  104MOL   C10712673   6.684   5.789   0.776 -0.1166 -0.4874 -0.0143
  104MOL   H10812674   6.732   5.725   0.850  0.6768 -0.6295 -0.6435
  104MOL   H10912675   6.621   5.715   0.727 -1.8546  2.4114 -2.2924
  104MOL   C11012676   6.603   5.891   0.850  0.2874  0.9350 -0.9287
  104MOL   F11112677   6.684   5.981   0.908  0.0052 -0.1307 -0.0952
  104MOL   F11212678   6.519   5.942   0.764  0.0936  0.7405  0.4466
  104MOL   C11312679   6.510   5.831   0.967 -0.7173 -0.7689  0.1583
  104MOL   H11412680   6.590   5.800   1.034  0.8534  2.0030 -0.3240
  104MOL   H11512681   6.446   5.751   0.928  1.0159 -1.5429 -1.1748
  104MOL   C11612682   6.415   5.933   1.038 -0.3022  0.0808  0.2856
  104MOL   F11712683   6.323   5.989   0.966  0.3367  0.6478 -0.1737
  104MOL   F11812684   6.340   5.873   1.136  0.3340 -0.5301  0.3393
  104MOL   C11912685   6.467   6.059   1.101  0.0925  0.1683 -0.0471
  104MOL   H12012686   6.397   6.133   1.140 -0.0557 -0.0281  0.0566
  104MOL   H12112687   6.526   6.118   1.031  0.9435  0.3852  0.8423
  104MOL   H12212688   6.537   6.033   1.180  3.1088 -0.6473 -2.8485
  105MOL     C112689   0.207   7.759   2.484  0.2510  0.4040 -0.3895
  105MOL     F212690   0.339   7.721   2.511  0.1808  0.1808  0.0982
  105MOL     F312691   0.153   7.808   2.596  0.8759  0.0674 -0.1185
  105MOL     C412692   0.129   7.649   2.411  0.0533 -0.9344 -0.4733
  105MOL     H512693   0.104   7.577   2.489 -0.6619  1.3429  1.4484
  105MOL     H612694   0.191   7.599   2.336 -2.5530 -1.6424 -2.2322
  105MOL     H712695   0.230   7.840   2.415 -0.7402  1.2464  0.2469
  105MOL     C812696   0.003   7.709   2.339 -0.3026 -0.4182 -0.1977
  105MOL     F912697   8.274   7.770   2.421  0.1043  0.2110  0.0135
  105MOL    F1012698   0.045   7.806   2.255  0.2748 -0.2344 -0.0523
  105MOL    C1112699   8.274   7.609   2.253 -0.4619  0.1879  0.4306
  105MOL    H1212700   8.337   7.570   2.173 -2.2465 -1.0826 -0.3813
  105MOL    H1312701   8.201   7.665   2.195 -2.3714 -1.8797  0.8086
  105MOL    C1412702   8.192   7.492   2.317 -0.0368 -0.3916  0.0173
  105MOL    F1512703   8.116   7.432   2.233  0.2132  0.5941 -0.1137
  105MOL    F1612704   8.270   7.398   2.371 -0.3273  0.4125  0.4133
  105MOL    C1712705   8.092   7.541   2.426 -0.5755 -0.3547 -0.1159
  105MOL    H1812706   8.016   7.603   2.379  0.9225  0.4514 -1.5096
  105MOL    H1912707   8.142   7.599   2.504 -1.3706 -1.8553  1.5412
  105MOL    C2012708   8.026   7.428   2.516  0.4867  0.3964  0.0605
  105MOL    F2112709   7.969   7.337   2.431  0.1804  0.1587 -0.5497
  105MOL    F2212710   8.117   7.359   2.574  0.0873 -0.2052  0.2664
  105MOL    C2312711   7.916   7.473   2.611 -0.1083 -0.3401  0.1319
  105MOL    H2412712   7.862   7.385   2.648  0.2285 -0.9297 -0.7609
  105MOL    H2512713   7.841   7.535   2.563 -1.1561 -0.5461  1.4584
  105MOL    C2612714   7.964   7.554   2.732  0.3065 -0.2427  0.2218
  105MOL    F2712715   8.048   7.471   2.802  0.1175 -0.0711  0.1188
  105MOL    F2812716   8.028   7.662   2.695 -0.0302  0.1635  0.2912
  105MOL    C2912717   7.854   7.608   2.820 -0.9061  0.8874 -0.2537
  105MOL    H3012718   7.810   7.514   2.853 -2.1565  1.6288  0.2269
  105MOL    H3112719   7.790   7.672   2.758 -0.0499  1.6544 -0.3690
  105MOL    C3212720   7.891   7.675   2.957  0.4612 -0.1670  0.1490
  105MOL    F3312721   7.780   7.721   3.017  0.6541  0.4448 -0.3671
  105MOL    F3412722   7.952   7.593   3.041  0.4477 -0.8648  0.1072
  105MOL    C3512723   7.977   7.806   2.940  0.1242  0.0245  0.1046
  105MOL    H3612724   7.927   7.866   2.864 -0.9149 -3.4860 -2.1315
  105MOL    H3712725   8.084   7.797   2.922  0.1617 -4.5676  2.0859
  105MOL    C3812726   7.981   7.896   3.069 -0.6871 -0.3545  0.4868
  105MOL    F3912727   7.862   7.960   3.086 -0.4771 -0.2575 -0.1960
  105MOL    F4012728   8.009   7.821   3.172 -0.8449 -0.4136  0.0762
  105MOL    C4112729   8.089   8.004   3.054 -0.2613  0.4278  0.1425
  105MOL    H4212730   8.074   8.058   2.960  0.6619  1.6031  0.6574
  105MOL    H4312731   8.185   7.954   3.040 -0.3376  0.1046  0.7585
  105MOL    C4412732   8.098   8.117   3.157 -0.2942 -0.2829 -0.7886
  105MOL    F4512733   8.181   8.208   3.113 -0.5922 -0.3167 -0.1947
  105MOL    F4612734   7.974   8.166   3.153  0.1331 -0.1331  0.3346
  105MOL    C4712735   8.130   8.075   3.303  0.7101 -0.3849 -0.1588
  105MOL    H4812736   8.056   7.998   3.325  0.6588 -0.3243 -0.1231
  105MOL    H4912737   8.113   8.154   3.377 -1.7654 -0.7722 -0.2765
  105MOL    C5012738   8.276   8.017   3.322  0.3498  0.3830  0.3917
  105MOL    F5112739   8.286   7.903   3.256 -0.5779 -0.3247  0.4734
  105MOL    F5212740   0.016   8.095   3.264 -0.5327  0.1619  0.4298
  105MOL    C5312741   8.309   7.991   3.466  0.0055  0.8978 -0.4920
  105MOL    H5412742   8.331   8.091   3.504  2.0056  0.3612 -0.1830
  105MOL    H5512743   0.055   7.942   3.481 -0.6841 -0.9329 -1.9165
  105MOL    C5612744   8.212   7.907   3.553  0.7064 -0.1410 -0.1375
  105MOL    F5712745   8.092   7.969   3.585  0.0808 -0.3955  0.4814
  105MOL    F5812746   8.192   7.795   3.484  0.1861  0.3520  0.7169
  105MOL    C5912747   8.284   7.862   3.688  0.8775 -0.3234  0.2821
  105MOL    H6012748   8.291   7.952   3.749  1.5632 -0.7044  0.7755
  105MOL    H6112749   0.033   7.825   3.660  1.3602  2.1299 -1.4444
  105MOL    C6212750   8.230   7.751   3.778  0.3912 -0.4816 -0.7623
  105MOL    F6312751   8.259   7.636   3.717  0.2923  0.1752  0.6059
  105MOL    F6412752   8.307   7.761   3.886  0.2856  0.4730  0.5745
  105MOL    C6512753   8.079   7.757   3.814  0.3598  0.0847 -0.1975
  105MOL    H6612754   8.027   7.727   3.723 -5.0067 -1.7650  3.2092
  105MOL    H6712755   8.039   7.857   3.829 -0.2353 -0.3535  1.1846
  105MOL    C6812756   8.040   7.675   3.944 -0.2657 -0.1553  0.0096
  105MOL    F6912757   8.101   7.744   4.035 -0.7838  0.2507  0.3802
  105MOL    F7012758   7.910   7.697   3.952  0.2039  0.0952 -0.1715
  105MOL    C7112759   8.085   7.532   3.952  0.0304 -1.0557 -0.3128
  105MOL    H7212760   8.086   7.520   4.060 -0.1613  0.7751 -0.0845
  105MOL    H7312761   8.189   7.530   3.920 -0.0303 -1.3830 -0.4877
  105MOL    C7412762   7.992   7.443   3.872  0.0722 -0.6219  0.1428
  105MOL    F7512763   7.875   7.435   3.930  0.5019 -0.5191  0.3976
  105MOL    F7612764   7.964   7.491   3.754  0.2672 -0.0337  0.1961
  105MOL    C7712765   8.049   7.303   3.851 -0.3219 -0.0800  0.5522
  105MOL    H7812766   8.102   7.285   3.944 -1.7045  3.9508  2.2594
  105MOL    H7912767   8.121   7.311   3.771 -2.6710  1.3230 -1.5130
  105MOL    C8012768   7.944   7.189   3.827 -0.4139  0.0819  0.5054
  105MOL    F8112769   7.859   7.188   3.925 -0.2148  0.1673  0.0395
  105MOL    F8212770   7.872   7.211   3.710 -0.2386  0.0039  0.0346
  105MOL    C8312771   7.994   7.043   3.809  0.0855  0.1340 -0.7399
  105MOL    H8412772   8.049   7.048   3.715 -1.4206 -0.6903 -1.6952
  105MOL    H8512773   7.907   6.978   3.799  0.2904 -0.0208 -1.5796
  105MOL    C8612774   8.087   7.003   3.928 -0.5230  0.1649 -0.0199
  105MOL    F8712775   8.208   7.051   3.899  0.1380 -0.3802  0.1517
  105MOL    F8812776   8.041   7.033   4.049 -0.4919  0.1639 -0.8395
  105MOL    C8912777   8.093   6.855   3.922  0.7519  0.4019  0.9838
  105MOL    H9012778   8.131   6.821   3.826  2.6429  0.5725  1.6537
  105MOL    H9112779   7.992   6.816   3.935  1.8217 -2.3719  1.2874
  105MOL    C9212780   8.178   6.783   4.028 -0.5386 -0.3309 -0.6561
  105MOL    F9312781   8.305   6.812   4.022  0.0613  0.1142 -0.5455
  105MOL    F9412782   8.143   6.819   4.153  0.0761 -0.6349 -0.6068
  105MOL    C9512783   8.182   6.628   4.005  0.1067  0.1861  0.0343
  105MOL    H9612784   8.240   6.600   3.917  1.0170  0.6002  0.4876
  105MOL    H9712785   8.080   6.595   3.984 -0.8552  3.3406 -0.4221
  105MOL    C9812786   8.250   6.535   4.121 -0.0719 -0.1613 -0.6441
  105MOL    F9912787   0.026   6.579   4.144  0.0669 -0.0708  0.3851
  105MOL   F10012788   8.181   6.532   4.237  0.0909 -0.5723  0.0091
  105MOL   C10112789   8.260   6.392   4.058  0.1216 -0.2200 -0.0955
  105MOL   H10212790   8.323   6.409   3.970  2.0516  1.8863  1.6016
  105MOL   H10312791   8.169   6.353   4.014 -1.4045  2.8724  0.1614
  105MOL   C10412792   8.322   6.277   4.144  0.5285  0.4563  0.1331
  105MOL   F10512793   0.094   6.314   4.184 -0.2753  0.0071 -0.2774
  105MOL   F10612794   8.250   6.255   4.253  0.1558 -0.1271  0.8208
  105MOL   C10712795   8.338   6.138   4.082 -0.6173 -0.2719  0.8647
  105MOL   H10812796   8.239   6.094   4.071 -0.7886  0.5048 -0.9376
  105MOL   H10912797   0.043   6.075   4.153 -1.7776 -1.5041  0.6888
  105MOL   C11012798   0.063   6.131   3.945 -0.1108 -0.0932  0.7278
  105MOL   F11112799   8.326   6.190   3.861 -0.0678  0.5925  0.2061
  105MOL   F11212800   0.170   6.206   3.933 -0.4277  0.4300  0.5659
  105MOL   C11312801   0.094   5.987   3.894  0.0511  0.1240  0.3637
  105MOL   H11412802   0.090   5.978   3.786  0.0377 -2.5005  0.5391
  105MOL   H11512803   0.005   5.928   3.916  0.1571 -0.8181 -1.6697
  105MOL   C11612804   0.225   5.922   3.949  1.0357  0.4352 -0.1692
  105MOL   F11712805   0.219   5.920   4.088  0.0956  0.2550  0.1937
  105MOL   F11812806   0.228   5.793   3.917 -0.3065 -0.2658  0.2914
  105MOL   C11912807   0.350   5.980   3.885 -0.0404 -0.1830 -0.6262
  105MOL   H12012808   0.377   6.079   3.923 -1.2439 -0.5672  1.3466
  105MOL   H12112809   0.362   5.981   3.777 -3.2522  1.3288 -1.0469
  105MOL   H12212810   0.428   5.919   3.930 -3.4038 -4.5103 -0.4149
  106MOL     C112811   1.437   4.140   0.776  0.6746  0.7643  0.0789
  106MOL     F212812   1.422   4.123   0.644  0.0243 -0.1157  0.4648
  106MOL     F312813   1.378   4.036   0.833 -0.3452  0.7694 -0.1586
  106MOL     C412814   1.380   4.276   0.828  0.1957 -0.8144  0.7003
  106MOL     H512815   1.381   4.266   0.937  1.7040 -1.7447  0.6118
  106MOL     H612816   1.275   4.284   0.798  0.5493  1.1947 -0.0806
  106MOL     H712817   1.544   4.126   0.782  0.2079 -2.8563  0.9412
  106MOL     C812818   1.450   4.405   0.781 -0.5005  0.4771 -0.2585
  106MOL     F912819   1.580   4.390   0.814  0.2021 -0.0617 -0.6756
  106MOL    F1012820   1.437   4.411   0.645 -0.2600  0.1343  0.0101
  106MOL    C1112821   1.386   4.532   0.840 -0.4778  0.2087  0.2828
  106MOL    H1212822   1.389   4.518   0.948  0.5895 -0.0961  0.2142
  106MOL    H1312823   1.280   4.525   0.813 -0.1634 -0.9597 -0.6527
  106MOL    C1412824   1.454   4.660   0.806 -0.4401 -0.1317  0.0070
  106MOL    F1512825   1.393   4.759   0.880  0.7447  0.2530  0.6634
  106MOL    F1612826   1.582   4.651   0.841  0.1202  0.4497  0.4712
  106MOL    C1712827   1.456   4.713   0.657 -0.5125  0.6846 -0.1391
  106MOL    H1812828   1.355   4.716   0.616 -1.1394  2.2023  1.4721
  106MOL    H1912829   1.511   4.651   0.586 -0.5490  0.9055 -0.3599
  106MOL    C2012830   1.513   4.855   0.627  0.3794  0.2255  0.4123
  106MOL    F2112831   1.529   4.854   0.490  0.0969 -0.1465  0.3987
  106MOL    F2212832   1.417   4.943   0.658 -0.4625 -0.1121  0.3964
  106MOL    C2312833   1.649   4.882   0.697  0.0477  0.3230 -0.1458
  106MOL    H2412834   1.708   4.795   0.670 -0.2029 -0.2597  1.1389
  106MOL    H2512835   1.640   4.886   0.805 -1.0666  1.1191 -0.2569
  106MOL    C2612836   1.721   5.006   0.643 -0.3481 -0.7493 -0.2231
  106MOL    F2712837   1.751   4.976   0.519 -0.4313  0.4531  0.3161
  106MOL    F2812838   1.635   5.109   0.635 -0.2698 -0.1064 -0.3184
  106MOL    C2912839   1.839   5.060   0.714 -0.3241 -0.0309  0.3809
  106MOL    H3012840   1.799   5.120   0.796 -0.1718  2.7371 -1.4948
  106MOL    H3112841   1.888   5.128   0.644  2.7329 -3.0236 -0.4618
  106MOL    C3212842   1.943   4.963   0.778 -0.1041  0.0325  0.1110
  106MOL    F3312843   1.881   4.887   0.869  0.2419 -0.1592  0.0879
  106MOL    F3412844   1.972   4.884   0.678  0.4763 -0.7333 -0.0702
  106MOL    C3512845   2.076   5.032   0.830 -0.1730  0.4052  0.2134
  106MOL    H3612846   2.130   5.067   0.742  0.8573  0.3559  0.8219
  106MOL    H3712847   2.140   4.948   0.857 -0.1699 -0.1573 -1.4753
  106MOL    C3812848   2.062   5.127   0.948 -0.6429  0.1288 -0.0086
  106MOL    F3912849   1.964   5.215   0.917  0.2133  0.1527  0.3745
  106MOL    F4012850   2.036   5.053   1.051 -0.7086  0.1353 -0.8241
  106MOL    C4112851   2.186   5.214   0.974  0.1635  0.2980  0.1985
  106MOL    H4212852   2.169   5.264   1.069 -0.9439 -1.6141  1.0292
  106MOL    H4312853   2.199   5.291   0.898  0.5965  0.4372  0.4132
  106MOL    C4412854   2.320   5.137   0.991  0.4229  0.2215 -0.2505
  106MOL    F4512855   2.315   5.031   1.071  0.4375 -0.9396  0.6082
  106MOL    F4612856   2.362   5.101   0.871  0.0331  0.1868  0.6916
  106MOL    C4712857   2.434   5.214   1.057  0.1415  0.3109 -0.7708
  106MOL    H4812858   2.503   5.141   1.100  0.2925  2.5523  2.9883
  106MOL    H4912859   2.398   5.265   1.146  1.4415  3.1376 -1.7934
  106MOL    C5012860   2.513   5.322   0.974  0.1866 -0.0956 -1.0387
  106MOL    F5112861   2.432   5.405   0.914  0.0174  0.2773  0.2140
  106MOL    F5212862   2.574   5.386   1.073  0.3414 -0.2073  0.1934
  106MOL    C5312863   2.617   5.263   0.879  0.0557 -0.5302 -0.0623
  106MOL    H5412864   2.557   5.222   0.797  0.3595  0.0334 -0.5722
  106MOL    H5512865   2.664   5.179   0.930 -2.3354 -1.6315  0.4328
  106MOL    C5612866   2.728   5.369   0.840  0.0543 -0.0777 -0.5585
  106MOL    F5712867   2.681   5.477   0.787 -0.3249 -0.6684  0.3456
  106MOL    F5812868   2.786   5.400   0.956 -0.4362  0.6908  0.0025
  106MOL    C5912869   2.840   5.300   0.762  0.0403  0.0085  0.1279
  106MOL    H6012870   2.870   5.210   0.815 -0.1751  0.0565  0.3294
  106MOL    H6112871   2.922   5.372   0.764 -0.5472  0.7093 -0.7285
  106MOL    C6212872   2.817   5.268   0.616  0.0565 -0.2123 -0.1234
  106MOL    F6312873   2.707   5.187   0.598  0.2835  0.4871  0.0141
  106MOL    F6412874   2.801   5.385   0.545  0.2763 -0.2844  0.0766
  106MOL    C6512875   2.928   5.175   0.566  0.6334  0.0717  0.2571
  106MOL    H6612876   2.932   5.084   0.625 -0.5280  0.7024  1.3349
  106MOL    H6712877   3.023   5.225   0.584  0.0534  0.5591  2.0501
  106MOL    C6812878   2.931   5.141   0.416 -0.5109 -0.3532  0.1325
  106MOL    F6912879   3.025   5.045   0.403 -0.2132  0.0617 -0.1404
  106MOL    F7012880   2.816   5.082   0.393  0.1120  0.7361  0.2121
  106MOL    C7112881   2.946   5.260   0.310 -0.4445 -0.5989 -0.5383
  106MOL    H7212882   2.863   5.328   0.327  1.4480  1.5578  0.4504
  106MOL    H7312883   2.944   5.214   0.211  1.1578 -0.3500 -0.7034
  106MOL    C7412884   3.082   5.337   0.316  0.6387 -0.2252 -0.8054
  106MOL    F7512885   3.084   5.436   0.226  0.0070 -0.2116  0.2046
  106MOL    F7612886   3.102   5.393   0.431  0.0933 -0.1987  0.4209
  106MOL    C7712887   3.201   5.247   0.284 -1.1041  0.1859  0.0616
  106MOL    H7812888   3.172   5.203   0.189 -1.6308  0.5471  0.0536
  106MOL    H7912889   3.209   5.165   0.356  3.0237  1.3159  1.0394
  106MOL    C8012890   3.352   5.305   0.278  1.2551  0.1877 -0.8226
  106MOL    F8112891   3.438   5.207   0.261  0.0469 -0.0617  0.2836
  106MOL    F8212892   3.345   5.378   0.164  0.4354  0.1455  0.0203
  106MOL    C8312893   3.378   5.395   0.402  0.4057 -0.1815  0.6184
  106MOL    H8412894   3.361   5.335   0.491 -0.3871 -0.9169 -0.0168
  106MOL    H8512895   3.306   5.477   0.398  0.7379  0.0242 -2.3217
  106MOL    C8612896   3.527   5.443   0.416 -0.5521  0.6801 -0.1044
  106MOL    F8712897   3.605   5.338   0.425  0.1014  0.1691 -0.1384
  106MOL    F8812898   3.562   5.513   0.307 -0.1257 -0.2270 -0.1234
  106MOL    C8912899   3.572   5.521   0.539 -0.2849  0.0029  0.1714
  106MOL    H9012900   3.668   5.565   0.513 -1.2399  1.1147 -1.5923
  106MOL    H9112901   3.573   5.456   0.626  0.2818 -2.1256 -1.3896
  106MOL    C9212902   3.492   5.642   0.582  0.4511  0.4198 -0.8034
  106MOL    F9312903   3.504   5.735   0.488 -0.1207 -0.3341 -0.2510
  106MOL    F9412904   3.365   5.615   0.596  0.8009  0.2307  0.0055
  106MOL    C9512905   3.544   5.714   0.711  0.2546 -0.0098 -0.6019
  106MOL    H9612906   3.643   5.759   0.702  0.1072  1.8899  5.2920
  106MOL    H9712907   3.537   5.635   0.785  2.3090  2.6038  2.5112
  106MOL    C9812908   3.454   5.830   0.772  0.4262  0.6006 -0.0647
  106MOL    F9912909   3.468   5.932   0.690 -0.2212  0.0793 -0.6294
  106MOL   F10012910   3.323   5.791   0.768 -0.1745 -0.5303 -0.2028
  106MOL   C10112911   3.486   5.875   0.921 -0.6327  0.5131  1.0491
  106MOL   H10212912   3.586   5.917   0.931 -0.4363  0.2349  0.3137
  106MOL   H10312913   3.495   5.778   0.971 -1.1080 -0.6255 -1.0009
  106MOL   C10412914   3.383   5.961   0.993  0.0576  0.3980  0.3021
  106MOL   F10512915   3.270   5.903   1.005  0.3176  0.0882  0.1363
  106MOL   F10612916   3.432   5.976   1.113 -0.4589 -0.8379  0.4950
  106MOL   C10712917   3.366   6.096   0.926 -0.6910 -0.0139 -0.0579
  106MOL   H10812918   3.319   6.072   0.830 -1.2393 -2.1173  0.6957
  106MOL   H10912919   3.466   6.137   0.912 -0.6683  0.2875  0.9418
  106MOL   C11012920   3.279   6.198   0.996 -0.2006  0.5089 -0.5504
  106MOL   F11112921   3.276   6.309   0.920  0.4552  0.5043 -0.0683
  106MOL   F11212922   3.153   6.150   0.993 -1.0537  0.2380  0.3412
  106MOL   C11312923   3.320   6.253   1.136 -0.3792  0.3061  0.1782
  106MOL   H11412924   3.333   6.174   1.210  1.0521  2.1284  1.9189
  106MOL   H11512925   3.251   6.317   1.192 -0.7226 -1.8789  2.3388
  106MOL   C11612926   3.454   6.327   1.128  0.4123 -0.1201  0.0395
  106MOL   F11712927   3.553   6.240   1.143  0.1143  0.9095  0.0733
  106MOL   F11812928   3.476   6.402   1.023  0.1007  0.2055  0.2277
  106MOL   C11912929   3.461   6.424   1.243 -0.0005  0.2249 -0.4400
  106MOL   H12012930   3.563   6.461   1.249 -0.2743  1.1833 -1.4942
  106MOL   H12112931   3.443   6.381   1.342 -1.2843 -1.3820 -1.3456
  106MOL   H12212932   3.395   6.510   1.230  1.4810  1.8768  2.4705
  107MOL     C112933   7.706   3.943   0.804 -0.1003  0.5962  0.6605
  107MOL     F212934   7.688   3.898   0.685  0.1417  0.0982  0.3832
  107MOL     F312935   7.708   3.841   0.888  0.5140 -0.3159  0.1171
  107MOL     C412936   7.595   4.046   0.839  0.1854 -0.0512 -0.4466
  107MOL     H512937   7.509   3.989   0.875 -0.1822 -0.0201 -1.2725
  107MOL     H612938   7.557   4.092   0.747  0.5257  1.0147 -0.0642
  107MOL     H712939   7.802   3.994   0.791 -0.1080  0.6790  0.9252
  107MOL     C812940   7.631   4.149   0.951 -0.3398  0.0501  0.1123
  107MOL     F912941   7.697   4.088   1.050 -0.1626 -0.2334  0.0624
  107MOL    F1012942   7.717   4.235   0.898 -0.4390  0.1231 -0.0507
  107MOL    C1112943   7.509   4.236   1.004 -0.5571  0.9774  0.4660
  107MOL    H1212944   7.542   4.286   1.095 -0.2631  2.0768 -0.2360
  107MOL    H1312945   7.426   4.170   1.030 -0.1956  0.9051  1.4532
  107MOL    C1412946   7.454   4.351   0.919 -0.2278 -0.7572 -0.9439
  107MOL    F1512947   7.550   4.441   0.905 -0.0675 -0.0063 -0.2240
  107MOL    F1612948   7.416   4.294   0.802  0.0704 -0.5095  0.1611
  107MOL    C1712949   7.339   4.420   0.996  0.3581 -0.7327 -0.1332
  107MOL    H1812950   7.375   4.476   1.082 -0.3171 -0.5016  0.0010
  107MOL    H1912951   7.268   4.349   1.038  0.0426 -1.2353 -1.4721
  107MOL    C2012952   7.260   4.525   0.916 -0.0199  0.5815  0.0828
  107MOL    F2112953   7.330   4.630   0.878 -0.1989 -0.2973  0.1974
  107MOL    F2212954   7.221   4.460   0.808 -0.1849 -0.7175  0.1293
  107MOL    C2312955   7.124   4.562   0.991 -0.2935 -0.6758  0.8761
  107MOL    H2412956   7.066   4.470   1.003  0.3432 -1.2025 -0.0486
  107MOL    H2512957   7.064   4.624   0.924 -2.0276 -1.2396  1.8735
  107MOL    C2612958   7.138   4.623   1.137  0.0774 -0.4103 -0.3887
  107MOL    F2712959   7.014   4.659   1.182  0.1044  0.5178  0.4728
  107MOL    F2812960   7.189   4.539   1.223  0.6261  1.0913  0.1014
  107MOL    C2912961   7.220   4.753   1.140  0.1036 -0.2476  0.4612
  107MOL    H3012962   7.175   4.825   1.072  1.2658 -0.6016 -0.6898
  107MOL    H3112963   7.320   4.722   1.109 -0.6146 -0.9974 -1.1489
  107MOL    C3212964   7.242   4.815   1.277 -0.6065  0.0046  0.0644
  107MOL    F3312965   7.117   4.843   1.322  0.5335  0.0633 -0.0381
  107MOL    F3412966   7.296   4.728   1.361  0.5310 -0.0732 -0.4212
  107MOL    C3512967   7.340   4.932   1.273 -0.5489 -0.8167 -0.1706
  107MOL    H3612968   7.434   4.881   1.252  1.3020  1.4078  2.3557
  107MOL    H3712969   7.338   4.972   1.374 -0.3941  3.4500 -1.7544
  107MOL    C3812970   7.323   5.040   1.169  0.0363 -0.8142 -0.9745
  107MOL    F3912971   7.349   4.994   1.043  0.2448  0.6315 -0.7777
  107MOL    F4012972   7.201   5.082   1.171  0.0151 -0.2889 -0.0222
  107MOL    C4112973   7.430   5.156   1.182 -0.2929 -0.3284 -0.1572
  107MOL    H4212974   7.529   5.115   1.161  0.1528  0.4507  0.3633
  107MOL    H4312975   7.447   5.188   1.285 -1.8269 -1.8103  0.5613
  107MOL    C4412976   7.413   5.276   1.089  0.1097 -1.1102  0.4172
  107MOL    F4512977   7.414   5.226   0.968 -0.1533 -0.5737 -0.3894
  107MOL    F4612978   7.300   5.340   1.119  0.1754  0.5144 -0.2058
  107MOL    C4712979   7.535   5.360   1.103 -0.1037  0.1532 -0.2341
  107MOL    H4812980   7.621   5.307   1.063 -0.4473 -0.6786  0.1171
  107MOL    H4912981   7.531   5.379   1.210  2.3504 -0.4862  0.0054
  107MOL    C5012982   7.527   5.499   1.038  0.0240  0.2283 -0.2913
  107MOL    F5112983   7.508   5.479   0.909 -0.0058  0.1718 -0.1622
  107MOL    F5212984   7.426   5.574   1.093  0.0793  0.4269 -0.5979
  107MOL    C5312985   7.660   5.587   1.067  0.0345  0.8425 -0.3266
  107MOL    H5412986   7.634   5.687   1.033 -0.0078  1.1220  0.5066
  107MOL    H5512987   7.752   5.561   1.013  0.8202  1.7939  0.5334
  107MOL    C5612988   7.706   5.605   1.209  0.1343  0.1206 -0.1864
  107MOL    F5712989   7.593   5.625   1.282  0.4073  0.7664 -0.4648
  107MOL    F5812990   7.779   5.495   1.237  0.6791  0.4242  0.0368
  107MOL    C5912991   7.801   5.726   1.222  0.4259  0.8260 -0.0396
  107MOL    H6012992   7.749   5.820   1.200 -0.1148  0.3525 -0.7830
  107MOL    H6112993   7.879   5.726   1.146  0.0585  0.2642 -0.4131
  107MOL    C6212994   7.880   5.735   1.358 -0.1943 -0.4704  0.1716
  107MOL    F6312995   7.975   5.636   1.374 -0.0335 -0.4910  0.3931
  107MOL    F6412996   7.938   5.854   1.350 -0.4739 -0.2025  0.2792
  107MOL    C6512997   7.790   5.735   1.481  0.5607  0.5755 -0.4270
  107MOL    H6612998   7.751   5.633   1.485  0.6696  0.5268 -0.5895
  107MOL    H6712999   7.703   5.799   1.465  1.2643  1.7336  0.2667
  107MOL    C6813000   7.855   5.778   1.614 -0.4625 -0.2634 -0.5283
  107MOL    F6913001   7.946   5.687   1.638  0.4405  0.4684  0.2798
  107MOL    F7013002   7.914   5.897   1.607 -0.0889  0.1873  0.4845
  107MOL    C7113003   7.762   5.781   1.735 -0.0677 -0.6192  0.0206
  107MOL    H7213004   7.699   5.692   1.742  1.6251 -1.9668 -1.3727
  107MOL    H7313005   7.697   5.868   1.728  2.2987  1.0625 -1.6378
  107MOL    C7413006   7.828   5.793   1.878 -0.2162 -0.0358  0.7277
  107MOL    F7513007   7.722   5.796   1.962  0.6071  0.1914 -0.2362
  107MOL    F7613008   7.895   5.675   1.897  0.3816  0.3160  0.3291
  107MOL    C7713009   7.927   5.911   1.909 -0.3003 -0.0761  0.4433
  107MOL    H7813010   7.864   5.998   1.927 -1.1139 -0.2733 -1.3696
  107MOL    H7913011   7.986   5.948   1.826  1.6099 -1.4327  1.1506
  107MOL    C8013012   8.032   5.897   2.012 -0.1310  0.0775  0.5198
  107MOL    F8113013   8.095   5.795   1.963  0.3407  0.1713 -0.0553
  107MOL    F8213014   8.106   6.007   2.025 -0.3393 -0.0909 -0.0071
  107MOL    C8313015   7.983   5.864   2.154  0.0846  0.0594 -0.1210
  107MOL    H8413016   7.906   5.786   2.147  0.2062 -0.2965  2.1346
  107MOL    H8513017   7.931   5.949   2.199  0.9602  1.2171 -1.2641
  107MOL    C8613018   8.085   5.815   2.256 -0.7324  0.6411  0.2050
  107MOL    F8713019   8.155   5.717   2.199  0.0876 -0.5840 -0.2886
  107MOL    F8813020   8.171   5.909   2.297  0.0943  0.3487 -0.1191
  107MOL    C8913021   8.018   5.759   2.383 -0.0243 -0.0830 -0.1766
  107MOL    H9013022   7.960   5.674   2.345  0.3228 -0.1819 -0.4834
  107MOL    H9113023   7.939   5.827   2.416 -0.3196 -1.0140  1.0929
  107MOL    C9213024   8.108   5.733   2.509  0.4067  0.6774 -0.0144
  107MOL    F9313025   8.157   5.846   2.555  0.1686 -0.2787 -0.2156
  107MOL    F9413026   8.034   5.692   2.607 -0.1717  0.1816 -0.5944
  107MOL    C9513027   8.224   5.636   2.483  0.0649  0.0949 -0.3844
  107MOL    H9613028   8.286   5.648   2.571  1.2207 -0.7744 -1.0704
  107MOL    H9713029   8.289   5.683   2.408  1.8982 -0.4860  0.8166
  107MOL    C9813030   8.192   5.483   2.445 -0.0658  0.4980  0.3057
  107MOL    F9913031   8.126   5.475   2.330  0.0644  0.0797  0.1418
  107MOL   F10013032   8.310   5.421   2.436  0.3631 -0.0761 -0.5106
  107MOL   C10113033   8.114   5.405   2.549 -0.0442  0.6015  0.1001
  107MOL   H10213034   8.014   5.447   2.552 -0.5696 -0.5388 -1.0032
  107MOL   H10313035   8.159   5.416   2.648 -0.1760 -0.8120  0.3188
  107MOL   C10413036   8.108   5.254   2.516  0.5898  0.0972  0.7889
  107MOL   F10513037   8.060   5.229   2.392  0.0599  0.2791 -0.1762
  107MOL   F10613038   8.222   5.193   2.527  0.0385  0.7764 -0.0353
  107MOL   C10713039   8.026   5.185   2.624 -0.5677  0.4926 -0.0650
  107MOL   H10813040   8.068   5.198   2.723  0.3793 -0.1943 -0.3663
  107MOL   H10913041   8.039   5.083   2.589 -0.1038  0.7319 -0.6096
  107MOL   C11013042   7.867   5.221   2.631 -1.3975  0.5403  0.0980
  107MOL   F11113043   7.861   5.337   2.699 -0.0845  0.2245 -0.2406
  107MOL   F11213044   7.813   5.236   2.514  0.5318 -0.4936  0.2104
  107MOL   C11313045   7.790   5.118   2.712 -0.0858  0.5755 -0.5301
  107MOL   H11413046   7.790   5.023   2.659 -1.5919  0.0987  0.3079
  107MOL   H11513047   7.690   5.158   2.730  0.7639  2.6459 -0.1885
  107MOL   C11613048   7.823   5.088   2.855  0.0617  0.0105 -0.6592
  107MOL   F11713049   7.726   4.998   2.898 -0.0908 -0.2293 -0.0605
  107MOL   F11813050   7.938   5.018   2.862  0.0700 -0.0146  0.1493
  107MOL   C11913051   7.830   5.210   2.955  0.0642  0.1006  0.3823
  107MOL   H12013052   7.733   5.258   2.962  0.8513  1.4796  2.4775
  107MOL   H12113053   7.912   5.275   2.926  0.3326 -1.0066 -1.4102
  107MOL   H12213054   7.852   5.177   3.057 -0.9732  0.8496  0.8643
  108MOL     C113055   3.324   7.673   1.299  0.2695  0.5577  0.7001
  108MOL     F213056   3.422   7.766   1.302  0.1961  0.5265 -0.4762
  108MOL     F313057   3.309   7.625   1.420 -0.0708  0.5231  0.2688
  108MOL     C413058   3.368   7.555   1.214 -0.3502 -0.4494 -0.0811
  108MOL     H513059   3.364   7.583   1.108 -0.2645 -3.7892 -1.0536
  108MOL     H613060   3.285   7.484   1.213 -0.6258 -0.1252 -0.5692
  108MOL     H713061   3.231   7.725   1.276 -1.3103 -2.8383 -1.0311
  108MOL     C813062   3.506   7.494   1.239 -0.3125 -0.1821 -0.2688
  108MOL     F913063   3.600   7.565   1.180 -0.0647  0.0784 -0.0017
  108MOL    F1013064   3.528   7.497   1.370  0.3778 -0.0789 -0.2224
  108MOL    C1113065   3.522   7.346   1.204 -0.4887 -0.2073  0.0141
  108MOL    H1213066   3.472   7.283   1.277 -0.8568 -0.0642 -0.1080
  108MOL    H1313067   3.630   7.339   1.216 -0.3567  0.8935 -0.4503
  108MOL    C1413068   3.481   7.308   1.060 -0.3212 -0.3126  0.1894
  108MOL    F1513069   3.349   7.313   1.057 -0.6491 -0.5306 -0.3315
  108MOL    F1613070   3.522   7.382   0.962  0.4095  0.6543 -0.0411
  108MOL    C1713071   3.540   7.167   1.018  0.1681 -0.7902 -0.0993
  108MOL    H1813072   3.647   7.177   1.035  0.0642 -0.6496  0.4631
  108MOL    H1913073   3.534   7.140   0.912  0.2097 -0.1695 -0.2602
  108MOL    C2013074   3.509   7.047   1.089  0.3757  0.1073 -0.0013
  108MOL    F2113075   3.573   6.951   1.029  0.5966  0.5818 -0.3434
  108MOL    F2213076   3.554   7.048   1.212 -0.0548  0.5638 -0.1511
  108MOL    C2313077   3.364   7.005   1.090 -0.4498  0.1804 -0.7101
  108MOL    H2413078   3.295   7.027   1.008 -0.9929 -0.4227 -0.4143
  108MOL    H2513079   3.314   7.078   1.153 -0.7751 -0.9894  0.4063
  108MOL    C2613080   3.328   6.871   1.147 -0.2830  0.0579 -0.3439
  108MOL    F2713081   3.373   6.769   1.073 -0.4742 -0.3843 -0.2067
  108MOL    F2813082   3.397   6.865   1.258  0.1888 -0.1443 -0.3765
  108MOL    C2913083   3.178   6.862   1.180  0.0157 -0.0757 -0.1985
  108MOL    H3013084   3.121   6.848   1.088 -0.8660 -2.2296  0.6282
  108MOL    H3113085   3.151   6.957   1.225 -0.7587 -0.1874 -0.4217
  108MOL    C3213086   3.144   6.738   1.267 -0.8807 -0.6659 -0.7943
  108MOL    F3313087   3.016   6.743   1.285  1.0709  0.1743  0.1758
  108MOL    F3413088   3.173   6.632   1.192 -0.0053 -0.6404 -0.1451
  108MOL    C3513089   3.211   6.737   1.409  0.3962  0.9085 -0.4867
  108MOL    H3613090   3.202   6.838   1.449  0.7675  0.1426  1.5791
  108MOL    H3713091   3.318   6.718   1.414  0.1324 -0.4669  0.2528
  108MOL    C3813092   3.165   6.636   1.516  0.4111  0.3846 -0.4638
  108MOL    F3913093   3.193   6.511   1.484 -0.3455  0.2307  0.0656
  108MOL    F4013094   3.234   6.661   1.628  0.8381 -0.3758 -0.1046
  108MOL    C4113095   3.018   6.630   1.558 -0.1127  0.3048  0.3210
  108MOL    H4213096   3.004   6.540   1.620 -0.5067 -0.9915 -1.6094
  108MOL    H4313097   2.951   6.614   1.473  2.2429 -0.7628 -1.3850
  108MOL    C4413098   2.973   6.743   1.656  0.4817  0.4072 -0.7793
  108MOL    F4513099   3.026   6.737   1.775 -0.0451  0.6642  0.1997
  108MOL    F4613100   3.010   6.857   1.602  1.0527  0.0725 -0.0575
  108MOL    C4713101   2.820   6.765   1.662  0.0546  0.1639 -0.2077
  108MOL    H4813102   2.792   6.803   1.565  1.1115  0.7090 -0.3076
  108MOL    H4913103   2.800   6.850   1.727 -1.0282 -1.3005  1.4163
  108MOL    C5013104   2.744   6.645   1.709  0.3779  0.2820 -0.9222
  108MOL    F5113105   2.612   6.680   1.700  0.0666 -0.0604  0.1417
  108MOL    F5213106   2.757   6.529   1.633  0.3217 -0.8334  0.0408
  108MOL    C5313107   2.762   6.615   1.858  0.3060  0.4414  0.2719
  108MOL    H5413108   2.750   6.706   1.917  1.3727  0.6823  0.1237
  108MOL    H5513109   2.870   6.605   1.863  0.4519  1.4348 -0.7346
  108MOL    C5613110   2.680   6.499   1.918 -1.1462  0.2020  0.1795
  108MOL    F5713111   2.718   6.387   1.859  0.1752  0.2972  0.1545
  108MOL    F5813112   2.733   6.491   2.043 -0.1542 -0.1956  0.5438
  108MOL    C5913113   2.526   6.525   1.918  0.4716  0.1989 -0.0325
  108MOL    H6013114   2.493   6.492   1.820 -0.8469 -1.3870  0.9190
  108MOL    H6113115   2.498   6.630   1.926 -1.1752 -0.2684  0.4874
  108MOL    C6213116   2.438   6.449   2.021 -0.1234 -0.5927 -0.3459
  108MOL    F6313117   2.307   6.474   1.998 -0.1934  0.0804  0.3820
  108MOL    F6413118   2.481   6.322   2.020  0.0868  0.1451 -0.3103
  108MOL    C6513119   2.449   6.493   2.167  0.3291 -0.7359 -0.0444
  108MOL    H6613120   2.416   6.597   2.176 -1.2147 -0.9934 -2.3160
  108MOL    H6713121   2.555   6.494   2.191  0.4637 -1.8885 -0.5954
  108MOL    C6813122   2.369   6.410   2.266 -0.0831  0.1103  0.2515
  108MOL    F6913123   2.237   6.409   2.235  0.0568 -0.0557 -0.1004
  108MOL    F7013124   2.403   6.279   2.274  0.5551 -0.8957  0.2800
  108MOL    C7113125   2.393   6.465   2.411  0.3921  0.2523  0.6049
  108MOL    H7213126   2.495   6.450   2.445 -0.5410 -0.0570  3.4396
  108MOL    H7313127   2.342   6.391   2.473  2.6146 -1.0063  0.9752
  108MOL    C7413128   2.344   6.607   2.455 -0.4338 -0.1006  0.4210
  108MOL    F7513129   2.395   6.704   2.376  0.7985 -0.1497 -0.2880
  108MOL    F7613130   2.213   6.606   2.425  0.2493 -0.3885 -0.0869
  108MOL    C7713131   2.362   6.622   2.605  0.3573 -0.1130  0.2756
  108MOL    H7813132   2.313   6.543   2.661  1.8321 -0.9311  0.4610
  108MOL    H7913133   2.303   6.708   2.635  2.1450  0.5413  2.0943
  108MOL    C8013134   2.502   6.642   2.656 -0.0254  0.4117 -0.2566
  108MOL    F8113135   2.589   6.554   2.604 -0.3465 -0.0396 -0.8101
  108MOL    F8213136   2.537   6.758   2.608  0.1440 -0.3642 -0.5919
  108MOL    C8313137   2.505   6.647   2.818 -0.0873  0.2057 -0.0406
  108MOL    H8413138   2.464   6.553   2.855 -0.5621  0.0143 -1.0224
  108MOL    H8513139   2.449   6.733   2.856  1.6897  0.7448  1.4141
  108MOL    C8613140   2.641   6.670   2.878 -0.1102  0.4563  0.4191
  108MOL    F8713141   2.716   6.566   2.830 -0.4093  0.2596  0.2069
  108MOL    F8813142   2.696   6.781   2.831  0.2538 -0.0437 -0.1033
  108MOL    C8913143   2.650   6.675   3.035  0.5726 -0.4220  0.5115
  108MOL    H9013144   2.642   6.775   3.076  0.6856 -1.2290  2.6026
  108MOL    H9113145   2.747   6.643   3.073  1.2942  1.9560  0.7344
  108MOL    C9213146   2.543   6.585   3.114  0.2214  0.1066  0.1777
  108MOL    F9313147   2.411   6.585   3.074  0.0179  0.0309  0.5319
  108MOL    F9413148   2.578   6.457   3.100 -0.1214  0.4256  0.1856
  108MOL    C9513149   2.544   6.619   3.261  0.1142  0.8667 -0.1431
  108MOL    H9613150   2.648   6.624   3.293  0.7448  2.3398 -2.3080
  108MOL    H9713151   2.510   6.532   3.317 -0.7045  1.1492 -0.1893
  108MOL    C9813152   2.453   6.738   3.302 -0.2501  0.3342 -1.0605
  108MOL    F9913153   2.452   6.830   3.205 -0.2326 -0.0622  0.0272
  108MOL   F10013154   2.330   6.687   3.314  0.3487  0.0890 -0.2003
  108MOL   C10113155   2.469   6.800   3.444 -0.3290 -0.6765  0.9262
  108MOL   H10213156   2.483   6.724   3.521  0.1202  0.5702  2.0813
  108MOL   H10313157   2.372   6.843   3.465 -1.2792 -0.5467 -3.1776
  108MOL   C10413158   2.574   6.914   3.453 -0.1952 -0.1470  0.5213
  108MOL   F10513159   2.601   6.947   3.581  0.2561  0.0792  0.3042
  108MOL   F10613160   2.689   6.881   3.390 -0.6447 -0.1197  0.0636
  108MOL   C10713161   2.515   7.048   3.389 -0.1115 -1.0422 -0.6397
  108MOL   H10813162   2.419   7.066   3.437  0.0637 -0.1172 -0.6185
  108MOL   H10913163   2.491   7.047   3.282  0.6230  2.4076 -0.8852
  108MOL   C11013164   2.604   7.174   3.401 -0.5635 -0.1373  0.9234
  108MOL   F11113165   2.658   7.181   3.516 -0.0418 -0.2248 -0.5449
  108MOL   F11213166   2.701   7.155   3.310 -0.3649  0.1369 -0.0060
  108MOL   C11313167   2.524   7.307   3.368 -0.3569  0.1089  0.2731
  108MOL   H11413168   2.431   7.297   3.424  0.8970 -4.7091  1.7656
  108MOL   H11513169   2.497   7.305   3.263  1.1489  1.1460 -0.1557
  108MOL   C11613170   2.590   7.441   3.405 -0.5972  0.2131 -0.4932
  108MOL   F11713171   2.595   7.448   3.538 -0.0609  0.2557 -0.3617
  108MOL   F11813172   2.721   7.426   3.364  0.2583 -0.3590  0.2430
  108MOL   C11913173   2.527   7.562   3.360  0.1220 -0.2587  0.4404
  108MOL   H12013174   2.419   7.566   3.367  0.3104  0.5919  3.2308
  108MOL   H12113175   2.568   7.567   3.259 -0.1333  1.7336  0.4077
  108MOL   H12213176   2.553   7.651   3.418 -2.1232  0.1554  0.8646
  109MOL     C113177   6.935   2.180   5.202 -0.4374 -0.1538 -1.0946
  109MOL     F213178   6.893   2.106   5.096  0.5312 -0.5050  0.0364
  109MOL     F313179   7.070   2.201   5.190 -0.2406  0.1571  0.2380
  109MOL     C413180   6.900   2.099   5.327 -0.4560 -0.9466  0.0197
  109MOL     H513181   6.952   2.143   5.413 -0.8868  0.5141 -0.4420
  109MOL     H613182   6.928   1.997   5.302  0.5442 -0.8916  0.8474
  109MOL     H713183   6.881   2.274   5.197  1.0651  0.9512  2.2709
  109MOL     C813184   6.752   2.093   5.367  0.0945  0.0164 -1.0634
  109MOL     F913185   6.727   2.216   5.416  0.4586  0.0889 -0.5394
  109MOL    F1013186   6.687   2.075   5.255 -0.1704  0.1295  0.5084
  109MOL    C1113187   6.733   1.976   5.466 -0.1522 -0.5683  0.2692
  109MOL    H1213188   6.804   1.990   5.548 -0.0657 -0.8636  0.2471
  109MOL    H1313189   6.774   1.892   5.410  1.6361  0.7769 -0.5048
  109MOL    C1413190   6.597   1.950   5.522 -0.4516  0.1458  0.1474
  109MOL    F1513191   6.525   1.924   5.416  0.0522  0.6993  0.0991
  109MOL    F1613192   6.600   1.838   5.590 -0.6976 -0.0029 -0.1732
  109MOL    C1713193   6.531   2.057   5.604 -0.6401  0.2049  0.3902
  109MOL    H1813194   6.543   2.151   5.549  2.2861  0.3444  1.1793
  109MOL    H1913195   6.580   2.067   5.701  0.9795 -0.6197 -0.3377
  109MOL    C2013196   6.378   2.027   5.628  0.0229 -0.3554 -0.0088
  109MOL    F2113197   6.298   1.998   5.519 -0.0441 -0.1925  0.1836
  109MOL    F2213198   6.383   1.919   5.699  0.2704  0.2465 -0.7027
  109MOL    C2313199   6.297   2.129   5.707 -0.1125  0.0698  0.0295
  109MOL    H2413200   6.331   2.127   5.810 -0.0663  0.5743  0.0224
  109MOL    H2513201   6.192   2.099   5.708  0.3698 -1.8601 -2.0380
  109MOL    C2613202   6.297   2.272   5.655 -0.2944  0.2445 -0.8166
  109MOL    F2713203   6.191   2.329   5.715 -0.1358 -0.3957 -0.0216
  109MOL    F2813204   6.406   2.339   5.694  0.5566 -0.0969  0.2190
  109MOL    C2913205   6.270   2.285   5.506 -0.9323 -0.5529  1.0967
  109MOL    H3013206   6.179   2.233   5.476 -0.4185 -1.2686  0.7424
  109MOL    H3113207   6.345   2.224   5.454 -1.6445 -1.1516  0.7715
  109MOL    C3213208   6.258   2.431   5.458 -0.3061 -0.5107  0.0554
  109MOL    F3313209   6.146   2.477   5.506 -0.5036 -0.6141  0.0047
  109MOL    F3413210   6.353   2.506   5.513 -0.0531  0.5758  0.3433
  109MOL    C3513211   6.272   2.467   5.313 -0.8623  0.4747  0.0648
  109MOL    H3613212   6.367   2.424   5.280 -0.1178  0.4008  2.1830
  109MOL    H3713213   6.285   2.572   5.289  0.6394 -0.1532 -1.9954
  109MOL    C3813214   6.164   2.426   5.220 -0.3800 -0.4794 -0.1665
  109MOL    F3913215   6.146   2.297   5.225  0.0296 -0.3076 -0.0724
  109MOL    F4013216   6.053   2.483   5.256 -0.4010 -0.1287  0.2944
  109MOL    C4113217   6.184   2.451   5.069 -0.5015 -0.3163 -0.0578
  109MOL    H4213218   6.109   2.401   5.008 -1.9191 -1.0424  2.2365
  109MOL    H4313219   6.278   2.407   5.034 -0.2414  0.8939 -0.9162
  109MOL    C4413220   6.189   2.607   5.026 -0.5944  0.5444 -0.3224
  109MOL    F4513221   6.075   2.664   5.073  0.0144 -0.1874  0.0336
  109MOL    F4613222   6.292   2.662   5.082 -0.3673  0.1687 -0.2053
  109MOL    C4713223   6.187   2.633   4.876  0.4386  0.7760 -0.0708
  109MOL    H4813224   6.088   2.600   4.844  1.1321  1.7857 -3.4448
  109MOL    H4913225   6.259   2.571   4.824 -0.1966  0.8117 -1.0162
  109MOL    C5013226   6.204   2.774   4.825 -0.5578  0.8689 -0.0405
  109MOL    F5113227   6.130   2.863   4.875  0.0014  0.4835  0.4600
  109MOL    F5213228   6.331   2.811   4.850 -0.4774 -0.2599 -0.2168
  109MOL    C5313229   6.177   2.781   4.667  0.5893  0.1978  1.0747
  109MOL    H5413230   6.208   2.880   4.634  1.0790 -0.8495 -1.7286
  109MOL    H5513231   6.069   2.775   4.654  0.8744 -1.7083 -0.6490
  109MOL    C5613232   6.252   2.670   4.580 -0.1874 -0.1131 -0.1337
  109MOL    F5713233   6.378   2.664   4.602  0.1493 -0.1278  0.6260
  109MOL    F5813234   6.191   2.553   4.604  0.3997  0.6733  0.3024
  109MOL    C5913235   6.248   2.702   4.428 -0.2121  0.3202  0.2751
  109MOL    H6013236   6.302   2.624   4.375 -0.1495  0.0767  0.6872
  109MOL    H6113237   6.306   2.792   4.410 -2.0063  0.8931 -2.8797
  109MOL    C6213238   6.111   2.715   4.369 -0.2050 -0.8880 -0.0082
  109MOL    F6313239   6.014   2.646   4.432  0.0300 -0.7040  0.0375
  109MOL    F6413240   6.073   2.843   4.374 -0.1466 -0.4419  0.3343
  109MOL    C6513241   6.109   2.660   4.222 -0.1893 -0.2949 -0.0546
  109MOL    H6613242   6.003   2.636   4.210 -0.4820 -0.3776  2.4713
  109MOL    H6713243   6.151   2.560   4.235  1.6335  0.5876  1.0418
  109MOL    C6813244   6.174   2.744   4.108  0.3349  0.1779  0.7013
  109MOL    F6913245   6.297   2.764   4.138 -0.5630 -0.4458  0.2002
  109MOL    F7013246   6.176   2.675   3.993  0.0548  0.0142  0.0847
  109MOL    C7113247   6.105   2.875   4.070 -0.2303 -0.8018 -0.2534
  109MOL    H7213248   6.161   2.915   3.986  1.0747 -2.0751  0.0056
  109MOL    H7313249   6.112   2.952   4.148 -0.1980 -0.4717 -0.5815
  109MOL    C7413250   5.958   2.852   4.033  0.2984 -0.2095 -0.7160
  109MOL    F7513251   5.936   2.737   3.969 -0.1060 -0.1048 -0.2798
  109MOL    F7613252   5.888   2.855   4.148 -0.2294  0.2852  0.6771
  109MOL    C7713253   5.905   2.971   3.954 -0.5560  0.0893  0.4395
  109MOL    H7813254   5.966   2.980   3.864  1.7275  0.1018  1.9432
  109MOL    H7913255   5.926   3.056   4.018  2.7885 -0.3216  0.0096
  109MOL    C8013256   5.752   2.958   3.922 -0.6326  0.5355  0.1938
  109MOL    F8113257   5.725   2.839   3.869  0.1007 -0.4888  0.4299
  109MOL    F8213258   5.686   2.969   4.039 -0.0269 -0.3365 -0.5156
  109MOL    C8313259   5.687   3.060   3.825 -0.2641 -0.1547  0.4367
  109MOL    H8413260   5.694   3.161   3.865  0.8921 -0.1056  0.1369
  109MOL    H8513261   5.580   3.039   3.829 -0.7733  2.5152  1.7645
  109MOL    C8613262   5.728   3.053   3.674  0.0606  0.1562 -0.1194
  109MOL    F8713263   5.854   3.096   3.679  0.0879 -0.3525  0.3003
  109MOL    F8813264   5.724   2.929   3.621  0.1865  0.5223  0.2281
  109MOL    C8913265   5.646   3.151   3.598 -0.4488  0.5039 -0.4328
  109MOL    H9013266   5.694   3.175   3.503  0.8152 -0.7366 -0.1201
  109MOL    H9113267   5.642   3.246   3.653  0.1511 -0.9124  2.1391
  109MOL    C9213268   5.492   3.116   3.595  0.3729 -0.0109  0.5916
  109MOL    F9313269   5.444   3.158   3.709  0.0075 -0.3457  0.2228
  109MOL    F9413270   5.434   3.190   3.498 -0.5111 -0.0368  0.2200
  109MOL    C9513271   5.459   2.966   3.576 -0.0460  0.0246  0.6797
  109MOL    H9613272   5.497   2.901   3.655  1.2437  0.2976  0.2965
  109MOL    H9713273   5.506   2.939   3.482  0.0440  1.2021  0.3792
  109MOL    C9813274   5.310   2.931   3.557  0.1322 -0.5188 -0.5749
  109MOL    F9913275   5.253   2.977   3.443 -0.0280  0.0398 -0.3584
  109MOL   F10013276   5.310   2.802   3.538 -0.1313 -0.3398  0.0627
  109MOL   C10113277   5.216   2.965   3.678  0.2903 -0.7189 -0.3455
  109MOL   H10213278   5.207   3.073   3.688  0.3825 -0.8626  1.3790
  109MOL   H10313279   5.279   2.948   3.765 -0.3468  0.8275  0.4287
  109MOL   C10413280   5.089   2.876   3.684 -0.9121  0.3850  0.5143
  109MOL   F10513281   5.020   2.900   3.577  0.5226 -0.4441  0.0732
  109MOL   F10613282   5.124   2.745   3.692  0.4457  0.2095  0.4083
  109MOL   C10713283   5.003   2.891   3.815 -0.4461  0.3758  0.0528
  109MOL   H10813284   5.002   2.995   3.848  0.0649 -0.1001  1.5811
  109MOL   H10913285   5.057   2.855   3.902  0.5464  0.1140 -0.6609
  109MOL   C11013286   4.864   2.823   3.812 -0.3625 -0.1222 -0.5140
  109MOL   F11113287   4.788   2.873   3.708 -0.6377 -0.6473 -0.7539
  109MOL   F11213288   4.901   2.696   3.788  0.2307 -0.0367  0.3450
  109MOL   C11313289   4.793   2.809   3.946  0.4615 -0.1592  0.2420
  109MOL   H11413290   4.854   2.738   4.002 -1.1037  1.0395  3.6532
  109MOL   H11513291   4.697   2.766   3.917  1.0791 -1.5645  0.2026
  109MOL   C11613292   4.768   2.931   4.038 -0.1894 -0.0717  0.5395
  109MOL   F11713293   4.871   3.014   4.051 -0.4067  0.2546 -0.4433
  109MOL   F11813294   4.684   3.012   3.983  0.3958  0.4454 -0.0526
  109MOL   C11913295   4.729   2.895   4.177 -0.7200 -0.3869  0.8237
  109MOL   H12013296   4.645   2.826   4.171 -2.3521  1.4263  2.4281
  109MOL   H12113297   4.699   2.983   4.232 -1.3348  0.0571 -0.2028
  109MOL   H12213298   4.808   2.842   4.230  0.2649  2.0212  1.8345
  110MOL     C113299   6.637   0.772   7.633 -0.0941  0.2281  0.6025
  110MOL     F213300   6.715   0.765   7.522 -0.0768 -0.2228 -0.3167
  110MOL     F313301   6.713   0.816   7.733  0.2194 -0.4060 -0.7019
  110MOL     C413302   6.594   0.627   7.674  0.3706  0.4222 -0.0860
  110MOL     H513303   6.521   0.587   7.603  0.1875  0.6144 -0.0077
  110MOL     H613304   6.538   0.639   7.767 -1.6696  2.3422 -1.5326
  110MOL     H713305   6.559   0.845   7.614 -2.2287 -1.3812  2.7803
  110MOL     C813306   6.704   0.513   7.678 -0.1745 -0.0208  0.4962
  110MOL     F913307   6.758   0.507   7.556 -0.3219 -0.0373  0.0079
  110MOL    F1013308   6.795   0.552   7.768 -0.6563 -0.5316 -0.8661
  110MOL    C1113309   6.640   0.375   7.719 -0.5431  0.0568  0.1751
  110MOL    H1213310   6.714   0.299   7.695  1.8792  1.6221  2.3752
  110MOL    H1313311   6.550   0.353   7.663  0.4501 -0.9299 -1.0526
  110MOL    C1413312   6.596   0.348   7.860 -0.4445 -0.3859 -0.3992
  110MOL    F1513313   6.509   0.450   7.892 -0.0586  0.3205 -0.0497
  110MOL    F1613314   6.530   0.236   7.858  0.0759  0.1678  0.6319
  110MOL    C1713315   6.699   0.344   7.966  0.0065 -1.1473 -0.2433
  110MOL    H1813316   6.653   0.310   8.058  1.6318  0.5474  1.2373
  110MOL    H1913317   6.735   0.446   7.983 -2.6315  0.1946 -2.2493
  110MOL    C2013318   6.826   0.250   7.944  0.1348  0.4750 -0.2664
  110MOL    F2113319   6.783   0.137   7.891 -0.1218  0.0137 -0.0364
  110MOL    F2213320   6.897   0.311   7.851 -0.0788  0.2031  0.2359
  110MOL    C2313321   6.908   0.215   8.070 -0.5673 -0.7526 -0.2427
  110MOL    H2413322   6.838   0.178   8.145 -0.3910 -1.6300 -0.5055
  110MOL    H2513323   6.962   0.300   8.112  0.9646 -0.8650 -1.9163
  110MOL    C2613324   7.022   0.105   8.038 -0.1803 -0.8191 -0.0541
  110MOL    F2713325   6.970   8.346   7.985 -0.7179 -0.1774  0.3646
  110MOL    F2813326   7.107   0.156   7.950 -0.0850 -0.1148 -0.5485
  110MOL    C2913327   7.112   0.074   8.165  0.4155 -0.4816  0.1232
  110MOL    H3013328   7.038   0.074   8.245  0.8022  0.1979  0.4960
  110MOL    H3113329   7.169   0.167   8.173 -0.9130  0.3229  0.2782
  110MOL    C3213330   7.204   8.292   8.169 -0.0971  0.3419 -0.0761
  110MOL    F3313331   7.287   8.296   8.273 -0.1945  0.0743 -0.4697
  110MOL    F3413332   7.123   8.180   8.182 -0.2979 -0.4248 -0.1293
  110MOL    C3513333   7.281   8.272   8.038  0.5347  0.0337  0.0320
  110MOL    H3613334   7.306   0.020   7.997  2.6813  0.2273  1.7511
  110MOL    H3713335   7.205   8.236   7.968  1.4964  0.4986 -1.2744
  110MOL    C3813336   7.404   8.182   8.033 -0.1812 -0.1874  0.1040
  110MOL    F3913337   7.506   8.229   8.100 -0.4169 -0.2651 -0.1802
  110MOL    F4013338   7.381   8.060   8.083 -0.2147  0.1618  0.7311
  110MOL    C4113339   7.457   8.174   7.889  0.2922 -0.4947 -0.1562
  110MOL    H4213340   7.554   8.123   7.891  1.6448  2.0347  1.2004
  110MOL    H4313341   7.485   8.276   7.865  2.4561 -0.7629  1.0959
  110MOL    C4413342   7.363   8.107   7.773 -0.2853 -0.7116  0.0436
  110MOL    F4513343   7.302   7.995   7.820 -0.2613  0.0440  0.1057
  110MOL    F4613344   7.271   8.200   7.746 -0.3072 -0.0297 -0.2444
  110MOL    C4713345   7.450   8.070   7.638  0.2508 -0.1674  0.1238
  110MOL    H4813346   7.511   7.980   7.646  0.3618 -0.3977 -2.7482
  110MOL    H4913347   7.518   8.151   7.611  0.9175 -0.3726  1.1604
  110MOL    C5013348   7.359   8.047   7.514 -0.8216  0.0651 -0.8105
  110MOL    F5113349   7.315   8.165   7.470  0.3345 -0.2995  0.3985
  110MOL    F5213350   7.448   7.996   7.426  0.1330 -0.1341 -0.2743
  110MOL    C5313351   7.247   7.948   7.531 -0.1402  0.2220 -0.5110
  110MOL    H5413352   7.181   7.959   7.445 -0.6720  1.0832  0.0039
  110MOL    H5513353   7.190   7.973   7.620  1.6438  0.7170  0.5315
  110MOL    C5613354   7.293   7.795   7.530 -1.0326 -0.2021 -0.3515
  110MOL    F5713355   7.343   7.761   7.410  0.0596 -0.5890 -0.4033
  110MOL    F5813356   7.384   7.774   7.625 -0.8961  0.5979  0.1048
  110MOL    C5913357   7.176   7.701   7.565 -0.0248 -0.3013  0.0721
  110MOL    H6013358   7.085   7.717   7.509 -0.3012 -0.0824  0.5741
  110MOL    H6113359   7.155   7.723   7.670  1.6030 -1.5594  0.6921
  110MOL    C6213360   7.203   7.546   7.559 -0.0381 -0.1775 -1.0145
  110MOL    F6313361   7.235   7.512   7.437  0.1640  0.0181  0.2247
  110MOL    F6413362   7.299   7.507   7.641 -0.0357 -0.0903  0.2503
  110MOL    C6513363   7.073   7.474   7.599  1.3393  0.5347 -0.3932
  110MOL    H6613364   7.091   7.367   7.591  1.2340  0.5151 -0.3721
  110MOL    H6713365   7.004   7.485   7.515  2.9190 -0.2729 -1.8149
  110MOL    C6813366   7.008   7.502   7.743 -0.0085  0.2449  0.1736
  110MOL    F6913367   7.107   7.494   7.837 -0.2806 -0.2348  0.3503
  110MOL    F7013368   6.957   7.623   7.746  0.4617  0.6276  0.1219
  110MOL    C7113369   6.894   7.407   7.786  0.4045  0.5476  0.3664
  110MOL    H7213370   6.854   7.431   7.884  0.5424  0.4614  0.4443
  110MOL    H7313371   6.937   7.307   7.798 -0.3969  0.2725  1.0691
  110MOL    C7413372   6.782   7.380   7.689  0.5040 -0.1336  1.0820
  110MOL    F7513373   6.818   7.315   7.585  0.2168  0.1382 -0.2234
  110MOL    F7613374   6.699   7.296   7.753 -0.2569  0.2534 -0.3663
  110MOL    C7713375   6.701   7.507   7.648  0.7121  1.1687  0.0555
  110MOL    H7813376   6.777   7.555   7.587  0.9819  1.6996  0.8075
  110MOL    H7913377   6.690   7.589   7.719 -1.5801  0.3224  0.7248
  110MOL    C8013378   6.569   7.481   7.574  0.4753 -0.4220  0.2961
  110MOL    F8113379   6.580   7.403   7.467 -0.4414 -0.5225  0.1446
  110MOL    F8213380   6.478   7.410   7.649 -0.5242 -0.4301  0.0930
  110MOL    C8313381   6.503   7.613   7.519 -0.2254  1.3870 -0.1234
  110MOL    H8413382   6.577   7.645   7.446 -0.0474 -0.3112 -0.7126
  110MOL    H8513383   6.504   7.687   7.599 -0.5546  1.0489  0.2004
  110MOL    C8613384   6.353   7.607   7.464  0.5712 -0.3201 -0.3709
  110MOL    F8713385   6.271   7.614   7.570 -0.5774  0.4526  0.3379
  110MOL    F8813386   6.332   7.721   7.401 -0.0777 -0.1024  0.1724
  110MOL    C8913387   6.311   7.478   7.391 -0.3344 -0.1189 -0.2198
  110MOL    H9013388   6.304   7.398   7.466  1.3288  0.9257  1.0772
  110MOL    H9113389   6.390   7.445   7.324  0.2584 -0.2432  0.5374
  110MOL    C9213390   6.177   7.490   7.318  0.1035 -0.3887  0.5341
  110MOL    F9313391   6.084   7.544   7.393  0.2482  0.1518  0.1251
  110MOL    F9413392   6.195   7.573   7.214  0.3311 -0.1960 -0.0359
  110MOL    C9513393   6.126   7.354   7.265  0.2288 -0.6109 -0.1151
  110MOL    H9613394   6.083   7.297   7.347  0.5141  1.0623  1.2236
  110MOL    H9713395   6.211   7.290   7.241 -0.1167 -0.4997 -1.7522
  110MOL    C9813396   6.026   7.362   7.147  0.2663 -0.5061  0.2738
  110MOL    F9913397   6.099   7.379   7.040 -0.3999 -0.5745 -0.2461
  110MOL   F10013398   5.977   7.236   7.138  0.1049 -0.0666  0.4989
  110MOL   C10113399   5.915   7.467   7.153 -0.3241  0.2859 -0.2221
  110MOL   H10213400   5.968   7.562   7.144  4.3790 -1.8505  2.5766
  110MOL   H10313401   5.858   7.453   7.245 -2.2060 -0.1284 -1.4213
  110MOL   C10413402   5.812   7.461   7.038 -0.0270 -0.3586  0.3801
  110MOL   F10513403   5.871   7.503   6.933 -0.2078  0.0073  0.0153
  110MOL   F10613404   5.778   7.334   7.006 -0.1380  0.2581  0.0154
  110MOL   C10713405   5.683   7.538   7.068  0.3932 -0.1051  0.2056
  110MOL   H10813406   5.626   7.487   7.146  1.6248  1.1713  2.0030
  110MOL   H10913407   5.616   7.548   6.982 -0.7840 -1.1120  0.9821
  110MOL   C11013408   5.693   7.686   7.109 -0.6292  0.2577  0.1922
  110MOL   F11113409   5.758   7.701   7.227 -0.0533  0.1976 -0.3951
  110MOL   F11213410   5.756   7.745   7.004  0.5511  0.2601 -0.0430
  110MOL   C11313411   5.561   7.766   7.118 -0.0021  0.1024 -0.4512
  110MOL   H11413412   5.503   7.749   7.027  1.8093 -0.6839 -1.4783
  110MOL   H11513413   5.578   7.874   7.115 -1.1211  0.3723  1.4067
  110MOL   C11613414   5.466   7.727   7.239 -0.0492 -0.5582 -0.5161
  110MOL   F11713415   5.449   7.591   7.237 -0.1190  0.0202  0.0113
  110MOL   F11813416   5.507   7.768   7.359 -0.2542  0.0851 -0.0023
  110MOL   C11913417   5.327   7.790   7.230  0.4138  0.1065  0.2354
  110MOL   H12013418   5.268   7.769   7.319 -2.1177 -4.0965 -2.1969
  110MOL   H12113419   5.266   7.748   7.149 -1.7557  1.5748  1.0638
  110MOL   H12213420   5.343   7.897   7.218 -1.1715 -0.0420 -4.0533
  111MOL     C113421   6.120   1.954   5.192  0.2559 -0.0514  0.0814
  111MOL     F213422   6.073   1.876   5.284  0.2443  0.0883 -0.5171
  111MOL     F313423   6.048   1.948   5.073 -0.2616  0.8168  0.1200
  111MOL     C413424   6.263   1.917   5.157  0.3484 -0.4438  0.0391
  111MOL     H513425   6.259   1.813   5.123  1.8731 -1.0419  1.6512
  111MOL     H613426   6.311   1.914   5.255  0.2541  0.4922  0.1175
  111MOL     H713427   6.124   2.053   5.236  1.9604  0.4181 -1.0770
  111MOL     C813428   6.338   1.996   5.049  0.3565 -0.4241  0.0403
  111MOL     F913429   6.258   2.007   4.941 -0.3137 -0.2706 -0.2938
  111MOL    F1013430   6.349   2.117   5.103  0.5107 -0.1993  0.6155
  111MOL    C1113431   6.480   1.937   5.029 -0.0014 -0.0486 -0.1341
  111MOL    H1213432   6.484   1.831   5.004 -1.0122 -0.7223  2.4040
  111MOL    H1313433   6.536   1.966   5.118 -0.1362 -0.0565 -0.0478
  111MOL    C1413434   6.567   2.011   4.917  0.0334 -0.1556 -0.0320
  111MOL    F1513435   6.684   1.948   4.892 -0.3483  0.3307 -0.1906
  111MOL    F1613436   6.497   2.004   4.806 -0.6663  0.2594  0.0240
  111MOL    C1713437   6.608   2.162   4.939 -0.3727 -0.6634  1.4376
  111MOL    H1813438   6.678   2.166   5.023  1.6464  0.4807 -0.2310
  111MOL    H1913439   6.519   2.212   4.976  1.5307  3.5485  0.6615
  111MOL    C2013440   6.666   2.247   4.828 -0.0239 -0.0549  0.5572
  111MOL    F2113441   6.783   2.195   4.779  0.3324  0.3090  0.3019
  111MOL    F2213442   6.579   2.256   4.728 -0.1021  0.0692  0.0833
  111MOL    C2313443   6.711   2.388   4.879  0.1754 -0.2470  0.5995
  111MOL    H2413444   6.750   2.437   4.789 -1.2246 -2.1310 -1.0706
  111MOL    H2513445   6.806   2.381   4.932  1.4654  1.5831 -1.3581
  111MOL    C2613446   6.609   2.479   4.947  0.4807  0.0414 -0.6457
  111MOL    F2713447   6.490   2.473   4.886  0.3032  0.2634 -0.0812
  111MOL    F2813448   6.583   2.421   5.069 -0.0791  0.0953 -0.8252
  111MOL    C2913449   6.654   2.620   4.959 -0.0454  0.1315  0.2363
  111MOL    H3013450   6.579   2.670   5.020 -0.5639 -2.4907  1.8284
  111MOL    H3113451   6.659   2.671   4.863  1.2978 -0.5370 -0.0592
  111MOL    C3213452   6.785   2.663   5.030  0.0798  0.2380 -0.3917
  111MOL    F3313453   6.876   2.601   4.968  0.4243  0.1077 -0.0954
  111MOL    F3413454   6.795   2.794   5.021  0.8218 -0.2340 -0.3937
  111MOL    C3513455   6.798   2.618   5.179  0.0273  0.7233  0.3716
  111MOL    H3613456   6.904   2.597   5.195  0.0363  0.7960  0.4033
  111MOL    H3713457   6.738   2.528   5.190 -1.8037  1.5399 -2.4062
  111MOL    C3813458   6.760   2.726   5.281  0.5730  0.3252 -0.2943
  111MOL    F3913459   6.855   2.823   5.285 -0.1332 -0.0222  0.2465
  111MOL    F4013460   6.649   2.786   5.237  0.5467  0.0420 -0.6678
  111MOL    C4113461   6.739   2.674   5.428  0.2765  0.3079 -0.7904
  111MOL    H4213462   6.697   2.574   5.419 -1.2375  0.8881 -0.2661
  111MOL    H4313463   6.662   2.738   5.469  0.5271 -1.2394  2.2515
  111MOL    C4413464   6.873   2.683   5.515 -0.1965 -0.4013 -0.3165
  111MOL    F4513465   6.967   2.620   5.445  0.7139  0.4392  0.3086
  111MOL    F4613466   6.911   2.807   5.525 -0.2795  0.2717  0.0080
  111MOL    C4713467   6.855   2.627   5.655  0.0834 -0.2385 -0.1461
  111MOL    H4813468   6.774   2.677   5.709 -0.1976  1.1898 -1.8160
  111MOL    H4913469   6.945   2.654   5.710  0.4001 -2.7966  0.6589
  111MOL    C5013470   6.828   2.475   5.666 -0.4408 -0.0667 -0.2771
  111MOL    F5113471   6.699   2.465   5.659  0.4980  0.1817 -0.1129
  111MOL    F5213472   6.891   2.416   5.565  0.4349  0.2862  0.3560
  111MOL    C5313473   6.874   2.411   5.795 -0.0159  0.2805  0.3469
  111MOL    H5413474   6.847   2.477   5.878  1.5238  0.7300  0.5034
  111MOL    H5513475   6.983   2.415   5.791  0.0308 -0.9816  0.3556
  111MOL    C5613476   6.818   2.264   5.816 -0.2385 -0.0383 -0.0614
  111MOL    F5713477   6.685   2.267   5.843  0.0501  0.3763  0.7448
  111MOL    F5813478   6.825   2.193   5.706  0.3202 -0.7765 -0.0969
  111MOL    C5913479   6.897   2.180   5.931  0.7762 -0.5789 -0.1962
  111MOL    H6013480   7.003   2.185   5.904  1.3086 -2.0875  1.4858
  111MOL    H6113481   6.849   2.086   5.905  0.7767 -0.6794  0.1689
  111MOL    C6213482   6.867   2.231   6.076 -0.2624 -0.5771 -0.6603
  111MOL    F6313483   6.953   2.171   6.158  0.1472  0.9979 -0.6759
  111MOL    F6413484   6.906   2.358   6.079 -0.0479  0.2266 -0.6214
  111MOL    C6513485   6.718   2.218   6.129  0.0019  0.8713  0.2929
  111MOL    H6613486   6.649   2.285   6.077 -2.3415 -1.8573 -0.2635
  111MOL    H6713487   6.718   2.244   6.235 -0.8572 -0.4261  0.6235
  111MOL    C6813488   6.647   2.078   6.130 -0.0067 -0.1631  0.3066
  111MOL    F6913489   6.619   2.034   6.007  0.6424 -0.1280 -0.0751
  111MOL    F7013490   6.737   1.999   6.179 -0.3750  0.4979  0.4964
  111MOL    C7113491   6.522   2.063   6.219  0.4699 -0.0854  0.0412
  111MOL    H7213492   6.547   2.093   6.320  0.4377 -1.4481  0.4647
  111MOL    H7313493   6.506   1.955   6.221  0.1789 -0.0479 -0.2346
  111MOL    C7413494   6.400   2.138   6.166  0.1445 -0.2995 -0.2227
  111MOL    F7513495   6.427   2.267   6.143 -0.3151  0.5959  0.2133
  111MOL    F7613496   6.372   2.079   6.051  0.2321  0.3538 -0.0589
  111MOL    C7713497   6.273   2.124   6.256  0.9425  0.0901  0.0040
  111MOL    H7813498   6.300   2.173   6.350 -0.3911 -0.3869  0.6557
  111MOL    H7913499   6.253   2.020   6.281  0.5529  0.3325  0.7128
  111MOL    C8013500   6.135   2.172   6.212  0.0273  0.0175  0.0724
  111MOL    F8113501   6.060   2.135   6.313  0.3699  0.0386 -0.0522
  111MOL    F8213502   6.132   2.301   6.202 -0.3183  0.2282  0.1131
  111MOL    C8313503   6.076   2.100   6.087 -0.3982  0.6596  0.4011
  111MOL    H8413504   6.062   1.993   6.101 -0.2135  0.1328 -2.8995
  111MOL    H8513505   6.147   2.104   6.005 -0.3160  1.2139  0.5008
  111MOL    C8613506   5.942   2.154   6.031 -0.1376  0.2999  1.1363
  111MOL    F8713507   5.857   2.148   6.130  0.0393  0.4408  0.2281
  111MOL    F8813508   5.962   2.282   5.985  0.1111  0.5704  0.4281
  111MOL    C8913509   5.898   2.061   5.907  0.8757 -0.2266  0.4028
  111MOL    H9013510   5.878   1.961   5.946  2.0754 -1.0536 -1.0657
  111MOL    H9113511   5.980   2.060   5.836 -0.2235 -0.2395 -0.8704
  111MOL    C9213512   5.777   2.106   5.830  0.3955 -0.3721  0.5312
  111MOL    F9313513   5.669   2.109   5.914  0.3678  0.3065  0.5265
  111MOL    F9413514   5.792   2.234   5.788  0.0919  0.0556 -0.1233
  111MOL    C9513515   5.749   2.026   5.699  0.3644 -0.5796  0.5285
  111MOL    H9613516   5.748   1.920   5.726  1.6224 -0.8280 -0.3378
  111MOL    H9713517   5.827   2.022   5.623 -2.1179 -2.1126 -2.0310
  111MOL    C9813518   5.627   2.062   5.615 -0.3068  0.1558 -0.4845
  111MOL    F9913519   5.600   1.960   5.535  0.1096  0.1302  0.0426
  111MOL   F10013520   5.517   2.069   5.692 -0.2823  0.5251  0.2023
  111MOL   C10113521   5.639   2.189   5.536  0.0259  0.1517 -0.0967
  111MOL   H10213522   5.611   2.276   5.596 -0.1467  0.1758 -0.2130
  111MOL   H10313523   5.562   2.182   5.460  1.2621 -0.8072 -1.3007
  111MOL   C10413524   5.771   2.214   5.459 -0.1110  0.1412  0.5614
  111MOL   F10513525   5.877   2.258   5.524  0.1530  0.1902  0.3771
  111MOL   F10613526   5.807   2.098   5.407 -0.3924  0.1212  0.2981
  111MOL   C10713527   5.737   2.317   5.346 -1.0152 -0.0122  0.2894
  111MOL   H10813528   5.663   2.268   5.283 -0.3486  1.5094 -1.7702
  111MOL   H10913529   5.819   2.328   5.275 -0.4373  0.9618  1.0820
  111MOL   C11013530   5.669   2.450   5.404 -0.3436 -0.0049  0.1614
  111MOL   F11113531   5.541   2.439   5.443  0.2959  0.5588  0.1858
  111MOL   F11213532   5.745   2.489   5.511 -0.2166  0.3817 -0.2426
  111MOL   C11313533   5.688   2.563   5.304  0.4639  0.0496 -0.4086
  111MOL   H11413534   5.792   2.565   5.271  0.0283 -0.8509 -1.9157
  111MOL   H11513535   5.674   2.654   5.362 -1.9864 -0.2316 -0.4959
  111MOL   C11613536   5.599   2.574   5.184 -0.4649 -0.6295 -0.4302
  111MOL   F11713537   5.633   2.474   5.100  0.0439 -0.2913  0.5803
  111MOL   F11813538   5.472   2.562   5.222  0.9131 -0.6616  0.4316
  111MOL   C11913539   5.617   2.702   5.096  0.4034 -0.4574  1.0369
  111MOL   H12013540   5.563   2.694   5.002  1.8917  1.3703 -0.0145
  111MOL   H12113541   5.722   2.712   5.068  0.0888 -1.3534 -0.5063
  111MOL   H12213542   5.585   2.797   5.140 -0.1123 -0.7019  1.1901
  112MOL     C113543   7.194   3.109   8.326  0.8030 -0.1078 -0.3927
  112MOL     F213544   7.285   3.168   0.054 -0.0453 -0.0443  0.1701
  112MOL     F313545   7.244   3.111   8.205 -0.0143  0.1666  0.3709
  112MOL     C413546   7.062   3.193   8.332  0.5252 -0.8271 -0.0647
  112MOL     H513547   7.073   3.295   8.297  1.6790 -0.3653  1.5927
  112MOL     H613548   7.043   3.201   0.090 -0.6214  1.4115 -0.4108
  112MOL     H713549   7.183   3.010   0.020 -1.3412 -0.2050 -1.1350
  112MOL     C813550   6.954   3.128   8.252 -0.1151 -0.1261 -0.1675
  112MOL     F913551   6.999   3.144   8.129  0.5276  0.5551 -0.2763
  112MOL    F1013552   6.959   2.997   8.275  0.2986  0.4554  0.0620
  112MOL    C1113553   6.813   3.186   8.274  0.1312 -0.3469  0.0081
  112MOL    H1213554   6.810   3.290   8.243 -0.1197  0.1921  1.7682
  112MOL    H1313555   6.804   3.195   0.032  0.2356 -1.3301  0.1034
  112MOL    C1413556   6.695   3.105   8.206  0.1896  0.0104  0.7040
  112MOL    F1513557   6.697   2.981   8.256 -0.2603  0.4158  0.7823
  112MOL    F1613558   6.581   3.163   8.249  0.0256  0.2010 -0.5076
  112MOL    C1713559   6.693   3.103   8.046  0.7849  0.1930  0.5780
  112MOL    H1813560   6.781   3.050   8.008 -1.1804 -3.0313  0.2624
  112MOL    H1913561   6.699   3.206   8.014  1.8727  0.2457  0.9133
  112MOL    C2013562   6.580   3.019   7.983 -0.3272 -0.4050 -0.2408
  112MOL    F2113563   6.594   2.890   8.014  0.0413  0.0179 -0.5568
  112MOL    F2213564   6.462   3.064   8.029 -0.2484  0.0856  0.1434
  112MOL    C2313565   6.584   3.033   7.831  0.0606 -0.5109  0.5608
  112MOL    H2413566   6.681   3.000   7.794 -0.5999 -1.9018  0.0517
  112MOL    H2513567   6.576   3.140   7.814 -1.3526 -0.5692  0.8457
  112MOL    C2613568   6.469   2.970   7.753  0.0684  0.2006 -0.2291
  112MOL    F2713569   6.361   3.033   7.799  0.1124 -0.4984 -0.1606
  112MOL    F2813570   6.482   3.000   7.626 -0.4383  0.2251 -0.2863
  112MOL    C2913571   6.456   2.815   7.772  0.1973 -0.2644  0.0543
  112MOL    H3013572   6.465   2.794   7.878  0.4229  0.1595  0.1210
  112MOL    H3113573   6.547   2.779   7.724  0.7348 -1.5968  2.0144
  112MOL    C3213574   6.332   2.744   7.711 -0.3368  0.2044  0.5824
  112MOL    F3313575   6.360   2.612   7.707  0.9376  0.3025  0.4445
  112MOL    F3413576   6.242   2.765   7.794  0.2476  0.1384  0.0712
  112MOL    C3513577   6.290   2.796   7.570 -0.3061  0.0872 -0.2556
  112MOL    H3613578   6.373   2.788   7.500  0.3093  1.9012  0.2433
  112MOL    H3713579   6.254   2.899   7.567 -3.3878 -0.9306 -0.5426
  112MOL    C3813580   6.172   2.721   7.505 -0.4453  0.4059 -0.2506
  112MOL    F3913581   6.069   2.731   7.583 -0.2559  0.5349  0.8379
  112MOL    F4013582   6.145   2.793   7.395  0.3522 -0.6477 -0.0160
  112MOL    C4113583   6.200   2.573   7.463  0.0248 -0.2944  0.5364
  112MOL    H4213584   6.213   2.521   7.558 -1.3652 -2.3292 -0.3427
  112MOL    H4313585   6.291   2.574   7.403  1.2076  2.4947  2.2969
  112MOL    C4413586   6.087   2.505   7.392 -0.1023  0.0375  0.0066
  112MOL    F4513587   6.137   2.385   7.356  0.2103 -0.0559 -0.6420
  112MOL    F4613588   5.986   2.489   7.478  0.6214  0.2153 -0.2728
  112MOL    C4713589   6.033   2.579   7.262  0.3055  0.2941  0.0089
  112MOL    H4813590   6.108   2.605   7.188  2.1830  0.2749  1.8778
  112MOL    H4913591   5.974   2.670   7.280  1.4086  1.7336 -3.2603
  112MOL    C5013592   5.937   2.493   7.177 -0.2907 -0.9601  0.5910
  112MOL    F5113593   5.897   2.545   7.067  0.1567 -0.0331  0.7970
  112MOL    F5213594   6.016   2.390   7.138  0.1743  0.5848 -0.2869
  112MOL    C5313595   5.821   2.423   7.247 -0.0964  0.3734  0.9105
  112MOL    H5413596   5.868   2.351   7.314 -0.4614 -0.3657  0.3754
  112MOL    H5513597   5.781   2.362   7.165  0.2254  0.7690  0.4599
  112MOL    C5613598   5.717   2.517   7.299  0.8104 -0.5077 -0.0009
  112MOL    F5713599   5.769   2.615   7.375 -0.0486  0.4098 -0.2702
  112MOL    F5813600   5.662   2.577   7.193  0.4890 -0.2378  0.2431
  112MOL    C5913601   5.595   2.454   7.375 -0.3204 -0.1510 -0.4668
  112MOL    H6013602   5.518   2.517   7.418 -1.0800  0.3106 -2.4811
  112MOL    H6113603   5.648   2.407   7.458  0.2985 -0.6965 -1.1601
  112MOL    C6213604   5.516   2.330   7.308 -0.3489 -0.3294 -0.0190
  112MOL    F6313605   5.598   2.240   7.257 -0.2206  0.1094  0.0093
  112MOL    F6413606   5.449   2.275   7.408  0.2901 -0.1121 -0.0831
  112MOL    C6513607   5.420   2.379   7.203  0.9035  0.6236 -0.3875
  112MOL    H6613608   5.468   2.424   7.116 -2.5445  1.8156 -1.7652
  112MOL    H6713609   5.364   2.461   7.249  1.5352  0.8034  0.0651
  112MOL    C6813610   5.316   2.284   7.152 -0.2563  0.3312 -0.3570
  112MOL    F6913611   5.251   2.341   7.048  0.0271 -0.0484  0.3287
  112MOL    F7013612   5.380   2.176   7.100 -0.0283  0.1978  0.2556
  112MOL    C7113613   5.201   2.243   7.246  0.1243 -0.1832  0.1189
  112MOL    H7213614   5.137   2.328   7.271 -0.5483  0.0547 -2.2968
  112MOL    H7313615   5.235   2.200   7.340  0.2207 -0.7353 -0.1688
  112MOL    C7413616   5.125   2.115   7.189 -0.0085  0.2919 -0.2086
  112MOL    F7513617   5.104   2.123   7.062  0.2279 -0.5049  0.1643
  112MOL    F7613618   5.205   2.004   7.194 -0.1392  0.1650 -0.2290
  112MOL    C7713619   4.984   2.075   7.256  0.4100 -0.4395  0.2073
  112MOL    H7813620   4.979   2.059   7.363 -1.6484  0.5182  0.2829
  112MOL    H7913621   4.954   1.977   7.218 -0.4813  0.2510 -0.9379
  112MOL    C8013622   4.864   2.170   7.234 -0.2884 -0.3405  0.5764
  112MOL    F8113623   4.894   2.281   7.294  0.3023 -0.2132  0.2324
  112MOL    F8213624   4.847   2.199   7.108 -0.7007 -0.0466 -0.3760
  112MOL    C8313625   4.727   2.117   7.281  0.2598 -0.7626  0.4227
  112MOL    H8413626   4.719   2.022   7.228  1.9260 -0.2281 -0.8460
  112MOL    H8513627   4.657   2.193   7.245  0.6078 -0.9539 -0.6647
  112MOL    C8613628   4.696   2.103   7.436 -0.0504  0.2568 -0.3641
  112MOL    F8713629   4.757   1.992   7.475  0.1610 -0.0195  0.0043
  112MOL    F8813630   4.756   2.197   7.511 -0.0484 -0.2726 -0.1602
  112MOL    C8913631   4.545   2.103   7.472 -0.9250  0.5238 -0.4914
  112MOL    H9013632   4.519   2.206   7.451 -2.1388  0.5406  1.0561
  112MOL    H9113633   4.545   2.096   7.580 -0.5305  0.5908 -0.4879
  112MOL    C9213634   4.452   1.999   7.406  0.5051  0.0361 -0.2039
  112MOL    F9313635   4.324   2.023   7.444  0.5276  0.1737  0.7883
  112MOL    F9413636   4.454   2.033   7.280 -0.6035 -0.9338 -0.3426
  112MOL    C9513637   4.500   1.848   7.415  0.1996  0.2362 -0.2526
  112MOL    H9613638   4.514   1.820   7.519  1.7635 -0.9528 -0.7639
  112MOL    H9713639   4.600   1.850   7.370  0.2044  2.9444 -0.1990
  112MOL    C9813640   4.423   1.743   7.343  0.4627 -0.2861  1.3255
  112MOL    F9913641   4.466   1.622   7.373  0.2611  0.4379  0.1048
  112MOL   F10013642   4.302   1.757   7.394 -0.3676  0.6573 -0.8659
  112MOL   C10113643   4.404   1.763   7.190 -0.4193 -0.2429  0.3961
  112MOL   H10213644   4.341   1.848   7.166 -0.9753 -0.7194  0.1455
  112MOL   H10313645   4.330   1.684   7.174 -0.2334 -0.4782  0.6747
  112MOL   C10413646   4.523   1.758   7.094 -0.3277 -1.0415 -0.2833
  112MOL   F10513647   4.609   1.859   7.105  0.3762 -0.3680 -0.0626
  112MOL   F10613648   4.583   1.642   7.099 -0.3438 -0.1226 -0.0606
  112MOL   C10713649   4.478   1.769   6.948 -0.2983 -0.5206  0.5846
  112MOL   H10813650   4.435   1.868   6.931 -1.5861 -1.0177  0.9038
  112MOL   H10913651   4.394   1.701   6.930 -0.9453  0.7735 -1.4017
  112MOL   C11013652   4.578   1.719   6.835  0.2218  0.0953  1.0324
  112MOL   F11113653   4.635   1.610   6.862  0.4333 -0.1133 -0.2443
  112MOL   F11213654   4.507   1.691   6.727 -0.1289  0.7112  0.2049
  112MOL   C11313655   4.697   1.815   6.802  0.3306 -0.0057 -0.1297
  112MOL   H11413656   4.763   1.764   6.731  1.9295  0.0501  1.2786
  112MOL   H11513657   4.767   1.820   6.886  1.2773  0.7580 -0.9404
  112MOL   C11613658   4.650   1.954   6.755  0.1688  0.2384  0.6622
  112MOL   F11713659   4.558   1.948   6.660  0.3810 -0.5953 -0.3504
  112MOL   F11813660   4.597   2.015   6.864  0.0016  0.7698 -0.2878
  112MOL   C11913661   4.762   2.033   6.699 -0.2466  0.7438 -0.1378
  112MOL   H12013662   4.827   2.056   6.783 -0.5167 -2.0171  0.8507
  112MOL   H12113663   4.721   2.130   6.670 -1.8415 -0.1913 -1.1046
  112MOL   H12213664   4.817   1.998   6.612 -0.0275 -0.6611  0.5605
  113MOL     C113665   6.609   2.045   0.970 -0.6304  0.2462 -0.3683
  113MOL     F213666   6.596   1.923   0.916 -0.0588 -0.4750 -0.4590
  113MOL     F313667   6.612   2.141   0.878  0.5820 -0.5503  0.0419
  113MOL     C413668   6.746   2.068   1.041 -0.6849 -0.1027  0.2895
  113MOL     H513669   6.767   2.174   1.035 -0.6876  0.1259  3.5833
  113MOL     H613670   6.822   2.011   0.986  0.2810  1.2910  0.1546
  113MOL     H713671   6.523   2.064   1.035  0.9096  2.2163  1.1605
  113MOL     C813672   6.734   2.005   1.187  0.1329 -0.2017  0.4036
  113MOL     F913673   6.642   2.065   1.249 -0.0423  0.5768 -0.2992
  113MOL    F1013674   6.710   1.874   1.179 -0.2894 -0.3751 -0.4835
  113MOL    C1113675   6.856   2.048   1.277 -0.2030 -0.4083  0.5899
  113MOL    H1213676   6.853   1.989   1.369  0.5596 -0.1263  0.7982
  113MOL    H1313677   6.843   2.150   1.313 -0.5886  0.1885 -1.1932
  113MOL    C1413678   6.990   2.024   1.211 -0.3267 -0.7351  0.0608
  113MOL    F1513679   7.003   1.896   1.174  0.0775 -0.0684  0.1178
  113MOL    F1613680   7.002   2.102   1.102 -0.8897  0.4108  0.3116
  113MOL    C1713681   7.117   2.050   1.302 -0.0871 -0.2865 -0.0470
  113MOL    H1813682   7.208   2.045   1.241  0.2442 -0.1472  0.4346
  113MOL    H1913683   7.133   1.962   1.364  1.2750  0.0386  0.0778
  113MOL    C2013684   7.124   2.180   1.383  0.7889  1.1321  0.4678
  113MOL    F2113685   7.065   2.278   1.323 -0.2769  0.1123 -0.1153
  113MOL    F2213686   7.068   2.149   1.495  0.4599 -0.4662 -0.0480
  113MOL    C2313687   7.264   2.222   1.418 -0.4010 -0.6425 -0.4374
  113MOL    H2413688   7.310   2.257   1.325 -0.2990  1.0712  0.2395
  113MOL    H2513689   7.333   2.139   1.434 -1.0230 -1.2449 -0.8334
  113MOL    C2613690   7.295   2.342   1.506 -1.0705  0.0357  0.2652
  113MOL    F2713691   7.238   2.445   1.466 -0.0799 -0.1548  0.7991
  113MOL    F2813692   7.246   2.308   1.627 -0.2776  0.7871 -0.0288
  113MOL    C2913693   7.453   2.371   1.511  0.6056  0.2224  0.1636
  113MOL    H3013694   7.480   2.413   1.414 -2.0217 -1.2066 -1.2310
  113MOL    H3113695   7.514   2.284   1.535 -1.7269 -1.4200  0.3126
  113MOL    C3213696   7.499   2.487   1.603  0.5454  0.4052 -0.4365
  113MOL    F3313697   7.619   2.511   1.561  0.0508 -0.1111 -0.5218
  113MOL    F3413698   7.416   2.594   1.588  0.1051  0.5948 -0.1374
  113MOL    C3513699   7.501   2.448   1.748  0.1827  0.0010 -0.0588
  113MOL    H3613700   7.398   2.429   1.779 -0.3331  0.0310 -1.6992
  113MOL    H3713701   7.523   2.540   1.802  1.9905 -1.2600  1.3946
  113MOL    C3813702   7.609   2.356   1.803  0.1088 -0.3941 -0.1908
  113MOL    F3913703   7.604   2.233   1.754  0.1326 -0.2921  0.4451
  113MOL    F4013704   7.730   2.405   1.768 -0.1289 -0.1477 -0.4850
  113MOL    C4113705   7.606   2.333   1.953 -0.1551  0.0262 -0.3257
  113MOL    H4213706   7.674   2.256   1.992 -0.8322 -0.8718 -0.9018
  113MOL    H4313707   7.507   2.290   1.970  0.0513  0.2366  1.5661
  113MOL    C4413708   7.622   2.463   2.040  0.6658  0.1609 -0.1027
  113MOL    F4513709   7.723   2.535   1.993 -0.3738 -0.0703 -0.3214
  113MOL    F4613710   7.510   2.535   2.028  0.1989  0.2662  0.2340
  113MOL    C4713711   7.654   2.428   2.187 -0.3022  0.3586  0.0948
  113MOL    H4813712   7.750   2.378   2.206  0.8062  1.8408 -1.4816
  113MOL    H4913713   7.581   2.355   2.223 -0.5504  0.7330  0.3463
  113MOL    C5013714   7.642   2.539   2.289 -0.5302 -0.4436  0.4202
  113MOL    F5113715   7.522   2.599   2.289 -0.0035 -0.5464  0.1939
  113MOL    F5213716   7.661   2.465   2.402  0.7324  0.0050 -0.0370
  113MOL    C5313717   7.773   2.638   2.292  0.0612 -0.6834  0.4417
  113MOL    H5413718   7.791   2.685   2.195 -1.3079 -0.5632  0.2326
  113MOL    H5513719   7.862   2.577   2.309  0.9183  0.5894  0.6137
  113MOL    C5613720   7.780   2.751   2.390  0.2334  0.3853  0.1326
  113MOL    F5713721   7.675   2.827   2.386 -0.1902 -0.5046 -0.1119
  113MOL    F5813722   7.784   2.690   2.512 -0.0280 -0.3400  0.1490
  113MOL    C5913723   7.913   2.835   2.373 -0.0341 -0.1563 -0.2266
  113MOL    H6013724   7.920   2.888   2.278  1.7702  1.0668  0.5719
  113MOL    H6113725   7.994   2.762   2.364 -0.3457 -0.2529 -2.5301
  113MOL    C6213726   7.936   2.948   2.478 -0.1097 -0.2355 -0.4485
  113MOL    F6313727   7.954   2.901   2.606  0.4663 -0.5884 -0.1116
  113MOL    F6413728   8.045   3.009   2.450 -0.2404  0.1176  0.1930
  113MOL    C6513729   7.823   3.059   2.489 -0.5049  0.1194  0.4962
  113MOL    H6613730   7.833   3.114   2.582  0.7671  0.9428 -0.1111
  113MOL    H6713731   7.725   3.012   2.500  0.1996 -1.1191  1.5469
  113MOL    C6813732   7.831   3.161   2.377 -0.3034  0.2507  0.2163
  113MOL    F6913733   7.938   3.236   2.392  0.6369  0.5145  0.2602
  113MOL    F7013734   7.841   3.102   2.256 -0.2743  0.5233 -0.6553
  113MOL    C7113735   7.714   3.261   2.382 -0.5656 -0.0290 -0.4085
  113MOL    H7213736   7.691   3.295   2.483 -1.1071  0.0883 -0.5700
  113MOL    H7313737   7.625   3.208   2.349 -0.7838  0.6953 -1.0253
  113MOL    C7413738   7.724   3.393   2.292 -0.2056 -0.0453 -0.1008
  113MOL    F7513739   7.611   3.451   2.321  0.4169  0.4047 -0.2440
  113MOL    F7613740   7.821   3.474   2.328  0.0329 -0.3641  0.3578
  113MOL    C7713741   7.746   3.368   2.136  0.8378  0.0596 -0.4940
  113MOL    H7813742   7.827   3.297   2.116  1.7281  1.2598 -1.2202
  113MOL    H7913743   7.787   3.459   2.092 -0.0437  0.0921 -1.2694
  113MOL    C8013744   7.626   3.321   2.063 -0.4475  0.3840 -0.1890
  113MOL    F8113745   7.662   3.281   1.942  0.2551 -0.0583  0.1647
  113MOL    F8213746   7.578   3.213   2.113  0.2189  0.2678 -0.0431
  113MOL    C8313747   7.517   3.437   2.042 -0.6835 -0.2731  0.1262
  113MOL    H8413748   7.469   3.444   2.140 -0.8853  1.4463 -0.0761
  113MOL    H8513749   7.443   3.409   1.967  2.0840 -1.6097 -2.1834
  113MOL    C8613750   7.556   3.583   2.009  0.1519 -0.5121  0.0191
  113MOL    F8713751   7.653   3.638   2.083  0.1402  0.3535 -0.8420
  113MOL    F8813752   7.600   3.586   1.885  0.0765 -0.3212 -0.3541
  113MOL    C8913753   7.427   3.674   1.998 -0.2250 -0.2597 -0.1945
  113MOL    H9013754   7.387   3.686   2.098 -1.6525 -3.1782 -0.3644
  113MOL    H9113755   7.361   3.614   1.935  0.8489 -2.0135  0.3190
  113MOL    C9213756   7.437   3.810   1.921  0.7406 -0.2613 -0.1990
  113MOL    F9313757   7.470   3.784   1.790 -0.0899  0.0551 -0.0491
  113MOL    F9413758   7.312   3.861   1.936 -0.1453 -0.2168 -0.2325
  113MOL    C9513759   7.538   3.904   1.986  0.1378 -0.4716  0.3562
  113MOL    H9613760   7.636   3.855   1.991 -0.3646 -1.4874  0.3791
  113MOL    H9713761   7.496   3.923   2.085 -3.9115  2.3308 -1.7747
  113MOL    C9813762   7.551   4.040   1.912  0.9197  0.0356 -0.0683
  113MOL    F9913763   7.606   4.019   1.789  0.2265 -0.6444 -0.2217
  113MOL   F10013764   7.429   4.089   1.915  0.5275 -0.4352  0.1970
  113MOL   C10113765   7.652   4.135   1.989 -0.0878 -0.3040  0.2027
  113MOL   H10213766   7.754   4.102   1.970 -0.3974 -1.0234 -0.2095
  113MOL   H10313767   7.626   4.139   2.094 -1.8637  0.9146 -0.2561
  113MOL   C10413768   7.644   4.281   1.945 -0.2458  0.0019 -0.6785
  113MOL   F10513769   7.634   4.296   1.817 -0.7282  0.1402 -0.1750
  113MOL   F10613770   7.539   4.342   2.001  0.2465  0.5672  0.0589
  113MOL   C10713771   7.766   4.360   1.996 -0.1926  1.2800 -0.3452
  113MOL   H10813772   7.852   4.318   1.944 -0.8528  1.3691 -1.5510
  113MOL   H10913773   7.786   4.318   2.094 -2.6293  1.0096  0.0763
  113MOL   C11013774   7.762   4.510   2.018 -0.4890 -0.6972  0.6147
  113MOL   F11113775   7.694   4.544   2.126 -0.1201  0.2191 -0.5725
  113MOL   F11213776   7.891   4.536   2.036 -0.2920  0.0337  0.0329
  113MOL   C11313777   7.717   4.600   1.894 -0.1927 -0.0577 -0.1682
  113MOL   H11413778   7.614   4.572   1.872 -0.6223  0.9312  0.5609
  113MOL   H11513779   7.776   4.557   1.814 -0.5994 -0.3167 -0.3295
  113MOL   C11613780   7.741   4.754   1.893 -0.3317 -0.1951  0.1945
  113MOL   F11713781   7.675   4.822   1.989 -0.3006  0.0414  0.3706
  113MOL   F11813782   7.869   4.776   1.902 -0.1304 -0.4197 -0.3539
  113MOL   C11913783   7.691   4.828   1.769  0.3641 -0.9036  0.0270
  113MOL   H12013784   7.700   4.937   1.768 -0.0185 -0.7967  3.1873
  113MOL   H12113785   7.585   4.808   1.754  0.1393  0.1429  0.1827
  113MOL   H12213786   7.736   4.792   1.677 -0.0301  0.2086 -0.6166
  114MOL     C113787   5.617   7.609   0.930 -0.3370 -0.0225 -0.2139
  114MOL     F213788   5.601   7.471   0.914 -0.1060  0.3036  0.2960
  114MOL     F313789   5.692   7.624   1.041  0.2963  0.6213 -0.6770
  114MOL     C413790   5.477   7.674   0.953 -0.5663  0.5447 -0.0424
  114MOL     H513791   5.491   7.771   1.000  0.1647  1.5235 -2.1896
  114MOL     H613792   5.431   7.602   1.020 -1.0159  1.1535  0.3052
  114MOL     H713793   5.675   7.655   0.849 -0.1403 -0.2805 -0.2195
  114MOL     C813794   5.398   7.701   0.819  0.0002 -0.6736 -0.6519
  114MOL     F913795   5.458   7.794   0.746  0.0602 -0.0013 -0.1574
  114MOL    F1013796   5.395   7.592   0.755  0.0701 -0.7884  0.5273
  114MOL    C1113797   5.245   7.729   0.839  0.0226 -0.3618  0.1698
  114MOL    H1213798   5.206   7.633   0.872  2.1340 -1.5367 -0.6228
  114MOL    H1313799   5.208   7.748   0.739  1.1130 -0.8624 -0.3411
  114MOL    C1413800   5.203   7.852   0.920 -0.1854  0.3128  0.4742
  114MOL    F1513801   5.275   7.857   1.039  0.3407  0.2959 -0.5430
  114MOL    F1613802   5.246   7.959   0.847  0.4451 -0.2503 -0.4669
  114MOL    C1713803   5.057   7.859   0.957 -0.2400  0.0767 -1.0731
  114MOL    H1813804   5.039   7.961   0.991 -0.3615  1.0113 -3.7910
  114MOL    H1913805   5.040   7.786   1.035 -1.8540 -1.2216 -2.5921
  114MOL    C2013806   4.949   7.819   0.847 -0.9464 -0.2390  0.3113
  114MOL    F2113807   4.984   7.876   0.737 -0.0505 -0.3133 -0.2686
  114MOL    F2213808   4.949   7.684   0.828 -0.1876 -0.1833  0.0120
  114MOL    C2313809   4.808   7.881   0.884 -0.3476  0.0543  0.3716
  114MOL    H2413810   4.815   7.988   0.901  1.8781  0.7776 -4.3341
  114MOL    H2513811   4.773   7.829   0.973 -1.4770 -1.8709 -1.1198
  114MOL    C2613812   4.697   7.868   0.776  0.0611  0.4584  0.2433
  114MOL    F2713813   4.590   7.924   0.815 -0.5255  0.1103  0.3285
  114MOL    F2813814   4.735   7.936   0.669 -0.1980 -0.0345 -0.7980
  114MOL    C2913815   4.666   7.735   0.707  0.0258 -0.7724 -0.4251
  114MOL    H3013816   4.754   7.686   0.666  0.3987  0.0220 -0.6056
  114MOL    H3113817   4.601   7.750   0.621  0.9300 -0.4921 -1.0675
  114MOL    C3213818   4.614   7.631   0.810  0.4795 -0.3668  0.0606
  114MOL    F3313819   4.712   7.585   0.887  0.3874  0.3134 -0.1888
  114MOL    F3413820   4.521   7.694   0.884 -0.2131 -0.4865  1.1712
  114MOL    C3513821   4.527   7.524   0.739 -0.0161  0.1664  0.0015
  114MOL    H3613822   4.448   7.578   0.687  0.1674  0.7839  0.3589
  114MOL    H3713823   4.474   7.473   0.819  0.2507 -0.3280 -0.1310
  114MOL    C3813824   4.603   7.428   0.645 -0.0754  0.1478 -0.5836
  114MOL    F3913825   4.639   7.508   0.545  0.0079 -0.1612 -0.3576
  114MOL    F4013826   4.713   7.388   0.709 -0.1021 -0.3572  0.2096
  114MOL    C4113827   4.519   7.311   0.588  0.4267 -0.5256 -0.0464
  114MOL    H4213828   4.482   7.256   0.675 -1.4997  2.0789  0.8522
  114MOL    H4313829   4.587   7.238   0.543  0.4299 -0.9617  0.6458
  114MOL    C4413830   4.414   7.351   0.481  0.9784  0.0813  0.6841
  114MOL    F4513831   4.322   7.436   0.535  0.3392  0.2679  0.1639
  114MOL    F4613832   4.480   7.395   0.370 -0.6199 -0.4732  0.2390
  114MOL    C4713833   4.326   7.230   0.440  0.0406  0.3475 -0.1575
  114MOL    H4813834   4.286   7.175   0.525 -1.7064  0.1261 -1.0975
  114MOL    H4913835   4.393   7.153   0.401  0.4549  0.3563  0.5286
  114MOL    C5013836   4.225   7.266   0.332 -0.0704  0.3051 -0.7401
  114MOL    F5113837   4.289   7.320   0.220 -0.0187 -0.8491  0.2473
  114MOL    F5213838   4.169   7.149   0.298 -0.1494  0.0878  0.5102
  114MOL    C5313839   4.101   7.352   0.379  0.2426 -0.4683 -0.6815
  114MOL    H5413840   4.129   7.455   0.402 -0.8969 -0.5391  1.1048
  114MOL    H5513841   4.063   7.316   0.475  1.7817  0.9077  0.4699
  114MOL    C5613842   3.987   7.376   0.274  0.1377  0.2822 -0.0120
  114MOL    F5713843   3.937   7.252   0.261  0.2656  0.1120 -0.5981
  114MOL    F5813844   3.897   7.454   0.336  0.4339 -0.3356 -0.0980
  114MOL    C5913845   4.034   7.429   0.136  0.0813 -0.6196 -0.5403
  114MOL    H6013846   3.943   7.424   0.077 -2.0549  1.6125  2.4490
  114MOL    H6113847   4.104   7.359   0.090  0.8999 -0.7704  0.9085
  114MOL    C6213848   4.086   7.569   0.136 -0.7262 -1.1851 -0.8469
  114MOL    F6313849   4.019   7.643   0.224  0.2998 -0.1723  0.6968
  114MOL    F6413850   4.218   7.573   0.175  0.0204  0.3321 -0.5304
  114MOL    C6513851   4.063   7.641   8.349 -0.3848  0.0266 -0.0139
  114MOL    H6613852   4.100   7.743   8.344  1.5836 -0.7372 -1.8916
  114MOL    H6713853   3.957   7.657   8.330  0.0644  0.2658 -2.5896
  114MOL    C6813854   4.109   7.575   8.216  0.5633  0.2477 -0.0370
  114MOL    F6913855   4.035   7.462   8.193  0.0580 -0.4192  0.1313
  114MOL    F7013856   4.068   7.653   8.113  0.0168 -0.0789 -0.5571
  114MOL    C7113857   4.253   7.534   8.215  0.5952 -1.0209  0.2014
  114MOL    H7213858   4.273   7.475   8.126 -0.8264  0.2657 -0.9958
  114MOL    H7313859   4.274   7.459   8.291 -1.4725 -0.7608  1.0519
  114MOL    C7413860   4.353   7.653   8.212  0.5074 -0.5538 -0.3673
  114MOL    F7513861   4.345   7.717   8.334  0.1616 -0.2567 -0.3842
  114MOL    F7613862   4.467   7.588   8.216 -0.3802  0.0423 -0.0304
  114MOL    C7713863   4.340   7.754   8.094 -0.0180 -0.1632  0.2024
  114MOL    H7813864   4.420   7.828   8.106  0.2818 -0.2098 -1.4179
  114MOL    H7913865   4.253   7.819   8.109  0.1462 -0.4982  2.9316
  114MOL    C8013866   4.349   7.692   7.947 -0.0348  0.4607 -0.3244
  114MOL    F8113867   4.257   7.601   7.931 -0.3451  0.3126 -0.0341
  114MOL    F8213868   4.315   7.797   7.871 -0.1372  0.6146  0.2214
  114MOL    C8313869   4.488   7.640   7.910  0.3895 -0.4996 -0.5093
  114MOL    H8413870   4.521   7.575   7.991  0.0005 -0.0191  0.0360
  114MOL    H8513871   4.544   7.733   7.917 -0.8973  0.2414  0.2354
  114MOL    C8613872   4.527   7.563   7.782  0.5643  1.3315 -0.0944
  114MOL    F8713873   4.548   7.653   7.688  0.3284  0.6641  0.3132
  114MOL    F8813874   4.643   7.496   7.811  0.0386  0.1433  0.3128
  114MOL    C8913875   4.423   7.451   7.732  0.6947 -0.2368 -0.4069
  114MOL    H9013876   4.464   7.420   7.636  1.8651  1.4497 -0.4780
  114MOL    H9113877   4.335   7.508   7.703  1.6572  0.7385 -1.4459
  114MOL    C9213878   4.390   7.331   7.830 -0.1638  0.4330 -0.8321
  114MOL    F9313879   4.488   7.236   7.808  0.4250  0.1678  0.5020
  114MOL    F9413880   4.404   7.369   7.957 -0.1483 -0.0464 -0.3667
  114MOL    C9513881   4.247   7.282   7.807 -0.3947 -0.0596 -0.2336
  114MOL    H9613882   4.238   7.248   7.704  1.8730  0.0828 -0.5023
  114MOL    H9713883   4.173   7.361   7.821  0.6239  0.8979 -0.1913
  114MOL    C9813884   4.190   7.167   7.903 -0.5432 -0.8766 -0.4149
  114MOL    F9913885   4.283   7.067   7.903  0.6772 -0.8076  0.5908
  114MOL   F10013886   4.176   7.212   8.025 -0.1791 -0.7001 -0.4587
  114MOL   C10113887   4.061   7.108   7.867  0.0990 -0.0580 -1.4204
  114MOL   H10213888   4.042   7.032   7.942  1.2405 -3.7424 -4.7056
  114MOL   H10313889   4.068   7.043   7.779  0.3457 -1.2176 -0.5444
  114MOL   C10413890   3.935   7.200   7.856  0.7122 -0.3153  0.2398
  114MOL   F10513891   3.948   7.270   7.738 -0.3692  1.5403  0.6308
  114MOL   F10613892   3.837   7.113   7.837 -0.2290 -0.5193 -0.2708
  114MOL   C10713893   3.923   7.290   7.972  0.3348 -0.1216  0.0767
  114MOL   H10813894   3.999   7.366   7.955  0.2035  0.4266  1.7877
  114MOL   H10913895   3.946   7.237   8.065 -2.0618  0.5325  1.0901
  114MOL   C11013896   3.788   7.367   7.976 -0.1897 -0.1942  0.2726
  114MOL   F11113897   3.685   7.283   7.976  0.1565  0.8133 -0.6433
  114MOL   F11213898   3.772   7.437   8.088 -0.1493  0.5964  0.2439
  114MOL   C11313899   3.772   7.478   7.866 -0.0963 -0.0662 -0.0969
  114MOL   H11413900   3.801   7.451   7.764  0.5144  5.2825 -1.5100
  114MOL   H11513901   3.843   7.556   7.893 -0.1959  0.4748 -1.3618
  114MOL   C11613902   3.636   7.549   7.868 -0.2136 -0.0828  0.2209
  114MOL   F11713903   3.534   7.473   7.849  0.0899  0.0291  0.6427
  114MOL   F11813904   3.613   7.617   7.979 -0.2599  0.5060  0.4606
  114MOL   C11913905   3.625   7.640   7.757 -0.0540  0.3049  0.4582
  114MOL   H12013906   3.607   7.590   7.662 -0.9916 -0.5778  1.0930
  114MOL   H12113907   3.713   7.703   7.744 -0.8446  1.0785 -1.3540
  114MOL   H12213908   3.544   7.712   7.768 -0.7586 -0.5777  1.1084
  115MOL     C113909   4.252   5.882   4.036  0.2533  0.1362  0.3648
  115MOL     F213910   4.256   5.828   4.161 -0.1812 -0.5027 -0.5766
  115MOL     F313911   4.212   5.786   3.956 -0.1756 -0.0179  0.6515
  115MOL     C413912   4.390   5.931   4.003 -0.1337 -0.3264 -0.5697
  115MOL     H513913   4.465   5.852   3.992  0.7984  0.8317 -2.8435
  115MOL     H613914   4.426   5.988   4.089  1.8730 -0.3890 -1.3433
  115MOL     H713915   4.185   5.968   4.033 -1.2371 -0.9728  1.2446
  115MOL     C813916   4.407   6.027   3.886 -0.2667  0.0398 -0.5365
  115MOL     F913917   4.305   6.111   3.887  0.1703  0.0064 -0.1495
  115MOL    F1013918   4.519   6.097   3.910  0.0848 -0.3681  0.0098
  115MOL    C1113919   4.431   5.946   3.751 -0.1890 -0.4572  0.5724
  115MOL    H1213920   4.349   5.875   3.740 -0.4557 -0.1848  0.8131
  115MOL    H1313921   4.518   5.881   3.766 -0.2145 -0.6400 -0.0491
  115MOL    C1413922   4.471   6.035   3.625 -0.1886  0.5452 -0.2691
  115MOL    F1513923   4.372   6.130   3.620  0.0225 -0.1313 -0.0591
  115MOL    F1613924   4.594   6.091   3.644  0.0498  0.3669  0.1723
  115MOL    C1713925   4.458   5.959   3.493  0.0459  0.3054  0.4100
  115MOL    H1813926   4.355   5.924   3.484 -0.6355  1.8073  2.0503
  115MOL    H1913927   4.524   5.873   3.490  1.0968  1.1112  0.3313
  115MOL    C2013928   4.509   6.028   3.362 -0.3036 -0.2230  0.5085
  115MOL    F2113929   4.638   6.057   3.381 -0.0992 -0.5198  0.6764
  115MOL    F2213930   4.495   5.944   3.263  0.1375 -1.1459  0.2042
  115MOL    C2313931   4.422   6.156   3.334  0.0023 -0.4765 -0.3444
  115MOL    H2413932   4.453   6.222   3.414  0.5905 -1.1076 -0.0425
  115MOL    H2513933   4.315   6.138   3.347 -0.3372  1.7954  0.1670
  115MOL    C2613934   4.445   6.225   3.198 -1.0735 -0.5640 -1.1057
  115MOL    F2713935   4.569   6.254   3.187 -0.2735  0.2185 -0.1805
  115MOL    F2813936   4.418   6.133   3.098 -0.1547  0.4331 -0.2062
  115MOL    C2913937   4.372   6.364   3.187 -0.0086 -0.3470  0.5241
  115MOL    H3013938   4.395   6.415   3.280 -3.8448  0.6936  1.0223
  115MOL    H3113939   4.264   6.353   3.200  0.1027  0.7110  2.5605
  115MOL    C3213940   4.398   6.436   3.055 -0.3116 -0.3047 -0.5063
  115MOL    F3313941   4.527   6.479   3.063  0.4244 -0.2940  0.0723
  115MOL    F3413942   4.366   6.365   2.953 -0.2076  0.1355 -0.0880
  115MOL    C3513943   4.324   6.568   3.033 -0.1320  0.0766  0.2639
  115MOL    H3613944   4.346   6.641   3.110  0.1907 -0.2372  0.4705
  115MOL    H3713945   4.217   6.548   3.044 -0.3264  1.6045  1.2921
  115MOL    C3813946   4.350   6.634   2.897  0.4225  0.1074 -0.5888
  115MOL    F3913947   4.293   6.554   2.813  0.0508  0.0997 -0.0753
  115MOL    F4013948   4.269   6.740   2.908  0.6114 -0.1187 -0.2000
  115MOL    C4113949   4.494   6.676   2.871  0.0836 -0.7635 -0.0477
  115MOL    H4213950   4.545   6.583   2.845 -0.0892 -1.2517  1.2981
  115MOL    H4313951   4.548   6.713   2.958 -0.3046  1.6072 -0.7780
  115MOL    C4413952   4.515   6.771   2.750 -0.2799  0.1170  0.5153
  115MOL    F4513953   4.642   6.755   2.722 -0.1443 -0.2760 -0.3548
  115MOL    F4613954   4.442   6.727   2.649 -0.1818  0.8325  0.6630
  115MOL    C4713955   4.487   6.923   2.777  0.1878  0.0146  0.2838
  115MOL    H4813956   4.379   6.931   2.790 -0.3842 -2.3767 -2.6072
  115MOL    H4913957   4.508   6.970   2.682 -1.3736  1.4678  0.6307
  115MOL    C5013958   4.573   6.991   2.893  0.1296  0.0308  0.3998
  115MOL    F5113959   4.555   6.927   3.001 -0.0424 -0.0274  0.3632
  115MOL    F5213960   4.704   6.981   2.869  0.4364  0.2366  0.2488
  115MOL    C5313961   4.529   7.141   2.920  0.7540 -0.1167  0.8315
  115MOL    H5413962   4.573   7.214   2.852  2.1408 -1.5445  0.1418
  115MOL    H5513963   4.583   7.166   3.011 -1.2065  0.0654  1.9627
  115MOL    C5613964   4.377   7.173   2.936 -0.3481 -0.0355  0.3362
  115MOL    F5713965   4.379   7.303   2.967 -0.0731  0.0411  0.2522
  115MOL    F5813966   4.309   7.151   2.827  0.5736 -0.6258  0.0488
  115MOL    C5913967   4.294   7.092   3.037 -0.3479 -0.0791 -0.0180
  115MOL    H6013968   4.272   6.987   3.015 -1.6003 -0.0889  1.1657
  115MOL    H6113969   4.190   7.126   3.034 -0.6888 -0.9804  1.0052
  115MOL    C6213970   4.341   7.112   3.183 -0.0011 -0.2524  0.2289
  115MOL    F6313971   4.470   7.075   3.192 -0.1946 -0.7474  0.5893
  115MOL    F6413972   4.334   7.240   3.211 -0.4221  0.1206 -0.3181
  115MOL    C6513973   4.258   7.036   3.290 -0.1810 -0.7572  0.2312
  115MOL    H6613974   4.158   7.079   3.275  0.1092 -0.3036 -0.4261
  115MOL    H6713975   4.285   7.073   3.389 -0.0808  1.3291 -0.5479
  115MOL    C6813976   4.258   6.883   3.284  0.3608 -0.2989 -0.2927
  115MOL    F6913977   4.177   6.849   3.187  0.4667  0.2064  0.6903
  115MOL    F7013978   4.385   6.841   3.265  0.2059  0.2252  0.0105
  115MOL    C7113979   4.197   6.819   3.408 -0.1101  0.1824 -0.7313
  115MOL    H7213980   4.090   6.837   3.415 -0.2775 -0.5880 -1.2439
  115MOL    H7313981   4.234   6.870   3.497  0.6613 -0.9089 -0.4214
  115MOL    C7413982   4.229   6.657   3.413 -0.0948 -0.4759 -0.4892
  115MOL    F7513983   4.147   6.617   3.318 -0.1147  0.4083  0.0512
  115MOL    F7613984   4.360   6.628   3.391 -0.0310  0.2575  0.2691
  115MOL    C7713985   4.176   6.604   3.547 -0.2853  0.4297 -0.4615
  115MOL    H7813986   4.090   6.663   3.578 -0.0473  0.3736  0.2976
  115MOL    H7913987   4.250   6.634   3.621 -1.2085 -0.1561  0.7232
  115MOL    C8013988   4.156   6.453   3.562  0.2641  0.7283 -0.1448
  115MOL    F8113989   4.045   6.421   3.498  0.4414  0.4336  0.2273
  115MOL    F8213990   4.252   6.376   3.516  0.4552  0.1668 -0.5336
  115MOL    C8313991   4.130   6.401   3.706  0.9160 -0.5196  0.1159
  115MOL    H8413992   4.218   6.416   3.768  1.7540  0.0378 -1.2044
  115MOL    H8513993   4.119   6.293   3.697 -2.4719 -0.5503  3.1096
  115MOL    C8613994   3.998   6.464   3.769  0.0859  0.1178  0.2691
  115MOL    F8713995   4.014   6.587   3.792 -0.3285  0.2765 -0.0928
  115MOL    F8813996   3.898   6.433   3.695  0.2940  0.0019  0.1184
  115MOL    C8913997   3.957   6.405   3.906 -0.1127 -0.9103  0.0435
  115MOL    H9013998   4.034   6.430   3.979  0.6495 -0.4600 -0.9059
  115MOL    H9113999   3.959   6.296   3.896 -2.5544 -0.8146 -2.3814
  115MOL    C9214000   3.807   6.436   3.954 -0.2274  0.0897  0.4227
  115MOL    F9314001   3.710   6.366   3.897 -0.1154 -0.4485 -0.4050
  115MOL    F9414002   3.798   6.399   4.082 -0.1508  0.1483  0.4564
  115MOL    C9514003   3.775   6.592   3.948 -0.3610  0.3401  0.2105
  115MOL    H9614004   3.794   6.618   3.844 -1.6399  0.3648 -0.0144
  115MOL    H9714005   3.849   6.633   4.018 -1.3792 -0.1430  1.5870
  115MOL    C9814006   3.627   6.633   3.990 -0.0211  0.0013 -0.5143
  115MOL    F9914007   3.545   6.635   3.882 -0.1937 -0.3637 -0.0913
  115MOL   F10014008   3.578   6.555   4.084  0.2546 -0.0647 -0.0903
  115MOL   C10114009   3.625   6.772   4.053 -0.0769 -1.3669  0.2240
  115MOL   H10214010   3.673   6.855   4.002 -1.7984  0.2202  1.1489
  115MOL   H10314011   3.664   6.767   4.155  1.4427 -0.3794 -0.2984
  115MOL   C10414012   3.481   6.819   4.084 -0.9295  0.0685 -0.3355
  115MOL   F10514013   3.507   6.944   4.110 -0.2256  0.2843 -0.1250
  115MOL   F10614014   3.399   6.810   3.980 -0.4783 -0.2254 -0.1933
  115MOL   C10714015   3.422   6.754   4.209  0.0236 -1.1022 -0.1605
  115MOL   H10814016   3.497   6.760   4.288  0.3888  0.5042 -0.6092
  115MOL   H10914017   3.408   6.647   4.193 -0.9865 -1.2159  1.2955
  115MOL   C11014018   3.279   6.807   4.255 -0.3094 -0.2372  0.3578
  115MOL   F11114019   3.195   6.783   4.154 -0.0006  0.1043  0.1398
  115MOL   F11214020   3.232   6.735   4.354  0.7586 -0.0440 -0.0596
  115MOL   C11314021   3.263   6.950   4.292 -0.1372  0.2035 -0.0456
  115MOL   H11414022   3.158   6.978   4.284  0.4616  2.4413 -0.4164
  115MOL   H11514023   3.293   7.014   4.209 -1.6387 -1.1051 -1.6196
  115MOL   C11614024   3.325   6.991   4.429  0.5182 -0.1460 -0.6450
  115MOL   F11714025   3.251   6.946   4.535  0.4277  0.2650  0.4002
  115MOL   F11814026   3.446   6.940   4.447 -0.2001 -0.8712 -0.0039
  115MOL   C11914027   3.318   7.143   4.426  0.1885  0.4692 -0.5680
  115MOL   H12014028   3.377   7.182   4.343  0.3376  0.7495 -0.3320
  115MOL   H12114029   3.352   7.170   4.526 -1.3657 -1.4016  0.5026
  115MOL   H12214030   3.214   7.174   4.418  0.4603  1.0894 -2.0058
  116MOL     C114031   4.955   0.326   6.292 -0.4050  0.3934 -0.0148
  116MOL     F214032   4.832   0.372   6.259 -0.1110 -0.5856  0.3866
  116MOL     F314033   4.956   0.189   6.286  0.1515 -0.3446  0.2914
  116MOL     C414034   4.994   0.373   6.435  0.7736 -0.3860  0.2490
  116MOL     H514035   4.924   0.331   6.508 -0.8330  2.0258  0.1468
  116MOL     H614036   4.990   0.482   6.436 -0.6314 -0.4196 -0.3060
  116MOL     H714037   5.029   0.362   6.221 -2.4246  3.2638 -0.7678
  116MOL     C814038   5.138   0.324   6.464 -0.6027 -0.5353  0.8039
  116MOL     F914039   5.150   0.185   6.452 -0.0754  0.1467 -0.5322
  116MOL    F1014040   5.216   0.381   6.368 -0.3300 -0.6614 -0.0207
  116MOL    C1114041   5.180   0.373   6.606 -0.2523 -0.1826 -0.7624
  116MOL    H1214042   5.096   0.343   6.668 -1.3214  2.2852 -0.9567
  116MOL    H1314043   5.177   0.482   6.597 -3.9730 -0.3040 -2.1459
  116MOL    C1414044   5.306   0.322   6.676 -0.8477 -0.2700 -0.8048
  116MOL    F1514045   5.339   0.398   6.781  0.0598 -0.3122  0.4634
  116MOL    F1614046   5.286   0.195   6.709  0.8727 -0.2609  0.4785
  116MOL    C1714047   5.426   0.318   6.577  0.7148  0.6308  0.1039
  116MOL    H1814048   5.449   0.418   6.542  0.1167  0.3600 -1.1120
  116MOL    H1914049   5.405   0.261   6.486  2.1670 -0.2017  0.2866
  116MOL    C2014050   5.556   0.251   6.634 -0.5086  0.9278 -0.6603
  116MOL    F2114051   5.532   0.117   6.654  0.3442 -0.2966  0.5342
  116MOL    F2214052   5.645   0.261   6.532 -0.6905  0.7997  0.3077
  116MOL    C2314053   5.615   0.315   6.756 -0.6219 -0.0261 -0.0070
  116MOL    H2414054   5.708   0.264   6.780 -1.5185 -1.0306  1.4224
  116MOL    H2514055   5.542   0.323   6.837 -0.2487  3.8471  0.0356
  116MOL    C2614056   5.663   0.456   6.740  0.2951 -0.5772  0.1684
  116MOL    F2714057   5.739   0.462   6.628 -0.0847 -0.1177  0.5396
  116MOL    F2814058   5.555   0.530   6.723 -0.1324 -0.3442 -0.0004
  116MOL    C2914059   5.740   0.494   6.869  0.0522 -0.3386 -0.4596
  116MOL    H3014060   5.831   0.434   6.875  0.3695 -0.1358 -2.7788
  116MOL    H3114061   5.684   0.470   6.959 -0.5028 -0.9239 -0.9602
  116MOL    C3214062   5.785   0.648   6.883 -0.5564  0.3335  0.7625
  116MOL    F3314063   5.688   0.724   6.933  0.0052  0.7368  0.4659
  116MOL    F3414064   5.889   0.642   6.964 -0.4421 -0.0965  0.4384
  116MOL    C3514065   5.844   0.710   6.757 -0.8015 -0.8312  0.5787
  116MOL    H3614066   5.765   0.731   6.685 -0.2611 -1.8302 -0.3252
  116MOL    H3714067   5.895   0.627   6.708  1.6590  1.2235 -0.4741
  116MOL    C3814068   5.927   0.842   6.773  0.4869  0.0030  0.5417
  116MOL    F3914069   6.049   0.805   6.802  0.2877 -0.1157  0.0531
  116MOL    F4014070   5.921   0.893   6.650 -0.0191 -0.0628 -0.1692
  116MOL    C4114071   5.874   0.943   6.878  0.0296  0.6578 -0.2268
  116MOL    H4214072   5.889   0.903   6.978 -0.9488  0.3524 -0.1952
  116MOL    H4314073   5.768   0.958   6.856  0.3313 -0.2038 -2.3630
  116MOL    C4414074   5.936   1.083   6.878  0.2643  0.3989 -0.4308
  116MOL    F4514075   5.919   1.127   6.757  0.1347 -0.2387 -0.3671
  116MOL    F4614076   5.851   1.144   6.961 -0.2906 -0.6321 -0.4952
  116MOL    C4714077   6.076   1.091   6.933 -0.9728 -0.8224  0.6115
  116MOL    H4814078   6.141   1.035   6.866 -0.0784  0.2741  0.5555
  116MOL    H4914079   6.073   1.039   7.029 -0.7997 -2.3636 -0.1976
  116MOL    C5014080   6.143   1.230   6.950  0.3844 -0.5733 -0.1316
  116MOL    F5114081   6.083   1.283   7.062 -0.3663  0.5044 -0.1131
  116MOL    F5214082   6.266   1.189   6.979  0.7837  0.2401  0.3276
  116MOL    C5314083   6.138   1.323   6.828 -0.4405  0.2742  0.0433
  116MOL    H5414084   6.035   1.341   6.796 -0.1454 -0.9874 -1.7092
  116MOL    H5514085   6.174   1.265   6.743  0.0032 -1.8774  1.6573
  116MOL    C5614086   6.220   1.454   6.851 -0.4494 -1.1614 -0.0824
  116MOL    F5714087   6.344   1.432   6.899 -0.2089  0.1158  0.0708
  116MOL    F5814088   6.239   1.514   6.734  0.1681 -0.2905  0.0151
  116MOL    C5914089   6.165   1.547   6.963  0.9342  0.1782 -0.1280
  116MOL    H6014090   6.234   1.631   6.972 -0.2288  1.4592 -2.6580
  116MOL    H6114091   6.169   1.501   7.061 -0.7092  0.3372  0.0254
  116MOL    C6214092   6.023   1.611   6.948  0.1008  0.0016 -0.5069
  116MOL    F6314093   5.939   1.514   6.980 -0.4333 -0.0459  0.1582
  116MOL    F6414094   5.996   1.710   7.036 -0.5186  0.4599  0.2821
  116MOL    C6514095   5.982   1.654   6.807  0.6952 -0.2979 -0.8983
  116MOL    H6614096   5.874   1.664   6.803  0.5904 -0.9027  0.1604
  116MOL    H6714097   6.018   1.579   6.738  1.3898 -0.7228 -0.0908
  116MOL    C6814098   6.045   1.792   6.770  0.6870 -0.8420  0.3211
  116MOL    F6914099   5.986   1.888   6.839  0.1164 -0.5310  0.2456
  116MOL    F7014100   6.181   1.787   6.788 -0.7100 -0.4239  0.0564
  116MOL    C7114101   6.029   1.832   6.621 -0.0673  0.2588 -0.5161
  116MOL    H7214102   6.094   1.768   6.561  0.0555  1.0422 -1.2157
  116MOL    H7314103   6.049   1.937   6.603 -2.2306  1.0247  1.2194
  116MOL    C7414104   5.887   1.815   6.554  0.4115 -0.3811 -0.3301
  116MOL    F7514105   5.868   1.679   6.551 -0.2722  0.0967  0.0370
  116MOL    F7614106   5.805   1.868   6.637 -0.3971  0.0702  0.2745
  116MOL    C7714107   5.873   1.871   6.416 -0.0947  0.3704 -0.1014
  116MOL    H7814108   5.948   1.831   6.348 -3.3850 -1.0701 -3.0461
  116MOL    H7914109   5.892   1.978   6.418  2.0329 -0.0110  0.9492
  116MOL    C8014110   5.745   1.856   6.326  0.4918 -0.7275 -0.4708
  116MOL    F8114111   5.768   1.906   6.208 -0.0559 -0.4611  0.1789
  116MOL    F8214112   5.721   1.721   6.324 -0.1561  0.0217  0.2066
  116MOL    C8314113   5.625   1.938   6.383 -0.0692 -0.2961 -0.0290
  116MOL    H8414114   5.652   2.044   6.381  1.7784 -0.6729  2.6629
  116MOL    H8514115   5.634   1.918   6.490 -0.0057  1.5588  0.3308
  116MOL    C8614116   5.488   1.912   6.313  0.5469 -0.7215 -0.3045
  116MOL    F8714117   5.502   1.933   6.178  0.0755  0.4530 -0.4850
  116MOL    F8814118   5.454   1.785   6.330 -0.4396 -0.8264  0.0029
  116MOL    C8914119   5.385   2.010   6.373 -0.2478 -0.1056 -0.0435
  116MOL    H9014120   5.289   2.004   6.323 -0.6719 -0.7750  0.8425
  116MOL    H9114121   5.420   2.112   6.361 -1.1849  0.2574  0.2933
  116MOL    C9214122   5.354   2.008   6.523 -0.0973  0.2044 -0.1415
  116MOL    F9314123   5.458   2.062   6.597 -0.3221  0.0334  0.3350
  116MOL    F9414124   5.245   2.086   6.533  0.0248 -0.3490 -0.4464
  116MOL    C9514125   5.313   1.867   6.584 -0.1059  0.0155  0.2046
  116MOL    H9614126   5.403   1.807   6.576  0.8385  1.5677 -1.1921
  116MOL    H9714127   5.239   1.828   6.514  0.3829  1.2314 -1.0114
  116MOL    C9814128   5.243   1.868   6.720  0.1770  0.3971  0.3465
  116MOL    F9914129   5.135   1.946   6.713 -0.0884 -0.0495  0.9096
  116MOL   F10014130   5.206   1.739   6.747  0.4026 -0.6869 -0.5902
  116MOL   C10114131   5.323   1.908   6.844 -0.2950 -0.0825  0.1210
  116MOL   H10214132   5.255   1.908   6.930  0.9476 -3.2237  1.1654
  116MOL   H10314133   5.361   2.010   6.850  1.1050 -0.6426  1.2292
  116MOL   C10414134   5.452   1.822   6.884  0.4551 -0.5868  0.5861
  116MOL   F10514135   5.413   1.695   6.878 -0.0416 -0.5556 -0.9228
  116MOL   F10614136   5.535   1.848   6.785  0.3017 -0.7010  0.0021
  116MOL   C10714137   5.504   1.856   7.023  0.2698  0.2102  0.3092
  116MOL   H10814138   5.436   1.819   7.100  1.8865 -3.2967  0.1715
  116MOL   H10914139   5.520   1.963   7.023 -0.4921  0.3244  0.6284
  116MOL   C11014140   5.643   1.798   7.064 -0.3615  0.7643 -0.0644
  116MOL   F11114141   5.742   1.836   6.989 -0.0186  0.1456  0.0239
  116MOL   F11214142   5.671   1.838   7.189  0.4386  0.3439 -0.0934
  116MOL   C11314143   5.645   1.649   7.049  0.0464  0.3556 -0.0252
  116MOL   H11414144   5.750   1.633   7.074  0.2289  1.1390 -0.2663
  116MOL   H11514145   5.627   1.623   6.945 -0.2258 -1.5282  0.4705
  116MOL   C11614146   5.548   1.561   7.141  0.3328 -0.3068  0.0303
  116MOL   F11714147   5.559   1.602   7.270 -0.0318  0.0127  0.1764
  116MOL   F11814148   5.425   1.581   7.103 -0.0959 -0.7803 -0.0306
  116MOL   C11914149   5.584   1.411   7.143  0.3818  0.0163  1.2419
  116MOL   H12014150   5.590   1.375   7.041  2.7847 -2.2988  2.1332
  116MOL   H12114151   5.509   1.353   7.196  0.1165 -0.3102  0.5124
  116MOL   H12214152   5.681   1.394   7.189  0.6092  0.8828  1.0923
  117MOL     C114153   1.293   5.306   1.773 -0.2671  0.1888  0.6515
  117MOL     F214154   1.288   5.200   1.693  0.2354 -0.4317  0.5711
  117MOL     F314155   1.272   5.269   1.893  0.3264 -0.3576 -0.1061
  117MOL     C414156   1.196   5.414   1.736  0.0561 -0.1716 -0.2012
  117MOL     H514157   1.192   5.489   1.815 -1.5903  0.4715 -0.8869
  117MOL     H614158   1.101   5.360   1.734  1.0976 -2.0618 -0.6417
  117MOL     H714159   1.396   5.343   1.766 -0.1918 -0.4352 -1.9839
  117MOL     C814160   1.236   5.473   1.593  0.3418 -0.4959 -0.6352
  117MOL     F914161   1.262   5.377   1.509 -0.4128 -0.2496 -0.9820
  117MOL    F1014162   1.128   5.546   1.548 -0.3393 -0.0287 -0.0002
  117MOL    C1114163   1.358   5.563   1.585 -0.1309  0.1037  0.2783
  117MOL    H1214164   1.363   5.585   1.478 -0.3707 -1.4501 -0.0715
  117MOL    H1314165   1.444   5.502   1.611  0.5313  0.9603  0.0951
  117MOL    C1414166   1.368   5.687   1.682  0.1077  0.1107 -0.4542
  117MOL    F1514167   1.266   5.766   1.662 -0.3176 -0.2257  0.4711
  117MOL    F1614168   1.363   5.650   1.807 -0.2716 -0.2065 -0.1364
  117MOL    C1714169   1.495   5.765   1.656 -0.0507  0.5350  0.1447
  117MOL    H1814170   1.489   5.811   1.557 -0.9438  2.0002  0.8513
  117MOL    H1914171   1.574   5.690   1.658 -0.4250  0.1443  0.4567
  117MOL    C2014172   1.522   5.878   1.768  0.3338  0.1200  0.5855
  117MOL    F2114173   1.548   5.810   1.882 -0.2087 -0.1110  0.0312
  117MOL    F2214174   1.642   5.934   1.728  0.2611 -0.1954 -0.7243
  117MOL    C2314175   1.408   5.976   1.799 -0.7476  0.7264  0.8334
  117MOL    H2414176   1.437   6.023   1.892 -0.8782  0.2071  1.1413
  117MOL    H2514177   1.314   5.927   1.826 -0.5921  0.9542  1.7893
  117MOL    C2614178   1.385   6.089   1.688 -0.5188  0.3408  0.8387
  117MOL    F2714179   1.498   6.150   1.656 -0.0432 -0.1123 -0.2077
  117MOL    F2814180   1.331   6.044   1.576 -0.4520  0.2101 -0.1092
  117MOL    C2914181   1.291   6.191   1.752  0.4468  0.3583 -0.0808
  117MOL    H3014182   1.322   6.200   1.856  2.2465 -1.7545 -0.3915
  117MOL    H3114183   1.188   6.155   1.747  0.3873  0.3617  0.9676
  117MOL    C3214184   1.302   6.333   1.695  0.6346 -0.0397  0.6413
  117MOL    F3314185   1.201   6.392   1.758  0.3007 -0.1204 -0.6268
  117MOL    F3414186   1.418   6.401   1.729 -0.1159  0.0191 -0.4149
  117MOL    C3514187   1.277   6.343   1.540 -0.5085 -0.8063  0.1746
  117MOL    H3614188   1.199   6.272   1.513 -2.3833  1.4063 -0.3756
  117MOL    H3714189   1.374   6.318   1.497  0.0652  3.9713 -1.5981
  117MOL    C3814190   1.244   6.494   1.494 -0.8390  0.3695 -0.1381
  117MOL    F3914191   1.241   6.484   1.362 -0.0790  0.1902  0.0207
  117MOL    F4014192   1.120   6.532   1.535 -0.0437  0.4087  0.1493
  117MOL    C4114193   1.339   6.606   1.538  0.6824 -1.0434 -0.2388
  117MOL    H4214194   1.438   6.584   1.497  0.9185 -2.0803  0.8623
  117MOL    H4314195   1.352   6.592   1.646  1.1124  0.0596 -0.1447
  117MOL    C4414196   1.313   6.755   1.503  0.0012 -0.1023  0.8050
  117MOL    F4514197   1.417   6.824   1.546  0.3144 -0.0336  0.4723
  117MOL    F4614198   1.303   6.767   1.370 -0.3584 -0.1861  0.1683
  117MOL    C4714199   1.180   6.813   1.562 -0.6206  0.0774 -0.1980
  117MOL    H4814200   1.168   6.771   1.662  2.0838 -0.6068 -0.1264
  117MOL    H4914201   1.100   6.764   1.506  0.8298 -0.0985 -2.1752
  117MOL    C5014202   1.163   6.962   1.580  0.2064 -0.0805  0.4365
  117MOL    F5114203   1.267   7.006   1.649 -0.1791 -0.1379  0.1202
  117MOL    F5214204   1.173   7.004   1.452 -0.7651 -0.2705  0.6236
  117MOL    C5314205   1.033   7.007   1.648 -0.6624  0.3914 -0.5242
  117MOL    H5414206   1.029   6.971   1.751 -1.7031 -0.8203 -0.9744
  117MOL    H5514207   0.948   6.953   1.605 -1.1894 -0.2419  1.2752
  117MOL    C5614208   0.995   7.161   1.632  0.5111  0.0800  0.0942
  117MOL    F5714209   1.009   7.184   1.507 -0.2867 -0.3755 -0.2553
  117MOL    F5814210   0.860   7.169   1.660 -0.1353 -0.2779 -0.0703
  117MOL    C5914211   1.074   7.262   1.724  0.3875 -0.1170 -0.4542
  117MOL    H6014212   1.178   7.251   1.691 -0.0062 -1.5436 -1.2614
  117MOL    H6114213   1.080   7.238   1.830  1.7059 -1.6349 -0.8410
  117MOL    C6214214   1.032   7.409   1.708  0.4337  0.0114  0.6009
  117MOL    F6314215   1.125   7.493   1.760 -0.0806  0.1502  0.0881
  117MOL    F6414216   1.012   7.451   1.587 -0.0320 -0.1363  0.3462
  117MOL    C6514217   0.906   7.445   1.798  0.0886  0.5965 -0.3793
  117MOL    H6614218   0.931   7.424   1.902 -1.0617  0.3598 -0.1439
  117MOL    H6714219   0.826   7.380   1.762 -0.9906  2.1909 -0.9188
  117MOL    C6814220   0.842   7.583   1.783 -0.7704 -0.0521  0.1598
  117MOL    F6914221   0.936   7.675   1.795  0.4789 -0.4470 -0.4781
  117MOL    F7014222   0.781   7.585   1.673 -0.2504  0.5040  0.4381
  117MOL    C7114223   0.738   7.608   1.897  1.1896 -0.0563  0.2128
  117MOL    H7214224   0.798   7.630   1.985  0.0419  4.4941  0.0027
  117MOL    H7314225   0.671   7.523   1.912 -2.9565  3.2583  1.3231
  117MOL    C7414226   0.646   7.731   1.883 -0.2352  1.0469  0.0113
  117MOL    F7514227   0.546   7.690   1.796  0.0344 -0.0841 -0.2784
  117MOL    F7614228   0.595   7.747   2.004 -0.3750 -0.0551  0.1627
  117MOL    C7714229   0.705   7.868   1.839  0.0491  0.4545 -0.2929
  117MOL    H7814230   0.759   7.846   1.747  1.6666 -1.6595  1.1058
  117MOL    H7914231   0.776   7.901   1.915  0.3974  1.6007 -1.1003
  117MOL    C8014232   0.602   7.976   1.812 -0.5101 -0.0530 -0.3117
  117MOL    F8114233   0.527   7.929   1.721  0.0434 -0.3576 -0.5994
  117MOL    F8214234   0.527   8.003   1.919 -0.2937  0.2582 -0.3449
  117MOL    C8314235   0.678   8.106   1.766 -0.4476 -0.5275 -0.1112
  117MOL    H8414236   0.730   8.094   1.671 -0.3442 -1.3433  0.0454
  117MOL    H8514237   0.763   8.131   1.829 -0.9252  1.6972 -0.2979
  117MOL    C8614238   0.584   8.237   1.766  0.9577  0.4658 -0.2813
  117MOL    F8714239   0.544   8.276   1.887 -0.5790 -0.1548  0.1054
  117MOL    F8814240   0.654   8.331   1.711  0.1486  0.3831 -0.1507
  117MOL    C8914241   0.457   8.227   1.682  0.2402 -0.4952 -0.0447
  117MOL    H9014242   0.387   8.305   1.712  1.6437  0.3851  0.9613
  117MOL    H9114243   0.394   8.139   1.697  0.9264 -1.0401 -0.3586
  117MOL    C9214244   0.469   8.227   1.532 -0.1596  0.3784  0.4795
  117MOL    F9314245   0.528   8.332   1.482  0.4786 -0.2026 -0.8157
  117MOL    F9414246   0.551   8.126   1.500  0.9434  0.3629  0.8458
  117MOL    C9514247   0.345   8.201   1.444  0.4736 -0.3227 -0.2348
  117MOL    H9614248   0.296   8.104   1.455 -1.3606  0.3624 -2.0169
  117MOL    H9714249   0.373   8.198   1.339 -0.8279  2.5380 -0.6942
  117MOL    C9814250   0.226   8.299   1.459 -0.5643  0.1626 -0.5261
  117MOL    F9914251   0.160   8.265   1.573  0.2411 -0.0711  0.0268
  117MOL   F10014252   0.280   0.079   1.465 -0.5448 -0.1174 -0.5808
  117MOL   C10114253   0.139   8.285   1.336  0.2216  0.0130  0.4438
  117MOL   H10214254   0.116   8.180   1.317  3.0484 -0.4117 -0.8848
  117MOL   H10314255   0.187   8.327   1.248  1.7490 -0.6889  0.9174
  117MOL   C10414256   0.003   0.009   1.347  0.9574 -0.2271  0.4701
  117MOL   F10514257   8.278   8.305   1.447  0.3167 -0.1327  0.3503
  117MOL   F10614258   0.025   0.137   1.378 -0.4074  0.2844 -0.2413
  117MOL   C10714259   8.260   0.007   1.215 -0.0000  0.0344 -0.3978
  117MOL   H10814260   8.236   8.252   1.200  0.5268 -0.1381 -0.0564
  117MOL   H10914261   8.328   0.047   1.140 -0.0014  0.2751 -0.2699
  117MOL   C11014262   8.132   0.094   1.227 -0.6385  0.1867  0.0607
  117MOL   F11114263   8.068   0.051   1.124 -0.1092 -0.2286  0.1427
  117MOL   F11214264   8.049   0.064   1.327  0.3727  0.1458 -0.0280
  117MOL   C11314265   8.141   0.248   1.227  0.2834 -0.1993 -0.1202
  117MOL   H11414266   8.216   0.283   1.156 -0.6888  0.1922 -0.9724
  117MOL   H11514267   8.187   0.278   1.321 -2.5078  0.1433  1.1764
  117MOL   C11614268   8.014   0.334   1.222  0.0650 -0.1562  0.0052
  117MOL   F11714269   8.048   0.451   1.257 -0.2019 -0.2030  0.2801
  117MOL   F11814270   7.953   0.326   1.099 -0.3616 -0.8339  0.3131
  117MOL   C11914271   7.903   0.311   1.327 -0.5141 -0.2397 -0.4356
  117MOL   H12014272   7.879   0.205   1.335 -1.2055  0.0880  2.3078
  117MOL   H12114273   7.817   0.358   1.278  0.0032  2.6334  1.2894
  117MOL   H12214274   7.927   0.361   1.421  1.6571 -1.1362 -0.4802
  118MOL     C114275   1.980   3.362   5.973  0.3717  0.0201 -0.3467
  118MOL     F214276   2.003   3.494   5.980 -0.7020 -0.0760 -0.2584
  118MOL     F314277   1.947   3.341   5.845 -0.1577  0.6375 -0.6167
  118MOL     C414278   1.862   3.309   6.065  0.6995  0.0370 -0.4162
  118MOL     H514279   1.781   3.381   6.052  2.6924  2.3001 -0.5359
  118MOL     H614280   1.903   3.311   6.165  0.9340  0.9753 -0.5312
  118MOL     H714281   2.075   3.310   5.982  0.0284 -0.6130 -0.3526
  118MOL     C814282   1.807   3.163   6.038  0.1794  0.5364 -0.0391
  118MOL     F914283   1.738   3.175   5.924 -0.6201 -0.2372  0.0121
  118MOL    F1014284   1.902   3.066   6.022 -0.1831 -0.6473  0.6826
  118MOL    C1114285   1.707   3.112   6.142 -0.4196 -0.3357 -0.3110
  118MOL    H1214286   1.761   3.098   6.236  0.8251 -1.6219 -1.2018
  118MOL    H1314287   1.666   3.017   6.109 -1.5564  0.7772 -2.2030
  118MOL    C1414288   1.574   3.189   6.164  0.6442 -0.8504 -0.1866
  118MOL    F1514289   1.609   3.305   6.224  0.3936  0.4082  0.1106
  118MOL    F1614290   1.520   3.222   6.048 -0.0897 -0.1782 -0.3752
  118MOL    C1714291   1.462   3.117   6.243  0.5531  0.0102 -0.0908
  118MOL    H1814292   1.502   3.072   6.333  0.4017  0.3812  0.1658
  118MOL    H1914293   1.429   3.028   6.190 -1.0381  1.2458 -1.2259
  118MOL    C2014294   1.329   3.206   6.271  0.1436  0.4671 -0.3279
  118MOL    F2114295   1.357   3.316   6.343 -0.1575  0.2418  0.1874
  118MOL    F2214296   1.278   3.256   6.156  0.5170 -0.2506  0.2542
  118MOL    C2314297   1.216   3.125   6.337 -0.4624  0.1427  0.6432
  118MOL    H2414298   1.140   3.196   6.371 -1.9477 -1.3338  0.4775
  118MOL    H2514299   1.254   3.078   6.427 -1.9062 -3.0017 -0.3267
  118MOL    C2614300   1.152   3.004   6.258 -0.3319 -0.0775 -0.1983
  118MOL    F2714301   1.131   3.033   6.130  0.2532 -0.4583 -0.1117
  118MOL    F2814302   1.241   2.916   6.263 -0.0667  0.7058 -0.1469
  118MOL    C2914303   1.026   2.947   6.321  0.2739  0.1505  0.2395
  118MOL    H3014304   1.044   2.939   6.428 -1.1117 -1.1998  0.3816
  118MOL    H3114305   1.025   2.839   6.309  1.4244 -0.0356  1.6901
  118MOL    C3214306   0.890   3.014   6.282 -0.0645  0.2453  0.4660
  118MOL    F3314307   0.800   2.957   6.358  1.3167 -0.0000 -0.1351
  118MOL    F3414308   0.906   3.139   6.323 -0.1468 -0.6109 -0.4641
  118MOL    C3514309   0.845   3.021   6.136  0.1406  0.4952  0.4059
  118MOL    H3614310   0.915   3.073   6.071  0.3478 -0.2083  0.0587
  118MOL    H3714311   0.760   3.090   6.135 -0.4867 -0.2676  0.1010
  118MOL    C3814312   0.810   2.883   6.083  0.3720  0.5702 -0.5690
  118MOL    F3914313   0.910   2.798   6.091 -0.5550  0.3621 -0.3053
  118MOL    F4014314   0.704   2.833   6.159 -0.7460  0.1561 -0.3163
  118MOL    C4114315   0.775   2.879   5.937 -0.1799 -0.2423  0.2878
  118MOL    H4214316   0.863   2.867   5.874  0.3149 -1.9885  1.3032
  118MOL    H4314317   0.722   2.970   5.908 -1.4387 -1.2050 -0.4931
  118MOL    C4414318   0.673   2.773   5.893 -0.2238 -0.3501  0.6903
  118MOL    F4514319   0.720   2.662   5.941  0.2698  0.0170 -0.5355
  118MOL    F4614320   0.567   2.799   5.962  0.4644  0.0752 -0.0383
  118MOL    C4714321   0.640   2.771   5.739 -0.5632 -0.3467  0.7719
  118MOL    H4814322   0.733   2.761   5.683 -0.9115  1.9110 -0.3105
  118MOL    H4914323   0.626   2.875   5.706  0.8384 -1.0122 -2.1053
  118MOL    C5014324   0.550   2.657   5.684 -0.8123 -0.1472 -0.2635
  118MOL    F5114325   0.582   2.539   5.735  0.4180 -0.0133 -0.0237
  118MOL    F5214326   0.423   2.680   5.724 -0.3555  0.0768 -0.1792
  118MOL    C5314327   0.541   2.651   5.528  0.6216 -0.0330 -0.3057
  118MOL    H5414328   0.468   2.572   5.506 -0.6052  0.3926  2.0390
  118MOL    H5514329   0.636   2.611   5.493  0.6902  0.7062 -0.9639
  118MOL    C5614330   0.501   2.783   5.461  0.5616 -0.7190 -0.0016
  118MOL    F5714331   0.388   2.820   5.527  0.1796  0.1975 -0.7756
  118MOL    F5814332   0.589   2.872   5.475  0.0619  0.2817  0.3241
  118MOL    C5914333   0.472   2.776   5.313  0.7161  0.9508  0.4327
  118MOL    H6014334   0.399   2.697   5.293  1.5257  0.0092  1.0728
  118MOL    H6114335   0.561   2.740   5.262 -0.7696  0.8317 -2.1778
  118MOL    C6214336   0.429   2.907   5.233 -0.1029 -0.1891  0.4639
  118MOL    F6314337   0.319   2.971   5.278  0.0177  0.2177  0.4227
  118MOL    F6414338   0.535   2.988   5.243  0.3467  0.4273  0.1381
  118MOL    C6514339   0.413   2.875   5.085  0.2045  0.0215  0.1339
  118MOL    H6614340   0.501   2.820   5.051  1.1382 -0.6555  3.5218
  118MOL    H6714341   0.415   2.963   5.020 -0.3564 -1.1014 -1.4583
  118MOL    C6814342   0.286   2.805   5.048  0.1234 -0.4071 -0.6355
  118MOL    F6914343   0.295   2.676   5.090 -0.1402 -0.2059  0.1035
  118MOL    F7014344   0.179   2.864   5.120  0.4492 -0.1991  0.6478
  118MOL    C7114345   0.248   2.801   4.903  0.0274  0.3572  0.3671
  118MOL    H7214346   0.337   2.762   4.854 -0.3786  1.9642 -1.7121
  118MOL    H7314347   0.225   2.902   4.867 -0.2175  1.3801  3.2282
  118MOL    C7414348   0.124   2.712   4.870 -0.4263  0.2490  0.1496
  118MOL    F7514349   0.140   2.587   4.909 -0.3888  0.2984 -0.5163
  118MOL    F7614350   0.018   2.761   4.929 -0.2405  0.3178 -0.0670
  118MOL    C7714351   0.086   2.708   4.717 -0.3049 -0.2470  0.4024
  118MOL    H7814352   0.046   2.806   4.688 -1.1622 -1.0551 -1.2146
  118MOL    H7914353   8.348   2.644   4.723 -0.1763 -0.3974  0.6484
  118MOL    C8014354   0.189   2.646   4.616  0.2667  0.5284 -0.4185
  118MOL    F8114355   0.310   2.701   4.619  0.3697  0.0793 -0.1038
  118MOL    F8214356   0.197   2.516   4.636  0.6730 -0.5651  0.6426
  118MOL    C8314357   0.131   2.668   4.471  0.3493 -0.0421  0.6064
  118MOL    H8414358   0.157   2.773   4.453  0.1354  0.3066  2.2546
  118MOL    H8514359   0.022   2.659   4.471  0.5162 -2.1665 -0.2701
  118MOL    C8614360   0.202   2.587   4.361  0.5188  0.0405 -0.1400
  118MOL    F8714361   0.332   2.602   4.378  0.4216  0.3289  0.3071
  118MOL    F8814362   0.175   2.455   4.377  0.1046 -0.4263 -0.3571
  118MOL    C8914363   0.155   2.624   4.223  0.5716 -0.4047 -0.6810
  118MOL    H9014364   0.174   2.731   4.211 -0.8215 -0.1609 -0.7792
  118MOL    H9114365   0.046   2.618   4.226  0.5699 -1.1591 -2.1047
  118MOL    C9214366   0.192   2.550   4.095  0.2835 -0.4677 -0.2399
  118MOL    F9314367   0.167   2.421   4.121  0.6121 -0.2808 -0.5445
  118MOL    F9414368   0.121   2.585   3.984  0.7185 -0.5029  0.0279
  118MOL    C9514369   0.340   2.574   4.065  0.5862 -0.8392  0.1558
  118MOL    H9614370   0.403   2.569   4.153  1.7030  0.3899 -0.5614
  118MOL    H9714371   0.351   2.679   4.036  1.5769 -1.3509 -1.3882
  118MOL    C9814372   0.411   2.478   3.957  0.5493 -0.1788 -0.4464
  118MOL    F9914373   0.346   2.487   3.838  0.1276  0.2386 -0.3261
  118MOL   F10014374   0.527   2.524   3.929 -0.4404  0.0210 -0.0970
  118MOL   C10114375   0.420   2.324   3.990 -0.5373  0.7773 -0.4043
  118MOL   H10214376   0.482   2.293   3.906  0.4832 -0.3530  0.7482
  118MOL   H10314377   0.322   2.278   3.984 -1.2277  2.0891  0.6043
  118MOL   C10414378   0.489   2.273   4.115 -0.3366  0.5802  0.2053
  118MOL   F10514379   0.621   2.313   4.107  0.3553  0.1328  0.1201
  118MOL   F10614380   0.437   2.327   4.225  0.3677  0.4072  0.2758
  118MOL   C10714381   0.492   2.113   4.131  0.3780  0.3818 -0.2645
  118MOL   H10814382   0.386   2.086   4.130  0.1680  1.1580  0.7180
  118MOL   H10914383   0.538   2.101   4.229  1.5106 -1.8732 -1.0446
  118MOL   C11014384   0.566   2.030   4.019  0.3114 -0.0524  0.1337
  118MOL   F11114385   0.570   1.903   4.054  0.1477  0.4423 -0.0171
  118MOL   F11214386   0.478   2.021   3.917  0.2189  0.1592 -0.4243
  118MOL   C11314387   0.717   2.063   3.994 -0.5609  0.2636 -0.1721
  118MOL   H11414388   0.772   2.058   4.088 -1.0522 -0.2488  0.0932
  118MOL   H11514389   0.721   2.166   3.959  0.9938  0.1794 -0.2623
  118MOL   C11614390   0.783   1.968   3.887 -0.5439 -0.4094 -0.6223
  118MOL   F11714391   0.823   1.852   3.938  0.1668 -0.1809 -0.0679
  118MOL   F11814392   0.688   1.948   3.792  0.7127 -0.2471 -0.1381
  118MOL   C11914393   0.888   2.031   3.798 -0.4950  0.3712 -0.2222
  118MOL   H12014394   0.841   2.077   3.712  0.5162  3.2781  0.7040
  118MOL   H12114395   0.954   1.954   3.759 -1.2822 -0.7743  0.6834
  118MOL   H12214396   0.946   2.104   3.855  0.1573 -0.8970  0.7614
  119MOL     C114397   3.595   7.276   7.055  0.4980 -0.3070 -0.6949
  119MOL     F214398   3.693   7.182   7.054  0.0203 -0.4628  0.3176
  119MOL     F314399   3.480   7.211   7.026 -0.4780 -0.9871  0.3712
  119MOL     C414400   3.629   7.380   6.944  0.4431  0.6336 -0.4427
  119MOL     H514401   3.544   7.447   6.926  0.9766  2.0445  2.0570
  119MOL     H614402   3.648   7.327   6.851 -1.2264 -0.0448 -0.4112
  119MOL     H714403   3.593   7.328   7.151  0.0057 -0.7848 -0.4456
  119MOL     C814404   3.751   7.463   6.973 -0.4989  0.4640  0.3403
  119MOL     F914405   3.745   7.497   7.097  0.6994 -0.1469  0.0890
  119MOL    F1014406   3.849   7.377   6.966 -0.5124  0.0182 -0.4395
  119MOL    C1114407   3.784   7.581   6.870 -0.6396  0.0746  0.9752
  119MOL    H1214408   3.877   7.617   6.913 -0.1454  3.6169 -2.7836
  119MOL    H1314409   3.703   7.653   6.879 -0.6375  0.3123 -0.7672
  119MOL    C1414410   3.817   7.538   6.721 -0.2661 -0.4790 -0.2189
  119MOL    F1514411   3.909   7.447   6.705 -0.2286 -0.0125  0.6642
  119MOL    F1614412   3.711   7.494   6.654  0.0075 -0.1570 -0.1252
  119MOL    C1714413   3.872   7.656   6.633 -0.0869 -0.1976 -0.2991
  119MOL    H1814414   3.876   7.616   6.532  3.1763  0.0815 -0.3246
  119MOL    H1914415   3.975   7.677   6.661 -0.6564  1.2458  0.8202
  119MOL    C2014416   3.796   7.789   6.633  0.1303 -0.3674 -0.2741
  119MOL    F2114417   3.675   7.759   6.586 -0.1667  0.4454 -0.2102
  119MOL    F2214418   3.782   7.830   6.759 -0.2409  0.4950  0.0409
  119MOL    C2314419   3.855   7.898   6.538  0.3990 -0.1109 -0.4914
  119MOL    H2414420   3.818   7.869   6.439 -1.5503  0.3782  0.0854
  119MOL    H2514421   3.963   7.889   6.527  0.6516  0.2578  1.4910
  119MOL    C2614422   3.807   8.045   6.559  0.5079  0.3775  0.0732
  119MOL    F2714423   3.856   8.102   6.671  0.1901 -0.2341  0.0555
  119MOL    F2814424   3.838   8.112   6.452 -0.2429 -0.0043  0.2544
  119MOL    C2914425   3.653   8.056   6.588 -0.2468 -0.0144 -0.3420
  119MOL    H3014426   3.622   8.023   6.687  1.1504 -0.0931  0.0776
  119MOL    H3114427   3.610   7.981   6.521  1.7136 -2.1243  0.7047
  119MOL    C3214428   3.599   8.197   6.560 -0.4007  0.2474 -0.1119
  119MOL    F3314429   3.622   8.234   6.432 -0.2138 -0.2335 -0.9696
  119MOL    F3414430   3.472   8.209   6.597  0.2275  0.8599  0.2445
  119MOL    C3514431   3.672   8.304   6.648  0.0384  0.1105  0.1540
  119MOL    H3614432   3.773   8.320   6.609  0.3533 -1.6375  0.1906
  119MOL    H3714433   3.694   8.267   6.748 -2.6035  1.0955  1.1283
  119MOL    C3814434   3.627   0.098   6.659 -0.1448  0.2497  0.6736
  119MOL    F3914435   3.509   0.089   6.721  0.0781  0.0947 -0.3097
  119MOL    F4014436   3.714   0.161   6.743  0.6352 -0.3672 -0.2942
  119MOL    C4114437   3.597   0.181   6.529  0.4655 -0.1300  0.2568
  119MOL    H4214438   3.555   0.277   6.559  0.2409 -0.1418 -0.0176
  119MOL    H4314439   3.522   0.119   6.481  2.0802 -2.4240  0.6201
  119MOL    C4414440   3.711   0.206   6.429  0.2445  0.4684 -0.7720
  119MOL    F4514441   3.829   0.228   6.491 -0.1457 -0.1298 -0.2639
  119MOL    F4614442   3.736   0.094   6.368  0.5964 -0.2916 -0.0866
  119MOL    C4714443   3.688   0.311   6.315 -0.0894 -0.7999  0.5028
  119MOL    H4814444   3.588   0.296   6.275  0.0873  2.0983 -1.2227
  119MOL    H4914445   3.752   0.299   6.228 -0.7227 -1.2380  0.0947
  119MOL    C5014446   3.711   0.459   6.356  0.0278 -0.8342 -1.1896
  119MOL    F5114447   3.692   0.533   6.246  0.2402 -0.4623 -0.4596
  119MOL    F5214448   3.626   0.495   6.456 -0.0069  0.3114  0.1267
  119MOL    C5314449   3.851   0.517   6.406  0.2129  0.6082  0.5160
  119MOL    H5414450   3.869   0.470   6.503  0.1283 -2.3487 -0.8518
  119MOL    H5514451   3.827   0.621   6.425 -0.9991  0.5499 -0.6028
  119MOL    C5614452   3.977   0.503   6.319  0.3014 -0.0109  0.3269
  119MOL    F5714453   3.961   0.556   6.197  0.0913  0.2879  0.1085
  119MOL    F5814454   4.062   0.571   6.396 -0.2374  0.1030  0.1975
  119MOL    C5914455   4.037   0.358   6.311 -0.6688  0.5964  0.4793
  119MOL    H6014456   3.969   0.301   6.247  0.4765 -1.1510  0.7843
  119MOL    H6114457   4.037   0.315   6.411 -1.1908  2.3547  1.2449
  119MOL    C6214458   4.180   0.347   6.254  0.0284 -0.5764  0.2157
  119MOL    F6314459   4.194   0.399   6.126 -0.2560 -0.2788  0.0872
  119MOL    F6414460   4.256   0.418   6.333  0.1022 -0.0471 -0.2108
  119MOL    C6514461   4.227   0.204   6.241  0.0863  0.6725 -0.2919
  119MOL    H6614462   4.256   0.182   6.344 -0.3942 -1.9655 -0.6978
  119MOL    H6714463   4.322   0.208   6.189  1.4327 -1.3868  1.9067
  119MOL    C6814464   4.142   0.097   6.176 -0.0070 -0.3716  0.3402
  119MOL    F6914465   4.043   0.064   6.262 -0.1166  0.1721 -0.5700
  119MOL    F7014466   4.096   0.146   6.068 -0.3082  0.3864 -0.0347
  119MOL    C7114467   4.231   8.321   6.143 -0.3864  0.0362 -0.2452
  119MOL    H7214468   4.288   8.282   6.226  1.6306  0.1945 -1.5324
  119MOL    H7314469   4.314   0.002   6.080  0.8923  0.5831  1.6927
  119MOL    C7414470   4.155   8.201   6.083  0.0713 -0.2090  0.3632
  119MOL    F7514471   4.103   8.237   5.964  0.1406  0.7510  0.4255
  119MOL    F7614472   4.244   8.107   6.055 -0.6456  0.2354 -0.3593
  119MOL    C7714473   4.050   8.130   6.181  0.2266 -0.7938  0.0363
  119MOL    H7814474   3.981   8.211   6.205  0.0794 -0.7249 -0.6074
  119MOL    H7914475   4.096   8.089   6.270 -1.4827  2.5082  2.5459
  119MOL    C8014476   3.965   8.015   6.114  0.8288 -0.5791 -0.4388
  119MOL    F8114477   3.870   7.989   6.199 -0.3249 -0.2362 -0.4933
  119MOL    F8214478   3.911   8.066   6.003 -0.6408  0.0381  0.5370
  119MOL    C8314479   4.031   7.875   6.099  0.2289  0.9165 -0.0240
  119MOL    H8414480   4.118   7.895   6.036  0.7208 -0.0431  0.3396
  119MOL    H8514481   3.960   7.815   6.044  0.2400 -1.7497  2.7393
  119MOL    C8614482   4.081   7.794   6.222  0.1876  0.1990 -0.7133
  119MOL    F8714483   4.163   7.865   6.297  0.1380 -0.6797 -0.0705
  119MOL    F8814484   3.974   7.767   6.299 -0.5451 -0.3854 -0.0101
  119MOL    C8914485   4.147   7.666   6.176 -0.2775 -0.1306 -0.0751
  119MOL    H9014486   4.221   7.691   6.100 -0.0439  1.2617  0.5980
  119MOL    H9114487   4.078   7.599   6.125  0.9323 -0.9696 -0.6541
  119MOL    C9214488   4.226   7.594   6.280 -0.2031 -0.4672  0.6074
  119MOL    F9314489   4.329   7.677   6.318 -0.5358  0.2895  0.2251
  119MOL    F9414490   4.143   7.578   6.392  0.0724  0.2808  0.1826
  119MOL    C9514491   4.275   7.457   6.243  0.0846  0.2668  0.1198
  119MOL    H9614492   4.364   7.436   6.303  0.2172 -1.4073 -0.6143
  119MOL    H9714493   4.309   7.470   6.140  2.4237  1.6214  1.0261
  119MOL    C9814494   4.175   7.339   6.240 -0.1064  0.0403 -0.1290
  119MOL    F9914495   4.127   7.317   6.363  0.1914  0.3039  0.0698
  119MOL   F10014496   4.072   7.354   6.165  0.6459 -0.0142  0.1527
  119MOL   C10114497   4.237   7.196   6.205  0.4426 -0.4646  0.3342
  119MOL   H10214498   4.161   7.123   6.178  0.8491 -0.7415 -0.0805
  119MOL   H10314499   4.281   7.153   6.294  1.2113 -1.4812 -0.5258
  119MOL   C10414500   4.338   7.199   6.095 -0.3319 -0.4030  0.4454
  119MOL   F10514501   4.300   7.285   5.998 -0.4048 -0.3271 -0.0325
  119MOL   F10614502   4.448   7.243   6.155 -0.3794  0.4201  0.1346
  119MOL   C10714503   4.364   7.062   6.035 -0.0510 -0.1355 -0.0919
  119MOL   H10814504   4.400   6.999   6.115 -3.4295 -2.2034 -0.0893
  119MOL   H10914505   4.439   7.079   5.957 -1.7114  0.3286 -1.6385
  119MOL   C11014506   4.236   6.989   5.977  0.3211 -0.7241  0.3288
  119MOL   F11114507   4.172   6.913   6.066  0.4574  0.4996 -0.4884
  119MOL   F11214508   4.156   7.075   5.924 -0.0487  0.0539 -0.7348
  119MOL   C11314509   4.272   6.906   5.855 -0.8866  0.4468  0.0296
  119MOL   H11414510   4.341   6.965   5.794 -0.4325  0.4101  0.5006
  119MOL   H11514511   4.182   6.886   5.796 -1.1713 -0.5384  0.7918
  119MOL   C11614512   4.350   6.774   5.887  0.1170  0.2362  0.0931
  119MOL   F11714513   4.459   6.803   5.963  0.3472  0.5966 -0.1583
  119MOL   F11814514   4.267   6.692   5.957 -0.0014 -0.7687  0.7617
  119MOL   C11914515   4.403   6.700   5.766 -0.0100  0.2637 -1.0840
  119MOL   H12014516   4.490   6.753   5.728 -0.4633  2.2128  0.5564
  119MOL   H12114517   4.328   6.700   5.687  0.8836  3.1507 -1.9885
  119MOL   H12214518   4.421   6.597   5.800  1.0942  0.0940 -2.1411
  120MOL     C114519   3.990   3.598   4.171 -0.1489  0.5518  0.1170
  120MOL     F214520   4.059   3.645   4.272  0.1576 -0.4215 -1.1698
  120MOL     F314521   3.976   3.692   4.076  0.5144  0.2788  0.0690
  120MOL     C414522   3.853   3.549   4.227 -0.7033 -0.6016 -0.0831
  120MOL     H514523   3.790   3.523   4.141  0.0168 -0.0751 -0.7798
  120MOL     H614524   3.808   3.626   4.290  1.3231  0.3884  0.1787
  120MOL     H714525   4.054   3.519   4.131 -0.7196  0.2230 -0.1622
  120MOL     C814526   3.865   3.425   4.308  0.5180 -0.8380 -0.0993
  120MOL     F914527   3.948   3.337   4.254  0.3098  0.4439  0.0005
  120MOL    F1014528   3.903   3.455   4.434  0.0902  0.4602 -0.7325
  120MOL    C1114529   3.732   3.349   4.324  0.3401 -0.1373  0.3382
  120MOL    H1214530   3.758   3.258   4.378  0.9928 -0.1151  0.0712
  120MOL    H1314531   3.701   3.321   4.224  0.0558  0.8313  0.1525
  120MOL    C1414532   3.613   3.437   4.384  0.0235 -0.1700  0.2200
  120MOL    F1514533   3.635   3.459   4.513 -0.4910  0.1651 -0.1224
  120MOL    F1614534   3.596   3.555   4.320  0.4471 -0.2796  0.0763
  120MOL    C1714535   3.468   3.375   4.368 -0.3202  0.5265  0.2048
  120MOL    H1814536   3.434   3.379   4.265 -0.1671 -1.2190  0.0718
  120MOL    H1914537   3.390   3.424   4.426 -0.4359 -0.8642  1.2455
  120MOL    C2014538   3.457   3.231   4.394 -0.3893  0.6278  0.3472
  120MOL    F2114539   3.499   3.154   4.287  0.3223  0.2334 -0.4550
  120MOL    F2214540   3.538   3.191   4.499  0.5765 -0.0217 -0.2189
  120MOL    C2314541   3.312   3.189   4.429  0.2948  0.9829 -0.4399
  120MOL    H2414542   3.256   3.243   4.352  0.3616  1.9373  0.1835
  120MOL    H2514543   3.268   3.241   4.514  0.4349  0.3748  0.0082
  120MOL    C2614544   3.287   3.043   4.448  0.2583  0.1289 -0.8410
  120MOL    F2714545   3.170   3.029   4.512 -0.5263  0.5664 -0.3414
  120MOL    F2814546   3.272   2.996   4.326 -0.0915  0.2533 -0.2934
  120MOL    C2914547   3.391   2.955   4.521 -0.2509  0.5128 -0.8735
  120MOL    H3014548   3.398   2.996   4.622 -0.0772  1.4417 -1.2594
  120MOL    H3114549   3.484   2.970   4.466  0.2566  1.0913  0.1176
  120MOL    C3214550   3.362   2.808   4.523  0.0065  0.1925 -0.0881
  120MOL    F3314551   3.245   2.778   4.581  0.3392  0.5685 -0.1896
  120MOL    F3414552   3.369   2.753   4.401 -0.3676 -0.0023  0.2208
  120MOL    C3514553   3.466   2.730   4.614  0.6174 -0.2147  0.1677
  120MOL    H3614554   3.443   2.625   4.596 -1.9039  0.2779  0.3573
  120MOL    H3714555   3.450   2.752   4.720  1.1937  2.5654 -0.2912
  120MOL    C3814556   3.615   2.752   4.593 -0.0514  0.4105 -0.1870
  120MOL    F3914557   3.656   2.880   4.619 -0.4186  0.3191  0.0003
  120MOL    F4014558   3.682   2.676   4.684  0.2046 -0.0138  0.0150
  120MOL    C4114559   3.671   2.694   4.452  0.4296 -0.1243 -0.3188
  120MOL    H4214560   3.660   2.775   4.380 -0.0357 -0.1880 -0.3207
  120MOL    H4314561   3.612   2.608   4.420  0.5700  0.1793 -1.3961
  120MOL    C4414562   3.819   2.648   4.448  0.4819 -0.5216  0.8563
  120MOL    F4514563   3.823   2.541   4.527 -0.1018  0.2279 -0.4183
  120MOL    F4614564   3.845   2.609   4.322  0.1053  0.1312  0.0866
  120MOL    C4714565   3.933   2.744   4.487 -0.2791 -1.2681  0.2541
  120MOL    H4814566   4.030   2.696   4.502  1.4522  2.3913  1.3966
  120MOL    H4914567   3.904   2.782   4.585  0.2527 -0.0035 -0.0741
  120MOL    C5014568   3.963   2.857   4.384  0.2655  0.3150  0.8451
  120MOL    F5114569   3.843   2.896   4.344  0.1899  0.1039  0.1004
  120MOL    F5214570   4.025   2.952   4.447  0.1684  0.2544 -0.3256
  120MOL    C5314571   4.034   2.813   4.252 -0.6499  0.3683 -0.2103
  120MOL    H5414572   4.043   2.903   4.191 -0.2440  0.1042 -0.5456
  120MOL    H5514573   3.968   2.754   4.188  1.2275  0.0616 -1.9094
  120MOL    C5614574   4.169   2.744   4.259  0.3342 -0.1775 -0.0073
  120MOL    F5714575   4.254   2.824   4.313 -0.2651  0.0100 -0.2211
  120MOL    F5814576   4.165   2.629   4.332  0.5482  0.6655  0.1658
  120MOL    C5914577   4.210   2.697   4.115  0.7437  0.4054  0.0184
  120MOL    H6014578   4.130   2.648   4.060  2.8153  0.9073 -3.6690
  120MOL    H6114579   4.298   2.633   4.124  0.1910 -0.7240 -2.0776
  120MOL    C6214580   4.268   2.805   4.018  0.6342  0.1674  0.3282
  120MOL    F6314581   4.176   2.886   3.983  0.1086 -0.5011  0.2234
  120MOL    F6414582   4.358   2.873   4.086  0.1860 -0.0275 -0.3877
  120MOL    C6514583   4.333   2.733   3.899 -0.0386  0.4353 -0.3705
  120MOL    H6614584   4.266   2.657   3.858 -0.6193 -0.0291  1.4173
  120MOL    H6714585   4.419   2.677   3.934 -1.4579 -0.7294  1.3263
  120MOL    C6814586   4.402   2.824   3.788  0.0907 -0.0724  0.6339
  120MOL    F6914587   4.497   2.902   3.841  0.5550  0.1279  0.4673
  120MOL    F7014588   4.472   2.742   3.702  0.1612 -0.3584 -0.3654
  120MOL    C7114589   4.308   2.910   3.701 -1.0235  0.1358 -0.8091
  120MOL    H7214590   4.363   2.961   3.622 -0.8241 -0.8573 -1.3250
  120MOL    H7314591   4.271   2.989   3.765  0.7795  0.1171  0.2872
  120MOL    C7414592   4.183   2.851   3.631  0.3400  0.1829 -0.4262
  120MOL    F7514593   4.225   2.740   3.573  0.1736  0.1323 -0.1165
  120MOL    F7614594   4.101   2.805   3.726  0.1964 -0.4292  0.1180
  120MOL    C7714595   4.108   2.952   3.538  0.9289  0.1348  0.0412
  120MOL    H7814596   4.172   2.989   3.459  0.4164  1.5966  0.2877
  120MOL    H7914597   4.080   3.044   3.591 -2.1924  0.8912 -2.7112
  120MOL    C8014598   3.996   2.902   3.449 -0.2423  0.0897 -0.2444
  120MOL    F8114599   3.932   3.010   3.412 -0.2719 -0.0552  0.2619
  120MOL    F8214600   4.035   2.833   3.342 -0.2135 -0.3714  0.4042
  120MOL    C8314601   3.889   2.811   3.516 -0.4606  0.1413 -0.0200
  120MOL    H8414602   3.863   2.859   3.610  1.7400  1.7979 -0.2218
  120MOL    H8514603   3.948   2.724   3.543  2.3633  1.3016 -2.1550
  120MOL    C8614604   3.767   2.754   3.438 -1.0421  0.0371 -0.3773
  120MOL    F8714605   3.812   2.678   3.344  0.0321 -0.2635 -0.7887
  120MOL    F8814606   3.695   2.676   3.511  0.0363  1.0740  0.3586
  120MOL    C8914607   3.674   2.856   3.375  0.1458  0.0869  0.3803
  120MOL    H9014608   3.603   2.796   3.319  0.6079 -0.6667  0.5917
  120MOL    H9114609   3.728   2.915   3.301 -0.2703 -0.6746 -0.5346
  120MOL    C9214610   3.595   2.941   3.473 -0.0301  0.1241 -0.1736
  120MOL    F9314611   3.511   2.863   3.552 -0.2083  0.3056 -0.1464
  120MOL    F9414612   3.681   2.999   3.558  0.1883  0.2118  0.1066
  120MOL    C9514613   3.507   3.043   3.405  0.3518 -0.2724 -0.6817
  120MOL    H9614614   3.424   2.992   3.357 -1.2142  0.9578  0.6597
  120MOL    H9714615   3.559   3.088   3.321  0.6730  0.4096 -0.1269
  120MOL    C9814616   3.460   3.155   3.491 -0.2479  0.2479  0.7893
  120MOL    F9914617   3.567   3.225   3.519 -0.3403 -0.1710  0.1666
  120MOL   F10014618   3.387   3.230   3.408 -0.2662 -0.0680 -0.0543
  120MOL   C10114619   3.383   3.108   3.615 -0.2406  0.2660 -0.7003
  120MOL   H10214620   3.447   3.052   3.683 -1.1401 -2.7531 -2.2100
  120MOL   H10314621   3.311   3.029   3.590 -0.5523  0.3660 -0.1309
  120MOL   C10414622   3.299   3.207   3.692  0.0797 -0.5925  0.3860
  120MOL   F10514623   3.372   3.310   3.711  0.4036 -0.3228  0.2531
  120MOL   F10614624   3.208   3.243   3.594  0.4787 -0.2994  0.1096
  120MOL   C10714625   3.240   3.163   3.830  0.3490  0.2171 -0.5220
  120MOL   H10814626   3.329   3.135   3.887  0.0323 -0.0877 -0.1757
  120MOL   H10914627   3.188   3.068   3.814  2.0734 -0.7932 -0.2518
  120MOL   C11014628   3.156   3.252   3.916 -0.0419 -0.5564 -0.3713
  120MOL   F11114629   3.224   3.357   3.948 -0.1541  0.3756 -0.6196
  120MOL   F11214630   3.042   3.288   3.854 -0.0139 -0.6873 -0.1713
  120MOL   C11314631   3.128   3.179   4.053 -0.0273 -0.3839 -0.0648
  120MOL   H11414632   3.110   3.250   4.134  0.7745 -1.4990  1.1085
  120MOL   H11514633   3.217   3.131   4.092  0.4406 -0.1447 -0.8231
  120MOL   C11614634   3.019   3.074   4.051 -0.2344 -0.6606 -0.9632
  120MOL   F11714635   2.902   3.118   4.009 -0.2612  0.1741 -0.1362
  120MOL   F11814636   3.054   2.975   3.967  0.1821 -0.2914 -0.1562
  120MOL   C11914637   2.999   3.005   4.178 -0.1392 -0.2850  0.0030
  120MOL   H12014638   2.901   2.957   4.188 -0.3276  0.0793 -0.0925
  120MOL   H12114639   2.981   3.082   4.254 -2.2770  1.3092 -2.0251
  120MOL   H12214640   3.076   2.938   4.216  0.6039 -0.0350 -1.0606
  121MOL     C114641   1.749   0.631   2.592 -0.6141  0.0782 -0.3210
  121MOL     F214642   1.725   0.581   2.719  0.3297  0.3679 -0.3476
  121MOL     F314643   1.831   0.548   2.535 -0.4055 -0.0803  0.0118
  121MOL     C414644   1.802   0.768   2.615 -0.2971  0.1276  0.4168
  121MOL     H514645   1.859   0.775   2.708 -0.2257 -1.2862  0.5001
  121MOL     H614646   1.716   0.834   2.611 -1.1906 -1.0757 -0.8079
  121MOL     H714647   1.653   0.619   2.541 -0.3415 -2.9036 -0.1850
  121MOL     C814648   1.890   0.815   2.499 -0.2613  1.1495  0.8630
  121MOL     F914649   2.000   0.740   2.476 -0.0703  0.0114  0.2601
  121MOL    F1014650   1.824   0.820   2.385  0.2808 -0.0409  0.8220
  121MOL    C1114651   1.947   0.956   2.530  0.2413 -0.1105 -0.5093
  121MOL    H1214652   2.007   0.960   2.622 -0.0387  0.8818 -0.3608
  121MOL    H1314653   1.866   1.024   2.558 -0.5486 -0.4382 -1.9707
  121MOL    C1414654   2.032   1.028   2.419 -0.5186  0.7615  0.1876
  121MOL    F1514655   2.133   0.953   2.369  0.0736  0.5205 -0.4121
  121MOL    F1614656   1.943   1.036   2.316  0.0483 -0.0536 -1.0153
  121MOL    C1714657   2.098   1.165   2.450 -0.8891 -0.2350  0.2266
  121MOL    H1814658   2.156   1.203   2.367 -0.9643  3.5691  1.8317
  121MOL    H1914659   2.173   1.155   2.528  0.5682  1.5503 -0.9233
  121MOL    C2014660   2.004   1.293   2.476 -0.3320  0.2283  0.1820
  121MOL    F2114661   1.936   1.281   2.587  0.0237 -0.1429  0.3011
  121MOL    F2214662   2.086   1.390   2.487  0.0302  0.1785  0.5728
  121MOL    C2314663   1.905   1.331   2.363  0.2345  0.1278  0.2920
  121MOL    H2414664   1.855   1.420   2.402  1.7488  1.2230 -0.2131
  121MOL    H2514665   1.833   1.250   2.367 -0.7730  1.0022  0.0939
  121MOL    C2614666   1.958   1.345   2.214  0.6725 -0.5106  0.1432
  121MOL    F2714667   2.072   1.419   2.224  0.4181 -0.1381 -0.1772
  121MOL    F2814668   1.996   1.224   2.178  0.3593  0.4905 -0.1461
  121MOL    C2914669   1.847   1.392   2.112  0.1520 -0.1781 -0.4711
  121MOL    H3014670   1.794   1.470   2.167 -0.1824 -1.1989  0.7085
  121MOL    H3114671   1.790   1.301   2.090  0.0723 -0.4495  0.7712
  121MOL    C3214672   1.900   1.442   1.981 -0.7149 -0.0402 -0.3274
  121MOL    F3314673   1.962   1.559   2.010 -0.1317  0.3809  0.3553
  121MOL    F3414674   1.984   1.345   1.935 -0.4613 -0.5981 -0.4169
  121MOL    C3514675   1.786   1.486   1.883 -0.4840  0.1579  0.1113
  121MOL    H3614676   1.718   1.555   1.933  0.0195  0.3015  0.5971
  121MOL    H3714677   1.714   1.403   1.876  1.3407 -1.3827 -0.7331
  121MOL    C3814678   1.818   1.539   1.748  0.4203 -0.2253  0.0876
  121MOL    F3914679   1.705   1.579   1.702 -0.0472 -0.4885 -0.1523
  121MOL    F4014680   1.887   1.650   1.768  0.1262  0.0446  0.3773
  121MOL    C4114681   1.879   1.447   1.650  0.0988 -0.5803  0.4503
  121MOL    H4214682   1.805   1.374   1.616 -0.1529 -0.9128  1.6885
  121MOL    H4314683   1.959   1.387   1.695  0.1487 -1.4700 -0.7880
  121MOL    C4414684   1.935   1.529   1.537 -0.0145  0.0458  0.4594
  121MOL    F4514685   2.033   1.610   1.578 -0.1228  0.1602  0.4474
  121MOL    F4614686   1.993   1.438   1.454 -0.1570 -0.3992 -0.1806
  121MOL    C4714687   1.831   1.610   1.459  0.2613  0.4066 -0.2344
  121MOL    H4814688   1.785   1.683   1.526 -0.9772  0.5310 -1.2018
  121MOL    H4914689   1.750   1.539   1.441  0.2588  1.0798 -3.0939
  121MOL    C5014690   1.883   1.676   1.329 -0.3558  0.3166  0.1500
  121MOL    F5114691   1.943   1.581   1.253 -0.7730 -1.0047  0.2394
  121MOL    F5214692   1.777   1.730   1.263  0.3036  0.6056 -0.1468
  121MOL    C5314693   1.986   1.789   1.345 -0.2372  0.2813 -0.3062
  121MOL    H5414694   2.016   1.821   1.246 -2.9889 -1.2929 -1.7110
  121MOL    H5514695   2.077   1.744   1.385 -0.1848 -0.5232 -1.3181
  121MOL    C5614696   1.953   1.905   1.434 -0.3338  0.2536 -0.1058
  121MOL    F5714697   1.892   1.870   1.542  0.2233 -0.1857  0.3756
  121MOL    F5814698   2.061   1.980   1.461  0.4841  0.2394  0.4166
  121MOL    C5914699   1.852   2.010   1.390  0.7557 -0.6684  0.4218
  121MOL    H6014700   1.833   2.073   1.476 -0.0526  0.0197 -0.2587
  121MOL    H6114701   1.760   1.954   1.370  0.1926  0.6161 -0.7175
  121MOL    C6214702   1.880   2.101   1.268  0.7483  0.1629  0.6112
  121MOL    F6314703   1.936   2.030   1.172 -0.4947  0.8109 -0.5703
  121MOL    F6414704   1.760   2.144   1.217 -0.1337  0.0962 -0.4181
  121MOL    C6514705   1.950   2.230   1.311  0.4742  0.2525  0.0010
  121MOL    H6614706   2.029   2.211   1.383 -0.3211 -0.6988  0.6340
  121MOL    H6714707   1.874   2.295   1.356  1.1668  1.8840 -1.1266
  121MOL    C6814708   2.027   2.308   1.196 -0.8185  0.1711 -0.1077
  121MOL    F6914709   2.099   2.412   1.239  0.3588 -0.4400 -0.1146
  121MOL    F7014710   2.106   2.239   1.119 -0.2065  0.1760  0.5238
  121MOL    C7114711   1.931   2.363   1.092 -0.1194 -0.4520 -0.6843
  121MOL    H7214712   1.880   2.280   1.044  1.0646 -1.8697  0.4384
  121MOL    H7314713   1.977   2.415   1.008 -0.8578  1.4436  0.0616
  121MOL    C7414714   1.826   2.470   1.139 -0.5573 -0.1047  0.3214
  121MOL    F7514715   1.737   2.422   1.227 -0.1251  0.0527 -0.8110
  121MOL    F7614716   1.894   2.572   1.197 -0.7546  0.1294 -0.4794
  121MOL    C7714717   1.754   2.527   1.018  0.2914 -0.2828  0.3294
  121MOL    H7814718   1.725   2.467   0.932  0.1492  1.5693 -0.9338
  121MOL    H7914719   1.827   2.595   0.975 -0.3979  0.0513 -0.3183
  121MOL    C8014720   1.629   2.612   1.043 -0.4467  0.0917  0.3088
  121MOL    F8114721   1.527   2.528   1.075 -0.2108 -0.1246  0.0334
  121MOL    F8214722   1.656   2.679   1.156  0.1913 -0.0842  0.8194
  121MOL    C8314723   1.590   2.715   0.939  0.6540 -0.4043 -0.5595
  121MOL    H8414724   1.685   2.767   0.935  2.3962 -3.3578  0.4037
  121MOL    H8514725   1.525   2.789   0.985  0.8926 -1.4937  1.5960
  121MOL    C8614726   1.545   2.664   0.801 -0.6527  0.2284 -0.0722
  121MOL    F8714727   1.516   2.764   0.721  0.4409  0.3796  0.7348
  121MOL    F8814728   1.657   2.614   0.748  0.4627 -0.4012  1.0032
  121MOL    C8914729   1.417   2.588   0.823 -0.4308 -0.2499  0.1673
  121MOL    H9014730   1.343   2.640   0.884  0.4848 -1.4069  2.2855
  121MOL    H9114731   1.435   2.489   0.866 -3.4848  0.2588  2.8449
  121MOL    C9214732   1.341   2.545   0.694  0.1282 -0.5896 -1.0350
  121MOL    F9314733   1.235   2.476   0.732 -0.0143 -0.0788 -0.0031
  121MOL    F9414734   1.297   2.651   0.638  0.2430 -0.5182  0.6533
  121MOL    C9514735   1.436   2.472   0.590  0.7306  0.2466 -0.2982
  121MOL    H9614736   1.477   2.381   0.635  1.0790  1.0146  0.9583
  121MOL    H9714737   1.524   2.530   0.566  0.3632  0.9134 -0.0419
  121MOL    C9814738   1.369   2.438   0.456 -1.0069 -0.4032 -0.0150
  121MOL    F9914739   1.252   2.376   0.482 -0.2662 -1.0989  0.1397
  121MOL   F10014740   1.346   2.548   0.390 -0.2010 -0.3312 -0.2306
  121MOL   C10114741   1.460   2.354   0.361  0.1837  0.3129 -0.5630
  121MOL   H10214742   1.545   2.418   0.339  0.8363  0.8779  3.2835
  121MOL   H10314743   1.405   2.349   0.267 -1.0154 -0.7882  0.1803
  121MOL   C10414744   1.512   2.223   0.413  0.3772 -0.3844  0.0097
  121MOL   F10514745   1.608   2.244   0.489  0.5085 -0.0215 -0.6948
  121MOL   F10614746   1.418   2.157   0.477  0.1243  0.3585 -0.0023
  121MOL   C10714747   1.570   2.137   0.288  0.1613 -0.0580 -0.2146
  121MOL   H10814748   1.645   2.197   0.235  2.2017 -2.2653  0.0916
  121MOL   H10914749   1.486   2.119   0.222  0.1183 -1.7636  0.2870
  121MOL   C11014750   1.650   2.009   0.322  0.7571 -0.6830 -0.3132
  121MOL   F11114751   1.676   1.953   0.206  0.2248  0.0587 -0.9488
  121MOL   F11214752   1.770   2.044   0.371  0.4241 -0.0159  0.7051
  121MOL   C11314753   1.584   1.914   0.424  0.2014 -0.2745  0.6589
  121MOL   H11414754   1.476   1.905   0.418  0.0635  2.3033 -1.0903
  121MOL   H11514755   1.599   1.951   0.526 -2.0676 -1.6583  1.5471
  121MOL   C11614756   1.654   1.773   0.415  0.0206  0.8580 -0.6269
  121MOL   F11714757   1.614   1.710   0.303  0.2783  0.3677 -0.3340
  121MOL   F11814758   1.786   1.785   0.410 -0.1558  0.1110  0.3318
  121MOL   C11914759   1.622   1.680   0.539  0.7180 -0.3817  0.9055
  121MOL   H12014760   1.676   1.585   0.536  0.1439 -0.6697 -0.4213
  121MOL   H12114761   1.517   1.653   0.528  0.7276  0.4209 -1.3353
  121MOL   H12214762   1.639   1.737   0.630  0.9992 -0.1675  0.7197
  122MOL     C114763   6.819   7.035   7.351 -0.2231 -0.6504  0.6436
  122MOL     F214764   6.883   7.110   7.259 -0.8222  0.0324 -0.1707
  122MOL     F314765   6.810   6.912   7.295  0.1362  0.7618 -0.1675
  122MOL     C414766   6.675   7.090   7.377  0.3931 -0.2654 -0.3599
  122MOL     H514767   6.678   7.162   7.459  0.4616  0.9171 -1.3877
  122MOL     H614768   6.614   7.004   7.404  0.1400 -0.0694 -0.3078
  122MOL     H714769   6.877   7.038   7.443  0.5721  1.3510  0.0975
  122MOL     C814770   6.595   7.138   7.251  0.2956  0.1196 -0.0955
  122MOL     F914771   6.468   7.161   7.285 -0.1159  0.5208 -0.0775
  122MOL    F1014772   6.650   7.249   7.208  0.5019 -0.1033  0.0569
  122MOL    C1114773   6.586   7.030   7.141 -0.1295  0.2102 -0.2868
  122MOL    H1214774   6.553   6.934   7.180 -0.5802  0.0682 -1.0187
  122MOL    H1314775   6.687   7.019   7.100 -0.4958 -2.0388 -0.6354
  122MOL    C1414776   6.495   7.062   7.019 -0.0835 -0.2173  0.1041
  122MOL    F1514777   6.362   7.093   7.048 -0.3878  0.0019 -0.1349
  122MOL    F1614778   6.549   7.163   6.953 -0.0647  0.4677  0.1405
  122MOL    C1714779   6.490   6.955   6.912 -0.3308 -0.2684 -0.3548
  122MOL    H1814780   6.464   6.858   6.954 -0.0491  0.0492  0.5853
  122MOL    H1914781   6.593   6.944   6.877  0.4879  2.5489  0.9968
  122MOL    C2014782   6.408   6.977   6.778  0.3543  0.1662 -0.3305
  122MOL    F2114783   6.436   6.860   6.723 -0.6140 -0.2879  0.3704
  122MOL    F2214784   6.287   6.987   6.816 -0.5846  0.2908  0.2044
  122MOL    C2314785   6.446   7.096   6.698 -0.5187  0.1451 -0.7427
  122MOL    H2414786   6.552   7.083   6.676 -0.1916  1.1945  0.1809
  122MOL    H2514787   6.438   7.189   6.756  1.1856  0.7247 -1.3876
  122MOL    C2614788   6.371   7.109   6.565 -0.2589 -0.3962 -0.1511
  122MOL    F2714789   6.411   7.221   6.501  0.3926 -0.5384  0.1762
  122MOL    F2814790   6.389   6.997   6.488  0.5760 -0.7205 -0.0337
  122MOL    C2914791   6.218   7.141   6.598 -0.1011 -0.3200 -0.2336
  122MOL    H3014792   6.233   7.220   6.672  1.2182  0.1780 -1.0019
  122MOL    H3114793   6.171   7.055   6.644  1.5807 -0.4235  1.3638
  122MOL    C3214794   6.147   7.197   6.472  0.5206 -0.9364 -0.3119
  122MOL    F3314795   6.199   7.317   6.446 -0.2592 -0.3782  0.1824
  122MOL    F3414796   6.168   7.105   6.377 -0.0561 -0.1715  0.2228
  122MOL    C3514797   5.992   7.207   6.482 -0.4907  0.1422 -0.3462
  122MOL    H3614798   5.953   7.119   6.534  0.1264 -0.3831 -0.7734
  122MOL    H3714799   5.951   7.217   6.382  0.2798  0.0374 -0.6755
  122MOL    C3814800   5.946   7.333   6.565  0.0707 -0.1922  0.8727
  122MOL    F3914801   6.030   7.338   6.666 -0.2829  0.4666 -0.6467
  122MOL    F4014802   5.961   7.449   6.503  0.2916  0.7022 -0.7312
  122MOL    C4114803   5.803   7.333   6.616  0.1144 -0.0586  0.2709
  122MOL    H4214804   5.796   7.405   6.697  0.9536 -0.1081  0.4008
  122MOL    H4314805   5.794   7.240   6.672  0.0793 -0.5225 -0.4897
  122MOL    C4414806   5.694   7.359   6.517 -0.3930 -0.1956  0.6782
  122MOL    F4514807   5.713   7.482   6.471  0.0932  0.2721  0.0024
  122MOL    F4614808   5.726   7.268   6.425  0.1495  0.4646 -0.0480
  122MOL    C4714809   5.548   7.345   6.571 -0.1842  0.6229 -0.1515
  122MOL    H4814810   5.543   7.243   6.607  1.9576 -0.3537 -2.4464
  122MOL    H4914811   5.480   7.352   6.486 -1.7982  0.6098  1.1227
  122MOL    C5014812   5.500   7.437   6.686 -0.2553 -0.1319 -0.1236
  122MOL    F5114813   5.568   7.416   6.797 -0.1507 -0.2008  0.0841
  122MOL    F5214814   5.514   7.564   6.657 -0.1087  0.3855  0.0973
  122MOL    C5314815   5.348   7.420   6.712  0.0665  0.5646 -0.5915
  122MOL    H5414816   5.342   7.317   6.746  1.1401 -0.4184 -3.1959
  122MOL    H5514817   5.279   7.435   6.628 -1.3042  1.1399  0.6161
  122MOL    C5614818   5.282   7.502   6.828  0.0699  0.7172  0.3393
  122MOL    F5714819   5.352   7.501   6.942  0.7130  0.5878 -0.2091
  122MOL    F5814820   5.279   7.633   6.791 -0.5457  0.3561  0.4318
  122MOL    C5914821   5.142   7.455   6.859  0.7277 -0.2692 -1.4775
  122MOL    H6014822   5.148   7.360   6.912  1.9870 -0.6196 -2.2407
  122MOL    H6114823   5.087   7.416   6.773  1.2199 -0.7910 -1.5574
  122MOL    C6214824   5.048   7.565   6.919 -0.6386  0.9557 -0.2183
  122MOL    F6314825   5.106   7.631   7.020 -0.1813 -0.3366  0.2689
  122MOL    F6414826   5.019   7.649   6.821 -0.3488  0.1761  0.0573
  122MOL    C6514827   4.915   7.497   6.969  0.3332 -0.3346 -0.1362
  122MOL    H6614828   4.949   7.437   7.053  2.4518  3.2653  1.7393
  122MOL    H6714829   4.888   7.429   6.889  2.3698 -0.8810 -0.3763
  122MOL    C6814830   4.799   7.589   7.008 -0.2259  0.4081 -0.0660
  122MOL    F6914831   4.737   7.637   6.894  0.3681 -0.2589 -0.5476
  122MOL    F7014832   4.713   7.508   7.068 -0.4950 -0.0866  0.1158
  122MOL    C7114833   4.833   7.701   7.108 -0.1518 -0.0125 -0.4871
  122MOL    H7214834   4.910   7.750   7.048  1.2506 -1.4309  0.1362
  122MOL    H7314835   4.877   7.658   7.198 -2.6094  2.9828  2.2851
  122MOL    C7414836   4.719   7.799   7.149 -0.0517 -0.2653 -0.0086
  122MOL    F7514837   4.658   7.845   7.042  0.5093 -0.0707  0.0639
  122MOL    F7614838   4.628   7.723   7.209 -0.0368  0.0150  0.1802
  122MOL    C7714839   4.771   7.916   7.243  0.5569 -0.6506 -1.2653
  122MOL    H7814840   4.848   7.973   7.190 -0.7803  3.7204  1.2615
  122MOL    H7914841   4.809   7.879   7.338  0.1718 -1.0367 -1.2610
  122MOL    C8014842   4.662   8.015   7.281 -0.5960  0.7650  0.1509
  122MOL    F8114843   4.634   8.086   7.174 -0.4666 -0.4401 -0.4000
  122MOL    F8214844   4.560   7.940   7.320  0.2165 -0.0475 -0.2031
  122MOL    C8314845   4.712   8.109   7.398 -0.5649 -0.1292  0.0039
  122MOL    H8414846   4.797   8.167   7.363 -2.3446  1.8474 -1.1745
  122MOL    H8514847   4.735   8.043   7.482 -0.8740  0.6410  0.6917
  122MOL    C8614848   4.609   8.215   7.449 -0.9303 -0.2324 -0.5780
  122MOL    F8714849   4.561   8.267   7.344  0.2915 -0.1407  0.0834
  122MOL    F8814850   4.517   8.146   7.512 -0.4650 -0.2581 -0.0576
  122MOL    C8914851   4.663   8.329   7.541 -0.0741  0.6835  0.0376
  122MOL    H9014852   4.584   0.049   7.568 -0.8048  1.2623 -3.3800
  122MOL    H9114853   4.739   0.031   7.482 -0.7084  0.9724 -0.5362
  122MOL    C9214854   4.722   8.273   7.674  0.1089 -0.6327 -0.1748
  122MOL    F9314855   4.813   8.181   7.639  0.1352 -0.0922  0.3147
  122MOL    F9414856   4.792   0.031   7.723 -0.0951 -0.0128  0.0602
  122MOL    C9514857   4.602   8.239   7.775  0.3289 -0.2805  0.0757
  122MOL    H9614858   4.524   8.173   7.739 -0.1891  0.4132 -0.0816
  122MOL    H9714859   4.552   8.335   7.784  0.4470 -0.2572  0.4745
  122MOL    C9814860   4.640   8.193   7.916 -0.2518 -0.1405 -0.0049
  122MOL    F9914861   4.750   8.118   7.903 -0.2655  0.1632  0.6421
  122MOL   F10014862   4.683   8.301   7.982  0.4159  0.0936 -0.3928
  122MOL   C10114863   4.531   8.120   7.999  1.2900 -0.2083  0.1012
  122MOL   H10214864   4.579   8.072   8.085  1.8379 -0.1384 -0.1654
  122MOL   H10314865   4.497   8.035   7.940  0.3760 -0.1857  0.5822
  122MOL   C10414866   4.406   8.199   8.040 -0.0896 -0.4995 -0.0690
  122MOL   F10514867   4.350   8.236   7.924 -0.2456  0.1700  0.1194
  122MOL   F10614868   4.326   8.110   8.101  0.1199 -0.2146  0.1700
  122MOL   C10714869   4.440   8.325   8.123 -0.1983 -0.7133 -0.4024
  122MOL   H10814870   4.489   0.051   8.061 -1.9848 -1.5175 -2.8757
  122MOL   H10914871   4.506   8.307   8.208 -2.8087 -1.6384  1.4794
  122MOL   C11014872   4.319   0.048   8.177  0.2060  0.2475  1.0955
  122MOL   F11114873   4.215   0.018   8.088 -0.0062  0.3805  0.7075
  122MOL   F11214874   4.292   8.344   8.299  0.0048  0.6230  0.3084
  122MOL   C11314875   4.333   0.203   8.192  0.5417 -0.2035 -0.0358
  122MOL   H11414876   4.234   0.240   8.218  0.2073 -0.9111 -0.2914
  122MOL   H11514877   4.370   0.250   8.101  1.4949 -0.2606  0.3213
  122MOL   C11614878   4.421   0.256   8.305 -0.0724  0.4872  0.3236
  122MOL   F11714879   4.370   0.222   0.072  0.3244  0.3934  0.4956
  122MOL   F11814880   4.547   0.207   8.305 -0.2438 -0.2681  0.2389
  122MOL   C11914881   4.439   0.403   8.308  0.2475  0.5669 -0.0980
  122MOL   H12014882   4.346   0.459   8.317 -0.1171  0.1232 -1.1264
  122MOL   H12114883   4.487   0.426   8.213 -1.5126  1.1561 -0.8510
  122MOL   H12214884   4.505   0.437   0.039  0.0565 -1.9526  1.1745
  123MOL     C114885   5.068   0.958   7.150  0.3087  0.7755 -0.1218
  123MOL     F214886   5.038   1.015   7.265  0.3868  0.0850 -0.3199
  123MOL     F314887   5.032   0.826   7.159  0.2409 -0.3486  0.0641
  123MOL     C414888   5.212   0.977   7.107  0.6065 -0.2546  0.2162
  123MOL     H514889   5.286   0.918   7.160 -0.4691 -0.7954  1.1262
  123MOL     H614890   5.239   1.080   7.132 -0.5552 -0.4369  2.2652
  123MOL     H714891   5.005   1.017   7.083 -2.5464 -0.5510  1.3174
  123MOL     C814892   5.236   0.959   6.950  0.2290 -0.4723  0.6513
  123MOL     F914893   5.211   0.827   6.926  0.6055 -0.5881 -0.3203
  123MOL    F1014894   5.151   1.036   6.885 -0.2651  0.7190 -0.3348
  123MOL    C1114895   5.382   0.992   6.914  0.1243 -0.2410 -0.1526
  123MOL    H1214896   5.445   0.924   6.971  2.7060  1.8205 -0.4315
  123MOL    H1314897   5.399   1.095   6.945  0.1866 -0.0335 -0.8570
  123MOL    C1414898   5.421   0.979   6.767  0.5003 -0.3202 -0.8104
  123MOL    F1514899   5.341   1.064   6.710 -0.0094 -0.0232  0.1454
  123MOL    F1614900   5.553   1.018   6.759 -0.2260 -0.1690  0.0069
  123MOL    C1714901   5.396   0.841   6.708  0.0818 -0.4685  0.3482
  123MOL    H1814902   5.288   0.827   6.706  0.1185 -0.6253 -0.7937
  123MOL    H1914903   5.453   0.766   6.764  1.2847  1.0428  1.1861
  123MOL    C2014904   5.451   0.836   6.562  0.4488  1.0855 -0.2106
  123MOL    F2114905   5.471   0.959   6.511 -0.2636  0.4398  0.2225
  123MOL    F2214906   5.571   0.785   6.566 -0.0140 -0.3020  0.1650
  123MOL    C2314907   5.361   0.755   6.463 -0.2109 -0.2298  0.1016
  123MOL    H2414908   5.356   0.652   6.499  1.2678  0.3737  2.1448
  123MOL    H2514909   5.408   0.745   6.365 -0.4346  0.5297 -0.0820
  123MOL    C2614910   5.217   0.796   6.436  0.0372  0.1303 -0.5727
  123MOL    F2714911   5.161   0.691   6.371  0.0616  0.3089 -0.0246
  123MOL    F2814912   5.146   0.815   6.551  0.4201  0.2753  0.7834
  123MOL    C2914913   5.212   0.918   6.346 -0.4440  0.3865 -0.4643
  123MOL    H3014914   5.278   0.909   6.260 -1.6525 -0.2911 -1.3238
  123MOL    H3114915   5.254   1.002   6.402 -1.1297  0.4744 -0.0737
  123MOL    C3214916   5.063   0.960   6.308  0.1164  0.5034 -0.5466
  123MOL    F3314917   5.073   1.085   6.264  0.6483 -0.4026 -0.2060
  123MOL    F3414918   5.036   0.881   6.207  0.0502 -0.3735 -0.2601
  123MOL    C3514919   4.951   0.960   6.418 -0.1521  0.4253  0.5464
  123MOL    H3614920   4.979   1.038   6.488 -1.7563  0.5969  1.0042
  123MOL    H3714921   4.942   0.866   6.472 -0.2492  0.7820  1.1466
  123MOL    C3814922   4.814   1.017   6.366 -0.9127 -0.3989  0.0176
  123MOL    F3914923   4.730   0.993   6.460 -0.4347  0.4825  0.2400
  123MOL    F4014924   4.831   1.149   6.354  0.4678  0.2078 -0.3836
  123MOL    C4114925   4.754   0.961   6.228 -0.4930 -0.4544  0.0458
  123MOL    H4214926   4.737   0.855   6.244 -0.6118 -0.4525 -0.0650
  123MOL    H4314927   4.827   0.970   6.148  1.0934  2.3380  1.6992
  123MOL    C4414928   4.621   1.030   6.184 -0.0563  1.2662  0.1736
  123MOL    F4514929   4.653   1.153   6.141 -0.0804 -0.5384  0.1982
  123MOL    F4614930   4.579   0.959   6.074 -0.5861 -0.5359 -0.1094
  123MOL    C4714931   4.510   1.047   6.290 -0.6080 -0.6794 -0.5248
  123MOL    H4814932   4.436   1.120   6.259  0.9158  1.5911  1.0154
  123MOL    H4914933   4.565   1.104   6.365  1.0483 -1.2061 -1.3128
  123MOL    C5014934   4.437   0.922   6.346  0.2416  0.1793 -0.6574
  123MOL    F5114935   4.377   0.865   6.235 -0.4114  0.2950  0.4457
  123MOL    F5214936   4.518   0.832   6.402  0.3685  0.3840  0.2868
  123MOL    C5314937   4.329   0.962   6.449 -0.3161 -0.3794  0.4900
  123MOL    H5414938   4.259   1.023   6.392 -1.3072 -1.7520  0.2200
  123MOL    H5514939   4.372   1.033   6.520  0.4732 -0.7601  0.3936
  123MOL    C5614940   4.262   0.851   6.527  0.6229 -0.5887 -0.5268
  123MOL    F5714941   4.147   0.904   6.575 -0.3467  0.3879  0.4588
  123MOL    F5814942   4.236   0.745   6.453  0.2924 -0.1320  0.5014
  123MOL    C5914943   4.336   0.808   6.653 -0.6243  0.3732 -0.3389
  123MOL    H6014944   4.326   0.878   6.735  2.5843 -1.3716  1.6318
  123MOL    H6114945   4.444   0.806   6.644 -0.5187 -0.1748  1.0666
  123MOL    C6214946   4.303   0.659   6.698  0.2679 -0.2373  0.6679
  123MOL    F6314947   4.347   0.572   6.611 -0.5842 -0.0888  0.0531
  123MOL    F6414948   4.371   0.652   6.807 -0.1271  0.4107  0.2738
  123MOL    C6514949   4.156   0.631   6.741 -0.0563 -0.2767 -0.1540
  123MOL    H6614950   4.096   0.656   6.654  1.1269  0.0995 -0.8754
  123MOL    H6714951   4.122   0.708   6.810 -0.8813  0.7771 -1.7093
  123MOL    C6814952   4.124   0.490   6.791 -0.0696  0.2647  0.3836
  123MOL    F6914953   3.992   0.488   6.780  0.2096  0.8602 -0.3094
  123MOL    F7014954   4.160   0.392   6.714 -0.8771 -0.1403  0.3421
  123MOL    C7114955   4.177   0.451   6.936  0.4446 -0.1074  0.2228
  123MOL    H7214956   4.285   0.443   6.940  0.4938 -0.0757 -0.7810
  123MOL    H7314957   4.127   0.356   6.952  1.2129 -0.1821  2.3142
  123MOL    C7414958   4.126   0.532   7.055  0.0324 -0.1495  0.0519
  123MOL    F7514959   4.180   0.653   7.064 -0.2179  1.1222  0.4194
  123MOL    F7614960   3.999   0.555   7.040  0.1380  0.2874  0.2791
  123MOL    C7714961   4.146   0.460   7.189 -0.4912 -0.2805  0.4832
  123MOL    H7814962   4.080   0.374   7.202  0.8784 -1.1985  1.5018
  123MOL    H7914963   4.097   0.523   7.263 -2.2386 -0.4649 -0.5010
  123MOL    C8014964   4.288   0.409   7.229 -0.0422 -0.1765 -0.0579
  123MOL    F8114965   4.275   0.358   7.352  0.4766  0.0023 -0.3423
  123MOL    F8214966   4.320   0.316   7.145 -0.1087  0.2034  0.0409
  123MOL    C8314967   4.395   0.516   7.221  0.2213  0.1703  0.2312
  123MOL    H8414968   4.395   0.565   7.124  0.6893 -0.2407  0.0222
  123MOL    H8514969   4.489   0.461   7.229  1.5335  2.5686  1.7115
  123MOL    C8614970   4.400   0.616   7.338 -0.4953 -0.1583  0.6851
  123MOL    F8714971   4.286   0.674   7.320  0.1669  0.3399 -0.0139
  123MOL    F8814972   4.400   0.559   7.457  0.8226 -0.1417  0.3786
  123MOL    C8914973   4.522   0.711   7.332 -0.0990 -0.0250 -1.0979
  123MOL    H9014974   4.618   0.659   7.334  0.4669  1.0412  0.4555
  123MOL    H9114975   4.525   0.772   7.422  1.9655 -1.0403 -0.4370
  123MOL    C9214976   4.534   0.808   7.210 -0.3958 -0.1163  0.1826
  123MOL    F9314977   4.652   0.869   7.218 -0.0282 -0.3960  0.1464
  123MOL    F9414978   4.527   0.727   7.108 -0.1413 -0.0653 -0.2081
  123MOL    C9514979   4.427   0.920   7.191 -0.1277  0.0369 -0.2403
  123MOL    H9614980   4.325   0.883   7.190 -0.8891  2.0485 -2.0749
  123MOL    H9714981   4.436   0.962   7.090  0.0107  1.6764  0.4318
  123MOL    C9814982   4.433   1.040   7.293 -0.0314 -0.7018  0.1870
  123MOL    F9914983   4.440   1.003   7.418 -0.0172  0.3579  0.1901
  123MOL   F10014984   4.549   1.112   7.268  0.0566 -0.1392 -0.4256
  123MOL   C10114985   4.311   1.142   7.283 -0.2528  0.8913 -0.1600
  123MOL   H10214986   4.327   1.216   7.360 -0.6093  2.0666 -1.1971
  123MOL   H10314987   4.223   1.082   7.308  0.8339 -0.3202  0.8274
  123MOL   C10414988   4.300   1.230   7.155  0.0978  0.0664  0.2524
  123MOL   F10514989   4.399   1.316   7.148 -0.0931 -0.3931 -0.0157
  123MOL   F10614990   4.307   1.154   7.043 -0.1393 -0.5358  0.1136
  123MOL   C10714991   4.166   1.298   7.139 -0.6446 -0.1771 -0.0134
  123MOL   H10814992   4.092   1.219   7.129  1.2068 -2.2276  1.8107
  123MOL   H10914993   4.163   1.364   7.053  0.8635 -0.0036  0.0510
  123MOL   C11014994   4.129   1.385   7.259 -0.7561 -0.4485  0.0971
  123MOL   F11114995   4.105   1.305   7.366  0.0992 -0.0343  0.2989
  123MOL   F11214996   4.233   1.458   7.292 -0.4971  0.3123  0.0162
  123MOL   C11314997   4.009   1.477   7.229  0.3903 -0.1887 -0.5778
  123MOL   H11414998   3.917   1.422   7.212  0.9342 -1.5195  0.6626
  123MOL   H11514999   4.032   1.523   7.133 -0.5031 -0.8753 -1.1295
  123MOL   C11615000   3.969   1.581   7.333 -0.3601  0.2479 -0.1291
  123MOL   F11715001   3.952   1.523   7.455 -0.3701  0.1875 -0.1260
  123MOL   F11815002   4.059   1.682   7.338 -0.3874  0.5130 -0.3170
  123MOL   C11915003   3.829   1.647   7.301 -0.3513 -0.1082 -0.2777
  123MOL   H12015004   3.810   1.711   7.388 -1.0244 -1.4809  0.6114
  123MOL   H12115005   3.747   1.576   7.293  0.5038 -1.0632 -0.5679
  123MOL   H12215006   3.830   1.718   7.218  1.5602  2.0867  1.5412
  124MOL     C115007   6.866   1.513   4.939 -0.7674  0.2462  0.0471
  124MOL     F215008   6.872   1.450   4.823  0.1755 -0.3846 -0.2125
  124MOL     F315009   6.982   1.502   4.998 -0.2953 -0.3854 -0.6956
  124MOL     C415010   6.750   1.449   5.029  0.0614 -0.3951 -0.0612
  124MOL     H515011   6.773   1.351   5.071 -1.3269 -0.2259  1.1286
  124MOL     H615012   6.664   1.443   4.961 -0.8760  2.7829  0.7699
  124MOL     H715013   6.857   1.615   4.902 -1.6719 -0.6166 -2.1578
  124MOL     C815014   6.701   1.556   5.126  0.4461  0.0869 -0.2786
  124MOL     F915015   6.805   1.604   5.194  0.1609  0.4322  0.0698
  124MOL    F1015016   6.642   1.657   5.059 -0.2526  0.0734 -0.2650
  124MOL    C1115017   6.613   1.492   5.233  0.4750 -0.3657 -0.6060
  124MOL    H1215018   6.675   1.416   5.282 -1.1117 -1.5005 -0.3450
  124MOL    H1315019   6.538   1.431   5.183  0.6412 -0.6785 -0.4771
  124MOL    C1415020   6.549   1.597   5.332 -0.4372 -0.0538  0.2982
  124MOL    F1515021   6.651   1.658   5.394  0.5847  0.1311 -0.1750
  124MOL    F1615022   6.471   1.681   5.263 -0.2129  0.3564 -0.0514
  124MOL    C1715023   6.459   1.557   5.453  0.4868 -0.2880 -0.0953
  124MOL    H1815024   6.371   1.520   5.400 -1.1640  1.9612  1.0040
  124MOL    H1915025   6.425   1.645   5.507 -1.5349 -1.6468  0.9449
  124MOL    C2015026   6.510   1.458   5.562  0.1310  0.2347 -0.1550
  124MOL    F2115027   6.405   1.423   5.629 -0.4148 -0.2743 -0.0085
  124MOL    F2215028   6.554   1.355   5.497 -0.0412 -0.3501  0.5513
  124MOL    C2315029   6.612   1.510   5.654 -0.4236 -0.0357 -0.7465
  124MOL    H2415030   6.594   1.609   5.695  0.8254  0.2678 -0.9267
  124MOL    H2515031   6.704   1.530   5.600  2.1365  0.1583  3.4653
  124MOL    C2615032   6.635   1.415   5.778 -0.4456 -0.2598  0.6182
  124MOL    F2715033   6.533   1.432   5.868 -0.0528 -0.3807 -0.1306
  124MOL    F2815034   6.641   1.290   5.733 -0.0048 -0.4616 -0.3499
  124MOL    C2915035   6.765   1.430   5.847  0.2361 -0.4609 -0.3262
  124MOL    H3015036   6.838   1.417   5.767 -0.6409 -0.9974 -1.0479
  124MOL    H3115037   6.783   1.350   5.919 -0.7914  1.5563  2.2425
  124MOL    C3215038   6.792   1.558   5.934  0.8543 -0.4427 -0.5589
  124MOL    F3315039   6.751   1.662   5.865  0.2994 -0.1164 -0.1072
  124MOL    F3415040   6.722   1.542   6.047  0.6984 -0.1471 -0.1325
  124MOL    C3515041   6.937   1.576   5.975 -0.1264  0.4794 -0.0488
  124MOL    H3615042   6.995   1.580   5.882  0.5233 -0.6673  0.2916
  124MOL    H3715043   6.972   1.489   6.032  1.1404  0.5536 -0.6941
  124MOL    C3815044   6.976   1.693   6.063 -0.1252 -0.2993  0.7217
  124MOL    F3915045   7.104   1.703   6.071 -0.5231 -0.6266  0.2225
  124MOL    F4015046   6.924   1.809   6.005 -0.0344  0.3386 -0.2760
  124MOL    C4115047   6.910   1.700   6.206  0.0845 -1.0697  0.1687
  124MOL    H4215048   6.908   1.602   6.254 -0.7313 -0.9196  0.4466
  124MOL    H4315049   6.804   1.715   6.190 -0.2114 -2.1155  1.0570
  124MOL    C4415050   6.962   1.805   6.304  0.4228  0.4139 -0.0978
  124MOL    F4515051   7.074   1.762   6.364  0.0110  0.4974  0.3359
  124MOL    F4615052   6.987   1.915   6.239  0.1108 -0.3965  0.1645
  124MOL    C4715053   6.861   1.826   6.418  0.8045  0.2557  0.3547
  124MOL    H4815054   6.858   1.733   6.475 -3.1813  0.7505  1.0927
  124MOL    H4915055   6.760   1.845   6.381  1.4156  1.4350 -0.7399
  124MOL    C5015056   6.889   1.949   6.509  0.2473 -0.3536 -0.2709
  124MOL    F5115057   7.012   1.933   6.567  0.4860 -0.2551  0.1027
  124MOL    F5215058   6.905   2.062   6.437 -0.0118 -0.2081 -0.1858
  124MOL    C5315059   6.786   1.963   6.626 -0.2568  0.0466  0.0727
  124MOL    H5415060   6.822   2.040   6.693  0.8029  0.5284 -1.0273
  124MOL    H5515061   6.782   1.869   6.682  2.4188  0.5816  1.2037
  124MOL    C5615062   6.642   2.012   6.591  0.2339 -0.0544  0.3688
  124MOL    F5715063   6.646   2.134   6.536  0.2115  0.0778 -0.1039
  124MOL    F5815064   6.595   1.938   6.493 -0.2114 -0.0205  0.0360
  124MOL    C5915065   6.545   2.026   6.708 -0.8779 -0.2560 -0.0632
  124MOL    H6015066   6.576   2.114   6.764 -2.1485  0.1690  0.0085
  124MOL    H6115067   6.544   1.933   6.766  1.1193 -0.5399 -0.4702
  124MOL    C6215068   6.394   2.049   6.671 -0.6927  0.1977 -0.0260
  124MOL    F6315069   6.399   2.157   6.594 -0.4619  0.0027  0.2085
  124MOL    F6415070   6.361   1.944   6.594  0.0190 -0.0854  0.2921
  124MOL    C6515071   6.297   2.064   6.791 -0.2922 -0.9230  0.1255
  124MOL    H6615072   6.299   1.973   6.850 -2.5096 -0.4791  0.9138
  124MOL    H6715073   6.196   2.076   6.751  1.0992  1.4935 -2.8531
  124MOL    C6815074   6.328   2.181   6.884 -0.9818 -0.3175  0.1523
  124MOL    F6915075   6.227   2.177   6.975  0.0770 -0.4840 -0.1248
  124MOL    F7015076   6.441   2.150   6.942  0.0358  0.2718  0.2651
  124MOL    C7115077   6.335   2.323   6.807 -0.0509  0.2719  0.3757
  124MOL    H7215078   6.250   2.337   6.740 -2.4032  1.8312  3.5149
  124MOL    H7315079   6.419   2.310   6.739 -0.2014 -2.4785  0.6713
  124MOL    C7415080   6.372   2.447   6.889 -0.4302  0.0377 -0.2012
  124MOL    F7515081   6.402   2.538   6.804 -0.3034 -0.1409 -0.1425
  124MOL    F7615082   6.260   2.471   6.954 -0.4999 -0.0417  0.2678
  124MOL    C7715083   6.489   2.435   6.984  0.1101  0.5814  0.5495
  124MOL    H7815084   6.573   2.390   6.930 -2.0568 -1.3153 -1.3131
  124MOL    H7915085   6.462   2.358   7.057 -0.6297  1.9896  1.7804
  124MOL    C8015086   6.517   2.559   7.076  1.1221 -0.0496  0.1148
  124MOL    F8115087   6.414   2.578   7.157  0.4903 -0.8102 -0.5162
  124MOL    F8215088   6.626   2.532   7.150 -0.3657  0.2483 -0.3692
  124MOL    C8315089   6.551   2.690   6.994 -0.3676 -0.8496  0.0023
  124MOL    H8415090   6.467   2.720   6.933  0.0895 -1.6724 -1.0374
  124MOL    H8515091   6.633   2.660   6.928 -0.4392  0.6805 -0.7877
  124MOL    C8615092   6.606   2.810   7.079 -0.3740  0.3004  0.4059
  124MOL    F8715093   6.531   2.821   7.186  0.3696  0.3824 -0.1688
  124MOL    F8815094   6.724   2.777   7.134  0.2725  0.6947 -0.1235
  124MOL    C8915095   6.618   2.945   7.013  0.1016 -0.2217 -0.2297
  124MOL    H9015096   6.679   3.010   7.075  0.9959 -0.6199 -0.6876
  124MOL    H9115097   6.515   2.980   7.003  0.2529  0.5332  0.7698
  124MOL    C9215098   6.696   2.953   6.875 -0.2249 -0.0774 -0.2937
  124MOL    F9315099   6.634   2.874   6.786 -0.2680 -0.8314 -0.0244
  124MOL    F9415100   6.686   3.079   6.826 -0.2173 -0.1603  0.4062
  124MOL    C9515101   6.843   2.907   6.866  1.0896  0.5478 -0.7551
  124MOL    H9615102   6.864   2.919   6.760  0.3332  1.8650 -0.7764
  124MOL    H9715103   6.843   2.801   6.888  3.0672  0.5411 -0.7241
  124MOL    C9815104   6.951   2.980   6.944 -0.0414  0.1891 -0.3781
  124MOL    F9915105   6.918   2.985   7.074 -0.1110  0.0888  0.1967
  124MOL   F10015106   7.058   2.910   6.930  0.1569 -0.1965 -0.0742
  124MOL   C10115107   6.980   3.121   6.876 -0.4664  0.8650  0.4048
  124MOL   H10215108   6.891   3.181   6.857 -1.2381 -0.1056  0.9026
  124MOL   H10315109   7.028   3.118   6.778 -2.7347  1.7694 -0.7904
  124MOL   C10415110   7.062   3.214   6.967 -0.1700  0.1762  0.7761
  124MOL   F10515111   6.969   3.240   7.057  0.3803  0.7646 -0.7360
  124MOL   F10615112   7.168   3.157   7.011  0.5348  1.0855  0.1802
  124MOL   C10715113   7.105   3.345   6.897 -0.5621  0.1818 -0.1689
  124MOL   H10815114   7.147   3.409   6.975  0.9772  0.3459 -1.1070
  124MOL   H10915115   7.018   3.397   6.857 -3.3989 -2.1682  2.6211
  124MOL   C11015116   7.210   3.335   6.775  0.6377  0.7866 -0.2907
  124MOL   F11115117   7.301   3.246   6.814  0.3265 -0.2251  0.1315
  124MOL   F11215118   7.156   3.287   6.661  0.0511 -0.3009  0.1243
  124MOL   C11315119   7.276   3.473   6.743  0.3043 -1.1784 -0.5239
  124MOL   H11415120   7.349   3.462   6.662 -2.3198  0.4158 -3.1961
  124MOL   H11515121   7.327   3.503   6.835  1.0249  0.4584 -1.4536
  124MOL   C11615122   7.180   3.588   6.703 -0.0479  0.5667  0.0764
  124MOL   F11715123   7.097   3.621   6.804 -0.3902  0.2696 -0.0159
  124MOL   F11815124   7.255   3.696   6.675 -0.5366 -0.5574  0.0951
  124MOL   C11915125   7.088   3.564   6.580 -0.4861  0.4593 -0.5477
  124MOL   H12015126   7.020   3.483   6.607 -0.4947  0.8656  0.6768
  124MOL   H12115127   7.142   3.527   6.493  0.8933  2.8281 -0.7336
  124MOL   H12215128   7.043   3.648   6.528 -0.5607  0.8561  0.1653
  125MOL     C115129   7.965   3.935   4.440  0.4093  0.2486  0.5086
  125MOL     F215130   8.020   3.810   4.455 -0.1963  0.3616  0.1184
  125MOL     F315131   8.064   4.017   4.447  0.1733 -0.4115 -0.1612
  125MOL     C415132   7.868   3.948   4.566 -0.5933  0.3699  0.5003
  125MOL     H515133   7.918   3.940   4.663 -0.6192 -0.7041  0.4288
  125MOL     H615134   7.819   3.851   4.569  0.3289 -0.0682  2.0697
  125MOL     H715135   7.915   3.938   4.343  3.8167 -2.7755 -1.5185
  125MOL     C815136   7.766   4.058   4.557  0.0183  0.7404 -0.1094
  125MOL     F915137   7.687   4.035   4.457 -0.2640  0.1567  0.1311
  125MOL    F1015138   7.694   4.058   4.674  0.0567 -0.3080  0.0689
  125MOL    C1115139   7.831   4.201   4.534  0.2685  0.5676 -0.1649
  125MOL    H1215140   7.899   4.211   4.450  0.7862  1.4710  0.3608
  125MOL    H1315141   7.893   4.226   4.619  1.7055 -0.7205 -0.8186
  125MOL    C1415142   7.739   4.330   4.521 -0.2948  0.4409  0.0846
  125MOL    F1515143   7.636   4.317   4.610  0.1290 -0.1054 -0.2453
  125MOL    F1615144   7.807   4.432   4.560 -0.4715 -0.0480  0.1558
  125MOL    C1715145   7.686   4.357   4.378 -0.1522  0.0573 -0.4853
  125MOL    H1815146   7.621   4.276   4.343 -0.7022  0.4361 -0.3398
  125MOL    H1915147   7.771   4.357   4.310 -0.6079 -1.7538 -1.1099
  125MOL    C2015148   7.616   4.486   4.359 -0.6933 -0.4041  0.2700
  125MOL    F2115149   7.519   4.479   4.451 -0.2907  0.1225  0.2082
  125MOL    F2215150   7.679   4.598   4.381 -0.4114 -0.1990 -0.2107
  125MOL    C2315151   7.547   4.496   4.222 -0.1667  0.3633 -0.0644
  125MOL    H2415152   7.477   4.578   4.232 -3.0888 -1.8054 -1.9065
  125MOL    H2515153   7.487   4.408   4.198  0.5281  0.0863 -0.8380
  125MOL    C2615154   7.638   4.533   4.107 -0.1470 -0.1164  0.3046
  125MOL    F2715155   7.711   4.640   4.127 -0.0052 -0.2380  0.6239
  125MOL    F2815156   7.720   4.426   4.089  0.1527 -0.2927  0.4552
  125MOL    C2915157   7.562   4.540   3.972 -0.0673 -0.7310 -0.0758
  125MOL    H3015158   7.474   4.604   3.975  0.2327 -0.2570 -1.3677
  125MOL    H3115159   7.504   4.448   3.970 -1.9778  0.3235  2.6335
  125MOL    C3215160   7.628   4.586   3.833  0.2676 -0.0332 -0.1943
  125MOL    F3315161   7.681   4.706   3.857 -0.3861  0.0017 -0.0709
  125MOL    F3415162   7.729   4.504   3.803  0.3904 -0.3178  0.0535
  125MOL    C3515163   7.526   4.592   3.717  0.4531  0.0147 -0.4953
  125MOL    H3615164   7.569   4.654   3.638  1.0542  0.0570 -0.1347
  125MOL    H3715165   7.440   4.653   3.743  1.8141  1.4368  0.7533
  125MOL    C3815166   7.478   4.456   3.657  0.7483  0.0276 -0.1172
  125MOL    F3915167   7.587   4.381   3.626  0.5484  0.7215  0.2176
  125MOL    F4015168   7.420   4.383   3.751 -0.2136  0.0839 -0.2601
  125MOL    C4115169   7.392   4.476   3.527 -0.2111 -0.1181  0.1476
  125MOL    H4215170   7.459   4.535   3.464 -1.5496  2.2684  0.8626
  125MOL    H4315171   7.308   4.540   3.554  0.0184 -0.3620  1.4355
  125MOL    C4415172   7.360   4.346   3.447 -0.3823  0.4080  0.2125
  125MOL    F4515173   7.459   4.305   3.377  0.3910  0.1051 -0.0302
  125MOL    F4615174   7.337   4.250   3.535  0.0131 -0.3434  0.3464
  125MOL    C4715175   7.250   4.360   3.339  0.1851 -0.6477 -0.3944
  125MOL    H4815176   7.236   4.267   3.284  0.9201 -1.1832  0.3214
  125MOL    H4915177   7.283   4.429   3.261 -0.7421  0.4772  0.1943
  125MOL    C5015178   7.108   4.396   3.387 -0.2169  0.1450  0.3067
  125MOL    F5115179   7.110   4.519   3.437 -0.1786 -0.1105 -0.0694
  125MOL    F5215180   7.026   4.404   3.280 -0.0569  0.1652 -0.0785
  125MOL    C5315181   7.058   4.295   3.485  0.2079 -0.1058  0.4340
  125MOL    H5415182   7.099   4.310   3.585  1.1615  1.6659 -0.2043
  125MOL    H5515183   7.101   4.201   3.448 -1.3620 -1.6552  2.4499
  125MOL    C5615184   6.906   4.268   3.499  0.9055 -0.4138  0.4393
  125MOL    F5715185   6.844   4.381   3.531 -0.1297  0.4807  0.2198
  125MOL    F5815186   6.853   4.230   3.380  0.1413  0.2430 -0.1484
  125MOL    C5915187   6.869   4.148   3.586  0.0771 -0.0411 -0.2924
  125MOL    H6015188   6.939   4.066   3.568  2.0886  0.9835  2.6056
  125MOL    H6115189   6.769   4.114   3.558  1.0592 -1.1419 -2.6632
  125MOL    C6215190   6.870   4.163   3.743 -0.1845  0.8992 -0.2655
  125MOL    F6315191   6.847   4.046   3.803 -0.1113 -0.4995 -0.0175
  125MOL    F6415192   6.985   4.213   3.776 -0.2336  0.0473  0.0154
  125MOL    C6515193   6.763   4.265   3.808  0.0789 -0.7095  0.3000
  125MOL    H6615194   6.793   4.369   3.794  1.8581 -1.1839  0.4062
  125MOL    H6715195   6.766   4.245   3.915  0.7269 -0.8654  0.2525
  125MOL    C6815196   6.615   4.255   3.756 -0.4929 -0.2118  0.0926
  125MOL    F6915197   6.611   4.306   3.631 -0.1362 -0.1430 -0.0385
  125MOL    F7015198   6.577   4.131   3.742 -0.1746 -0.2092 -0.2336
  125MOL    C7115199   6.524   4.323   3.855 -0.9917  1.1095  0.3361
  125MOL    H7215200   6.553   4.424   3.885  0.8824  0.9503 -0.8656
  125MOL    H7315201   6.529   4.263   3.946 -1.9990  1.6849  0.7764
  125MOL    C7415202   6.379   4.344   3.804  0.2217 -0.1563 -0.2666
  125MOL    F7515203   6.376   4.414   3.690 -0.2012 -0.1469 -0.3233
  125MOL    F7615204   6.330   4.224   3.776 -0.1604  0.5470 -0.0980
  125MOL    C7715205   6.288   4.423   3.899  0.7905  0.3028 -0.2110
  125MOL    H7815206   6.185   4.415   3.864  0.7804  0.2915 -0.1795
  125MOL    H7915207   6.300   4.531   3.892 -1.5694  0.5117 -1.9504
  125MOL    C8015208   6.303   4.397   4.046  0.4818  0.1087  0.5134
  125MOL    F8115209   6.327   4.272   4.076 -0.1033  0.1267 -0.1383
  125MOL    F8215210   6.406   4.465   4.093  0.3134 -0.6993 -0.1061
  125MOL    C8315211   6.178   4.438   4.122  0.7668  0.1606  0.4707
  125MOL    H8415212   6.105   4.360   4.101  0.2887  0.9504 -0.8970
  125MOL    H8515213   6.139   4.535   4.089  0.1012 -0.1509  0.3398
  125MOL    C8615214   6.191   4.462   4.271  0.0674 -0.3381 -0.3515
  125MOL    F8715215   6.245   4.356   4.328 -0.2971 -0.6211  0.2636
  125MOL    F8815216   6.269   4.571   4.290 -0.1213  0.5506  0.2734
  125MOL    C8915217   6.050   4.495   4.336  1.0351 -0.6150 -0.3989
  125MOL    H9015218   5.970   4.424   4.316 -2.4948  2.6561  1.4281
  125MOL    H9115219   6.014   4.581   4.279 -0.9941 -1.1110  0.1102
  125MOL    C9215220   6.038   4.506   4.487 -0.1276  0.2669  0.0149
  125MOL    F9315221   6.114   4.409   4.527 -0.3185 -0.5902 -0.2766
  125MOL    F9415222   6.100   4.618   4.519  0.3674 -0.2674 -0.3752
  125MOL    C9515223   5.886   4.494   4.528  0.3645  0.4977  0.2039
  125MOL    H9615224   5.862   4.387   4.526  1.8220  0.1597  0.3681
  125MOL    H9715225   5.824   4.530   4.446 -1.4767 -1.9826  0.4469
  125MOL    C9815226   5.853   4.550   4.669 -0.1491 -0.2521 -0.5475
  125MOL    F9915227   5.728   4.513   4.687 -0.2899  0.3655  0.4270
  125MOL   F10015228   5.930   4.483   4.763  0.3020  0.9323 -0.7019
  125MOL   C10115229   5.868   4.703   4.684  0.3059  0.1023 -0.1422
  125MOL   H10215230   5.968   4.743   4.669 -0.5125  1.8140 -1.2381
  125MOL   H10315231   5.824   4.729   4.780  0.6170  1.6954 -0.4142
  125MOL   C10415232   5.790   4.782   4.581  0.1328  0.3956  0.0915
  125MOL   F10515233   5.809   4.908   4.625 -0.0824 -0.6548 -0.8872
  125MOL   F10615234   5.846   4.771   4.462  0.2750 -0.7281  0.0027
  125MOL   C10715235   5.644   4.752   4.556  0.7519 -0.5330  0.1410
  125MOL   H10815236   5.626   4.649   4.527  0.9517 -0.2322 -1.0880
  125MOL   H10915237   5.616   4.808   4.466 -0.8914 -2.2164 -0.4287
  125MOL   C11015238   5.543   4.803   4.668  0.8255  0.3377  0.1253
  125MOL   F11115239   5.575   4.749   4.784  0.2026  0.4011 -0.0820
  125MOL   F11215240   5.549   4.941   4.688 -0.1450 -0.0124  0.4479
  125MOL   C11315241   5.400   4.751   4.625 -0.2457  0.1479 -0.2335
  125MOL   H11415242   5.390   4.642   4.625 -0.2439  0.1416  0.7262
  125MOL   H11515243   5.385   4.778   4.521  1.9841 -0.1826 -0.6622
  125MOL   C11615244   5.283   4.798   4.715  0.6223 -0.2430 -0.5414
  125MOL   F11715245   5.288   4.737   4.829 -1.0999  0.9534  0.3636
  125MOL   F11815246   5.298   4.930   4.737 -0.3983 -0.3708 -0.2295
  125MOL   C11915247   5.137   4.767   4.662 -0.1339 -0.4244 -0.1347
  125MOL   H12015248   5.056   4.800   4.726  0.9749  0.7651  0.6819
  125MOL   H12115249   5.122   4.660   4.645  0.6164 -0.4218 -0.8777
  125MOL   H12215250   5.132   4.822   4.568  1.3572 -0.5696 -0.3181
  126MOL     C115251   1.432   0.689   5.325 -0.3674 -0.3739 -0.3948
  126MOL     F215252   1.507   0.779   5.379 -0.3739 -0.8064 -0.1461
  126MOL     F315253   1.452   0.692   5.197  0.3421  0.2803  0.1671
  126MOL     C415254   1.289   0.717   5.369 -0.0328 -0.0775 -0.1488
  126MOL     H515255   1.268   0.823   5.357  0.6247  0.2329  1.2515
  126MOL     H615256   1.288   0.723   5.478  0.4995  3.5139 -0.2854
  126MOL     H715257   1.462   0.595   5.371  0.1395 -0.1478 -0.2625
  126MOL     C815258   1.190   0.614   5.301 -0.1509 -0.1060  0.1203
  126MOL     F915259   1.193   0.629   5.170  0.1126 -0.4695 -0.1708
  126MOL    F1015260   1.231   0.487   5.335  0.3093 -0.5827  0.3415
  126MOL    C1115261   1.044   0.610   5.352 -0.3337  0.0977  0.3958
  126MOL    H1215262   1.053   0.603   5.460  1.5852  1.6200  0.3642
  126MOL    H1315263   0.994   0.527   5.301 -0.3669  1.0050 -1.0842
  126MOL    C1415264   0.952   0.735   5.329  0.0385  0.5696 -0.3348
  126MOL    F1515265   0.851   0.718   5.417  0.5522 -0.1088  0.3882
  126MOL    F1615266   1.029   0.846   5.361 -0.1374 -0.0913 -0.0377
  126MOL    C1715267   0.903   0.757   5.186  0.2445  0.0990  1.0204
  126MOL    H1815268   0.873   0.657   5.154 -2.1414  0.4913  1.9180
  126MOL    H1915269   0.985   0.788   5.121 -0.8960  1.1175  0.0517
  126MOL    C2015270   0.786   0.861   5.163 -0.4947 -0.2631 -0.0533
  126MOL    F2115271   0.757   0.863   5.033  0.0528  0.1520  0.4115
  126MOL    F2215272   0.672   0.822   5.230 -0.7512  0.1733  0.2068
  126MOL    C2315273   0.830   1.006   5.201  0.4057 -0.1571 -0.3002
  126MOL    H2415274   0.921   1.046   5.157 -0.2988  2.7760  0.7379
  126MOL    H2515275   0.850   1.007   5.308 -0.0410  0.7267 -0.2214
  126MOL    C2615276   0.732   1.124   5.165 -0.2769 -0.7643 -0.7441
  126MOL    F2715277   0.719   1.127   5.036 -0.4235 -0.4469  0.4287
  126MOL    F2815278   0.607   1.103   5.221 -0.5537  0.3413  0.1533
  126MOL    C2915279   0.784   1.254   5.226 -0.0515  0.3918 -0.1719
  126MOL    H3015280   0.709   1.331   5.207 -2.0340 -1.7096 -1.1778
  126MOL    H3115281   0.877   1.288   5.180  0.4908  0.9360  1.2958
  126MOL    C3215282   0.799   1.272   5.376  0.8701  0.5622  0.4426
  126MOL    F3315283   0.679   1.248   5.432  0.5928  0.8371 -0.0344
  126MOL    F3415284   0.891   1.195   5.433  0.1385  0.6901  0.0807
  126MOL    C3515285   0.836   1.417   5.411 -0.0283 -0.4703  0.2270
  126MOL    H3615286   0.766   1.484   5.362  1.0151 -0.1244 -0.8120
  126MOL    H3715287   0.934   1.443   5.371  0.0725 -0.1744  0.6640
  126MOL    C3815288   0.829   1.458   5.559 -0.1282  0.2046  0.1839
  126MOL    F3915289   0.704   1.443   5.603  0.4446 -0.2641  0.2920
  126MOL    F4015290   0.901   1.369   5.626 -0.0936 -0.3026  0.6473
  126MOL    C4115291   0.882   1.598   5.602  0.1366  0.3467  0.0401
  126MOL    H4215292   0.988   1.613   5.579 -0.0430 -2.6556 -3.2346
  126MOL    H4315293   0.875   1.600   5.710  0.1313  0.4305  0.0381
  126MOL    C4415294   0.792   1.718   5.545  0.8767 -0.4152  0.9773
  126MOL    F4515295   0.776   1.741   5.414  0.0916 -0.6992  0.0417
  126MOL    F4615296   0.666   1.703   5.589 -0.0204  0.0113  0.1672
  126MOL    C4715297   0.843   1.855   5.596 -0.8381  0.0005 -0.3554
  126MOL    H4815298   0.769   1.934   5.586 -0.8206  0.4108  2.3412
  126MOL    H4915299   0.933   1.889   5.546 -2.0116 -0.2228 -2.6615
  126MOL    C5015300   0.868   1.855   5.755 -0.8725 -0.2237 -0.0428
  126MOL    F5115301   0.759   1.797   5.808 -0.2059  0.2597 -0.0245
  126MOL    F5215302   0.971   1.790   5.806  0.8591 -0.5649 -0.2340
  126MOL    C5315303   0.862   1.995   5.822 -0.3228  0.7357 -0.9465
  126MOL    H5415304   0.885   1.976   5.927 -1.2646  0.1880 -0.8309
  126MOL    H5515305   0.762   2.039   5.822 -0.6189  0.0643 -1.9719
  126MOL    C5615306   0.951   2.107   5.759 -0.1121  0.4809 -0.0087
  126MOL    F5715307   1.076   2.070   5.754 -0.3682 -0.2276  0.5468
  126MOL    F5815308   0.909   2.122   5.635 -0.5045  0.1464 -0.4663
  126MOL    C5915309   0.936   2.244   5.836  0.0563 -0.0356 -0.1606
  126MOL    H6015310   0.945   2.235   5.944  1.6979 -0.1021 -0.2850
  126MOL    H6115311   0.836   2.285   5.822 -0.3285 -0.7947  0.3057
  126MOL    C6215312   1.037   2.348   5.797  0.0592 -0.0318  0.1764
  126MOL    F6315313   1.147   2.298   5.849  0.2157 -0.2633 -0.2316
  126MOL    F6415314   1.045   2.353   5.666  0.2731 -0.0405 -0.3166
  126MOL    C6515315   0.998   2.481   5.860  0.2001  0.2576 -0.3866
  126MOL    H6615316   0.989   2.457   5.966  3.4850  0.4743  0.0091
  126MOL    H6715317   0.901   2.522   5.831 -0.3075 -0.3433  0.4490
  126MOL    C6815318   1.108   2.586   5.841  0.6857 -0.0519 -0.0439
  126MOL    F6915319   1.069   2.707   5.896  0.0291  0.9810 -0.0822
  126MOL    F7015320   1.214   2.544   5.915  0.0573  0.1552 -0.0035
  126MOL    C7115321   1.148   2.614   5.692 -1.0504 -0.1353 -0.6950
  126MOL    H7215322   1.195   2.530   5.641  1.2883  2.2057 -2.5448
  126MOL    H7315323   1.229   2.687   5.703 -1.8326  0.7847 -0.9352
  126MOL    C7415324   1.032   2.669   5.602 -0.2086  0.0705 -0.6976
  126MOL    F7515325   0.921   2.598   5.622 -0.3638  0.1753 -0.5281
  126MOL    F7615326   1.006   2.792   5.647  0.0194 -0.1863  0.5017
  126MOL    C7715327   1.070   2.669   5.449  0.3474 -0.4165 -0.9828
  126MOL    H7815328   1.096   2.565   5.429 -0.0863 -1.1920  2.1935
  126MOL    H7915329   1.161   2.729   5.438  0.1012  0.0451 -0.5317
  126MOL    C8015330   0.947   2.702   5.356  0.2677  0.1661  0.1589
  126MOL    F8115331   0.861   2.598   5.353 -0.2662 -0.0035 -0.4733
  126MOL    F8215332   0.885   2.816   5.391 -0.3785 -0.3514  0.6645
  126MOL    C8315333   1.009   2.728   5.214 -0.7825  0.1824  0.4217
  126MOL    H8415334   1.050   2.631   5.188 -1.0582 -0.3654  1.9695
  126MOL    H8515335   1.100   2.788   5.224  1.1716 -2.5105 -0.8305
  126MOL    C8615336   0.904   2.763   5.097  0.5117  0.3807 -0.3674
  126MOL    F8715337   0.835   2.647   5.073 -0.5975  0.0303 -0.1382
  126MOL    F8815338   0.814   2.855   5.133  0.1039 -0.0738 -0.0085
  126MOL    C8915339   0.987   2.801   4.974  0.7565  0.2550  0.2030
  126MOL    H9015340   0.925   2.783   4.886  2.7957 -1.5404 -0.8996
  126MOL    H9115341   1.062   2.723   4.960  0.3885  0.0119 -0.3970
  126MOL    C9215342   1.055   2.942   4.977 -0.4444  0.4012 -0.2122
  126MOL    F9315343   0.957   3.033   5.011 -0.2921  0.7609  0.4615
  126MOL    F9415344   1.164   2.963   5.051  0.1806  0.2715 -0.0648
  126MOL    C9515345   1.090   2.990   4.830 -0.1921  0.0203 -0.3246
  126MOL    H9615346   1.138   3.087   4.838  2.1210 -1.2784  2.4094
  126MOL    H9715347   0.997   2.995   4.773  0.0734 -1.2628 -0.8945
  126MOL    C9815348   1.179   2.897   4.755 -0.2459 -0.2655 -0.2291
  126MOL    F9915349   1.278   2.856   4.833 -0.1027 -0.3376 -0.4901
  126MOL   F10015350   1.111   2.788   4.713  0.2201  0.5066 -0.1549
  126MOL   C10115351   1.250   2.967   4.648 -0.1918  1.2626 -0.6740
  126MOL   H10215352   1.307   2.891   4.594 -0.7369  1.2533 -1.2316
  126MOL   H10315353   1.332   3.030   4.684  1.5384 -0.3542 -1.6748
  126MOL   C10415354   1.165   3.049   4.547 -0.5329  1.0069  0.0103
  126MOL   F10515355   1.048   2.983   4.530 -0.0650  0.7631 -0.1301
  126MOL   F10615356   1.133   3.160   4.609 -0.2568 -0.6252 -0.2295
  126MOL   C10715357   1.235   3.090   4.416  0.5348  0.1238  0.3229
  126MOL   H10815358   1.263   2.997   4.367 -0.0245 -0.2007  0.6090
  126MOL   H10915359   1.326   3.146   4.440  0.3222 -0.6763  3.2451
  126MOL   C11015360   1.163   3.179   4.318  0.2235  0.6075 -0.2239
  126MOL   F11115361   1.113   3.287   4.378 -0.1754  0.2880 -0.0830
  126MOL   F11215362   1.255   3.212   4.224  0.6446 -0.1492  0.1639
  126MOL   C11315363   1.047   3.099   4.244  0.4749 -0.1590 -0.1422
  126MOL   H11415364   0.962   3.074   4.307 -0.3295  1.0468 -0.7357
  126MOL   H11515365   1.091   3.003   4.217  1.7062  0.4943 -0.5400
  126MOL   C11615366   0.987   3.172   4.123  0.4902 -0.0080 -0.3860
  126MOL   F11715367   1.080   3.203   4.037  0.5162  0.0603 -0.1895
  126MOL   F11815368   0.891   3.105   4.066  1.0647  0.5567  0.4750
  126MOL   C11915369   0.928   3.309   4.148 -0.8892  0.4943  0.5177
  126MOL   H12015370   0.893   3.351   4.053  0.2521  1.5037  0.5338
  126MOL   H12115371   1.004   3.380   4.181 -2.4225  2.8933 -0.8660
  126MOL   H12215372   0.841   3.325   4.212  0.3420  0.0832  2.2968
  127MOL     C115373   2.325   3.025   5.246  0.3890 -0.2815 -1.0646
  127MOL     F215374   2.239   2.984   5.333  0.0071 -0.0916 -0.4042
  127MOL     F315375   2.418   3.104   5.305 -0.5286  0.3215  0.2456
  127MOL     C415376   2.258   3.126   5.145 -0.0859 -0.5160 -0.2882
  127MOL     H515377   2.230   3.216   5.198 -0.1270 -0.1920 -0.8519
  127MOL     H615378   2.171   3.076   5.102  0.4644  0.1879 -2.2755
  127MOL     H715379   2.367   2.938   5.196 -2.6041 -3.3078  1.4187
  127MOL     C815380   2.349   3.166   5.025  0.3268 -0.0211  0.0177
  127MOL     F915381   2.399   3.054   4.967  0.1839  0.4568 -0.1367
  127MOL    F1015382   2.279   3.229   4.929  0.6297 -0.3381 -0.4929
  127MOL    C1115383   2.472   3.254   5.076  0.5106 -0.2272  0.4135
  127MOL    H1215384   2.546   3.196   5.131  2.3091  2.3908  0.8239
  127MOL    H1315385   2.431   3.330   5.143  0.9105  0.4504 -0.1145
  127MOL    C1415386   2.550   3.326   4.960  0.1110  0.0917  0.3851
  127MOL    F1515387   2.669   3.367   5.009  0.2820  0.2029 -0.4668
  127MOL    F1615388   2.569   3.249   4.855  0.5783  0.0333 -0.3068
  127MOL    C1715389   2.475   3.453   4.920 -0.1116 -0.6666  0.3187
  127MOL    H1815390   2.448   3.501   5.014  1.6273  0.6733  0.1412
  127MOL    H1915391   2.380   3.426   4.873  1.7433 -3.7264 -1.8985
  127MOL    C2015392   2.549   3.563   4.832 -0.3956 -1.3693 -0.3292
  127MOL    F2115393   2.654   3.601   4.909 -0.6294  0.0941  0.5696
  127MOL    F2215394   2.589   3.497   4.728 -0.0174  0.3154 -0.0733
  127MOL    C2315395   2.460   3.688   4.797 -0.2452  0.1578  0.0236
  127MOL    H2415396   2.440   3.745   4.888  1.3195  0.0541  0.4522
  127MOL    H2515397   2.366   3.667   4.746 -0.1122  3.1154 -1.5434
  127MOL    C2615398   2.523   3.794   4.699 -0.4813  0.5623 -1.0840
  127MOL    F2715399   2.553   3.729   4.587 -0.1270 -0.1670 -0.3655
  127MOL    F2815400   2.429   3.884   4.656  0.0895  0.3407  0.2299
  127MOL    C2915401   2.648   3.869   4.752  0.6896 -0.8927  0.4748
  127MOL    H3015402   2.687   3.928   4.669  1.0797 -0.1087  1.2097
  127MOL    H3115403   2.723   3.795   4.780  2.6131  0.8166 -0.0935
  127MOL    C3215404   2.624   3.970   4.872  0.4483 -0.2709 -0.5848
  127MOL    F3315405   2.577   3.911   4.982  0.1412 -0.1852 -0.0552
  127MOL    F3415406   2.739   4.026   4.899  0.4233  0.5853  0.1603
  127MOL    C3515407   2.518   4.089   4.844 -0.9334  0.6609  0.7996
  127MOL    H3615408   2.414   4.056   4.838 -0.4885 -0.6736  0.1058
  127MOL    H3715409   2.533   4.130   4.744  1.9094  2.0518  1.7526
  127MOL    C3815410   2.520   4.208   4.935 -0.2175 -0.1654  0.3454
  127MOL    F3915411   2.524   4.169   5.068  0.3136  0.4125  0.3039
  127MOL    F4015412   2.618   4.286   4.909 -0.9019  0.2320 -0.2011
  127MOL    C4115413   2.385   4.297   4.932  0.4094  0.6112  0.2716
  127MOL    H4215414   2.391   4.364   5.018  1.9949  0.6603  0.1328
  127MOL    H4315415   2.304   4.226   4.952  0.7253  0.3632  0.6914
  127MOL    C4415416   2.368   4.386   4.809 -0.0982 -0.1278  0.1238
  127MOL    F4515417   2.463   4.485   4.811  0.6014 -0.3947  0.1227
  127MOL    F4615418   2.397   4.313   4.703 -0.4399 -0.3588 -0.6247
  127MOL    C4715419   2.228   4.458   4.779  0.2119 -0.2730 -0.0826
  127MOL    H4815420   2.147   4.384   4.783  0.6200 -0.7346 -0.3542
  127MOL    H4915421   2.226   4.482   4.673  2.8344  2.8999  0.5048
  127MOL    C5015422   2.195   4.565   4.886 -0.0561 -0.1481  0.0859
  127MOL    F5115423   2.161   4.495   5.002  0.3097 -0.2870  0.4507
  127MOL    F5215424   2.302   4.636   4.907  0.0033 -0.3887 -0.5104
  127MOL    C5315425   2.079   4.651   4.833  0.3189  0.8768  0.1762
  127MOL    H5415426   2.065   4.724   4.912  0.9045 -0.3490  1.4205
  127MOL    H5515427   1.990   4.589   4.826  1.3639 -0.6226 -0.0589
  127MOL    C5615428   2.096   4.740   4.702  0.4492 -0.2438  0.2867
  127MOL    F5715429   2.222   4.785   4.702  0.4796  0.3648  0.1331
  127MOL    F5815430   2.082   4.656   4.598 -0.4683  0.2951  0.2443
  127MOL    C5915431   1.989   4.856   4.699 -0.1612 -0.7113  0.3823
  127MOL    H6015432   1.999   4.923   4.784 -1.0632 -1.6619  1.2404
  127MOL    H6115433   1.892   4.806   4.704  1.0142 -3.0047  0.6677
  127MOL    C6215434   1.992   4.954   4.572  0.1857 -0.2255  0.3252
  127MOL    F6315435   1.923   5.064   4.595  0.4634 -0.2938  0.3097
  127MOL    F6415436   2.113   5.000   4.557  0.1491  0.5134  0.4309
  127MOL    C6515437   1.942   4.885   4.440 -0.5547  0.1929  0.5650
  127MOL    H6615438   1.851   4.825   4.440  0.2229 -1.0489 -2.3243
  127MOL    H6715439   2.012   4.803   4.426  0.9702  1.1538  2.3159
  127MOL    C6815440   1.950   4.974   4.310  0.4877 -0.6097  0.0069
  127MOL    F6915441   1.888   4.909   4.210 -0.1221 -0.1886  0.7071
  127MOL    F7015442   1.882   5.080   4.343  0.4063 -0.1895 -0.0832
  127MOL    C7115443   2.091   5.026   4.261  0.3425 -0.8290  0.2023
  127MOL    H7215444   2.156   4.944   4.230 -0.9971 -1.1363 -1.8765
  127MOL    H7315445   2.140   5.086   4.338  2.7240 -0.8418 -1.2447
  127MOL    C7415446   2.089   5.114   4.129  0.2132  0.0243  0.3227
  127MOL    F7515447   2.007   5.211   4.135  0.0405 -0.6550 -0.5474
  127MOL    F7615448   2.213   5.165   4.128  0.0946 -0.0880  0.4330
  127MOL    C7715449   2.073   5.032   4.005  0.4354  0.5657  0.4591
  127MOL    H7815450   1.976   4.984   4.022 -0.1319  1.4923 -0.0973
  127MOL    H7915451   2.145   4.950   4.003 -0.4730 -0.2244 -1.8677
  127MOL    C8015452   2.055   5.105   3.866 -0.4373  0.4901 -0.0682
  127MOL    F8115453   2.057   5.013   3.768  0.3246 -0.0031  0.1495
  127MOL    F8215454   1.935   5.156   3.868  0.3694  0.0069 -0.0794
  127MOL    C8315455   2.158   5.226   3.850 -0.3099  0.1765  0.4437
  127MOL    H8415456   2.261   5.192   3.857 -0.9119 -1.4568  1.5141
  127MOL    H8515457   2.134   5.293   3.932  1.7746  2.5626 -0.8231
  127MOL    C8615458   2.142   5.311   3.725 -0.5087 -0.2219 -1.2472
  127MOL    F8715459   2.025   5.374   3.734 -0.7730 -0.2278  0.1238
  127MOL    F8815460   2.242   5.402   3.731  0.2240 -0.2821 -0.2337
  127MOL    C8915461   2.156   5.237   3.594 -0.2733 -0.1316 -0.7063
  127MOL    H9015462   2.081   5.159   3.584 -0.4526 -0.0211 -0.2491
  127MOL    H9115463   2.256   5.194   3.597  0.5583  1.7627 -0.7240
  127MOL    C9215464   2.137   5.336   3.478  0.8751 -1.1070 -0.1352
  127MOL    F9315465   2.012   5.386   3.482 -0.2444  0.1586  0.0656
  127MOL    F9415466   2.223   5.442   3.483 -0.2746  0.1465 -0.1162
  127MOL    C9515467   2.150   5.267   3.337  0.4455  0.4595  0.4438
  127MOL    H9615468   2.126   5.354   3.275  0.2248 -0.1681 -0.3576
  127MOL    H9715469   2.067   5.198   3.326  0.8265 -0.0316  0.6388
  127MOL    C9815470   2.291   5.213   3.299 -0.1268 -0.1355  0.3615
  127MOL    F9915471   2.379   5.317   3.320 -0.2435  0.2476 -0.0651
  127MOL   F10015472   2.314   5.113   3.385 -0.7117 -0.0563  0.0516
  127MOL   C10115473   2.302   5.161   3.156 -0.0241  0.7402 -0.0228
  127MOL   H10215474   2.267   5.247   3.099  1.3657  1.1915 -0.2040
  127MOL   H10315475   2.239   5.074   3.138  3.4015 -1.6232 -1.0092
  127MOL   C10415476   2.443   5.129   3.096  0.2569 -0.8048 -0.0647
  127MOL   F10515477   2.422   5.101   2.970 -0.0175 -0.0006  0.3884
  127MOL   F10615478   2.520   5.239   3.090 -0.0076  0.4254 -0.0897
  127MOL   C10715479   2.508   5.012   3.165  0.1814  0.5282  0.0914
  127MOL   H10815480   2.433   4.933   3.157  1.3487 -0.5337 -0.5959
  127MOL   H10915481   2.523   5.042   3.269 -0.5720  0.2516  0.2819
  127MOL   C11015482   2.634   4.943   3.106  0.5767  0.1531  0.1974
  127MOL   F11115483   2.600   4.900   2.981 -0.2124  0.0789  0.0742
  127MOL   F11215484   2.726   5.033   3.100  0.1940 -0.2064  0.3980
  127MOL   C11315485   2.677   4.818   3.184  0.1934  0.6658  0.5860
  127MOL   H11415486   2.771   4.798   3.131 -0.0121  1.0002  0.0931
  127MOL   H11515487   2.613   4.733   3.160  1.0955  0.9759 -3.2432
  127MOL   C11615488   2.701   4.833   3.337 -0.5533  0.6650  0.0089
  127MOL   F11715489   2.771   4.939   3.370  0.4811 -0.5789  0.2893
  127MOL   F11815490   2.584   4.852   3.398 -0.3648  0.1094  0.2658
  127MOL   C11915491   2.767   4.701   3.395 -0.3534 -0.6827 -0.5320
  127MOL   H12015492   2.790   4.696   3.501  0.3276  0.2335 -0.6274
  127MOL   H12115493   2.849   4.672   3.330  0.2337  1.0989 -0.6163
  127MOL   H12215494   2.702   4.615   3.379 -0.3901 -0.6202 -0.7298
  128MOL     C115495   6.565   3.821   7.129  0.0705 -0.1347 -0.0880
  128MOL     F215496   6.484   3.841   7.238 -0.1221 -0.1397 -0.2863
  128MOL     F315497   6.531   3.902   7.031 -0.2032 -0.0402  0.7730
  128MOL     C415498   6.547   3.682   7.078 -0.1072  0.6255 -0.2289
  128MOL     H515499   6.598   3.664   6.983 -2.0712 -0.0604 -1.1783
  128MOL     H615500   6.447   3.652   7.046  0.6132  0.3189 -2.2631
  128MOL     H715501   6.668   3.835   7.160 -0.5181  0.1786  1.8268
  128MOL     C815502   6.582   3.571   7.171  0.7356  0.2366 -0.8551
  128MOL     F915503   6.495   3.579   7.269  0.2727 -0.0888 -0.6536
  128MOL    F1015504   6.554   3.456   7.111  0.2212 -0.3685  0.3299
  128MOL    C1115505   6.717   3.572   7.243 -0.2310  0.1172 -0.6839
  128MOL    H1215506   6.729   3.483   7.305 -0.9123  0.6767  0.2473
  128MOL    H1315507   6.735   3.652   7.314 -1.7862 -0.0090 -0.1182
  128MOL    C1415508   6.834   3.568   7.142  0.0511  0.0155  0.3963
  128MOL    F1515509   6.817   3.471   7.053  0.2114 -0.3276  0.3996
  128MOL    F1615510   6.850   3.676   7.062  0.2715 -0.1564  0.4532
  128MOL    C1715511   6.971   3.534   7.209 -0.6353 -0.2655 -0.0042
  128MOL    H1815512   7.045   3.538   7.128  0.3465 -0.2972  0.8861
  128MOL    H1915513   6.964   3.433   7.250 -1.5843  0.6588  2.1684
  128MOL    C2015514   7.029   3.633   7.314 -0.1983  0.1210 -0.3728
  128MOL    F2115515   7.007   3.755   7.258 -0.3827  0.4829 -0.2222
  128MOL    F2215516   6.965   3.612   7.431 -0.1720 -0.3869  0.0590
  128MOL    C2315517   7.179   3.632   7.317 -0.3034 -0.0208  0.3923
  128MOL    H2415518   7.212   3.665   7.219 -1.2826  0.1656  0.1173
  128MOL    H2515519   7.216   3.531   7.335 -0.4733 -0.2516 -0.5613
  128MOL    C2615520   7.252   3.714   7.422  0.0146  0.2807 -0.4428
  128MOL    F2715521   7.198   3.829   7.414 -0.0298  0.2083 -0.1840
  128MOL    F2815522   7.241   3.669   7.553  0.0605 -0.7192  0.4298
  128MOL    C2915523   7.402   3.730   7.389  0.3798  0.0741 -0.3039
  128MOL    H3015524   7.443   3.778   7.478 -0.9153 -1.5987  1.2295
  128MOL    H3115525   7.415   3.791   7.300 -1.3654  1.1327  0.1304
  128MOL    C3215526   7.492   3.606   7.364 -0.1830 -0.5880 -0.1573
  128MOL    F3315527   7.434   3.543   7.264  0.1092  0.5980  0.0277
  128MOL    F3415528   7.608   3.659   7.330  0.2128 -0.1304  1.0609
  128MOL    C3515529   7.497   3.517   7.490  0.8847  0.2474 -0.3551
  128MOL    H3615530   7.396   3.479   7.507 -0.1067  1.5859 -3.0525
  128MOL    H3715531   7.520   3.589   7.568  1.7924 -0.6343  0.2150
  128MOL    C3815532   7.595   3.394   7.479  0.0887 -0.3722  1.0895
  128MOL    F3915533   7.717   3.448   7.472  0.1715  0.1837 -0.1799
  128MOL    F4015534   7.589   3.327   7.594 -1.1837  0.1697  0.5287
  128MOL    C4115535   7.577   3.301   7.359 -0.3335  0.3607 -0.2860
  128MOL    H4215536   7.668   3.242   7.351 -0.2993  0.6759 -2.7450
  128MOL    H4315537   7.573   3.360   7.267  0.9491  0.2857 -0.4028
  128MOL    C4415538   7.452   3.212   7.361 -0.2142  0.8883  0.1283
  128MOL    F4515539   7.427   3.143   7.475 -0.6169  0.2776 -0.1200
  128MOL    F4615540   7.346   3.292   7.346 -0.0672  0.8720 -0.1566
  128MOL    C4715541   7.448   3.104   7.247  0.0892 -0.4369 -0.2396
  128MOL    H4815542   7.493   3.147   7.157 -0.5182 -1.4436 -1.0264
  128MOL    H4915543   7.344   3.100   7.214  0.3311 -0.9442 -0.9520
  128MOL    C5015544   7.523   2.970   7.273  0.2245 -0.0785 -0.3520
  128MOL    F5115545   7.526   2.914   7.150 -0.9281  0.2592  0.5494
  128MOL    F5215546   7.642   3.008   7.310  0.4643  0.2068  0.2888
  128MOL    C5315547   7.466   2.869   7.369 -0.2913 -0.1654 -0.0335
  128MOL    H5415548   7.467   2.911   7.469  1.5554 -1.7526  0.6631
  128MOL    H5515549   7.533   2.782   7.373 -1.8535 -1.3973 -0.1850
  128MOL    C5615550   7.325   2.813   7.347  0.0921  0.0682  0.2455
  128MOL    F5715551   7.291   2.724   7.442 -0.2256  0.0088 -0.0842
  128MOL    F5815552   7.242   2.919   7.363  0.3750  0.4533 -0.2697
  128MOL    C5915553   7.293   2.760   7.204  0.4507  0.1614  0.0423
  128MOL    H6015554   7.371   2.686   7.185  0.7509  0.4661  0.0627
  128MOL    H6115555   7.296   2.829   7.120  0.9353  1.0808  0.7963
  128MOL    C6215556   7.164   2.675   7.195  0.9806 -0.5683  0.2167
  128MOL    F6315557   7.166   2.576   7.280  0.2568 -0.2224 -0.0982
  128MOL    F6415558   7.064   2.766   7.205 -0.3617  0.2180  0.4210
  128MOL    C6515559   7.158   2.618   7.053 -0.7101  0.2594 -0.0129
  128MOL    H6615560   7.247   2.562   7.025 -1.2393  0.0587 -1.3034
  128MOL    H6715561   7.155   2.706   6.990 -1.4843  0.6553  0.5653
  128MOL    C6815562   7.025   2.547   7.018  0.4017 -0.9622 -0.1562
  128MOL    F6915563   6.915   2.620   7.049  0.3659 -0.2799  0.2822
  128MOL    F7015564   7.018   2.536   6.884 -0.5589 -0.0424  0.0496
  128MOL    C7115565   7.010   2.412   7.092 -0.6632 -0.1171  0.2986
  128MOL    H7215566   6.981   2.435   7.195  0.9238  2.0888  0.3104
  128MOL    H7315567   7.106   2.360   7.093 -1.3300 -1.3865 -0.7542
  128MOL    C7415568   6.912   2.311   7.033 -0.2040  0.2191  0.2229
  128MOL    F7515569   6.790   2.366   7.025  0.1064 -0.2082 -0.0843
  128MOL    F7615570   6.946   2.279   6.907  0.3299 -0.3018  0.4567
  128MOL    C7715571   6.901   2.184   7.123 -0.1436 -0.2746  0.6808
  128MOL    H7815572   6.856   2.220   7.216 -0.2845  0.6653  0.2485
  128MOL    H7915573   6.992   2.129   7.148  0.4185  0.8936  1.2305
  128MOL    C8015574   6.798   2.083   7.066  0.1971 -0.5976  0.4620
  128MOL    F8115575   6.675   2.132   7.069 -0.1746 -0.2036  0.2835
  128MOL    F8215576   6.825   2.049   6.937  0.1193 -0.4731 -0.2735
  128MOL    C8315577   6.786   1.948   7.141 -0.5654  0.7560 -0.3972
  128MOL    H8415578   6.732   1.965   7.234 -1.3751  2.6790 -1.1811
  128MOL    H8515579   6.885   1.918   7.172 -0.5041  2.1766  0.8312
  128MOL    C8615580   6.717   1.834   7.079 -0.4115  0.5769  0.0727
  128MOL    F8715581   6.593   1.866   7.037 -0.0989  0.0521  0.0795
  128MOL    F8815582   6.784   1.794   6.973  0.6141  0.2172  0.0517
  128MOL    C8915583   6.717   1.712   7.175 -0.3071 -0.2390  0.2427
  128MOL    H9015584   6.652   1.742   7.257  0.4653  0.4219  0.6234
  128MOL    H9115585   6.819   1.698   7.209 -0.5436  0.9047  1.4547
  128MOL    C9215586   6.665   1.579   7.113 -0.0940  0.1848  0.1224
  128MOL    F9315587   6.550   1.599   7.054 -0.2751  0.0012 -0.1661
  128MOL    F9415588   6.751   1.542   7.024  0.5567 -0.1843 -0.5321
  128MOL    C9515589   6.667   1.467   7.224 -0.0366  0.4107 -0.2215
  128MOL    H9615590   6.594   1.496   7.299  0.2894  0.1569  0.1946
  128MOL    H9715591   6.759   1.462   7.281 -0.7151 -0.2057  0.8513
  128MOL    C9815592   6.622   1.326   7.174 -0.1644  0.7431  0.0852
  128MOL    F9915593   6.509   1.329   7.113  0.0547 -0.0630  0.2144
  128MOL   F10015594   6.710   1.282   7.084 -0.5060 -0.5079 -0.2728
  128MOL   C10115595   6.627   1.210   7.281 -0.1672 -0.2319  0.2318
  128MOL   H10215596   6.724   1.203   7.329 -0.8886 -1.4150  1.5853
  128MOL   H10315597   6.625   1.108   7.241  2.9516 -0.2708  0.0537
  128MOL   C10415598   6.529   1.211   7.396  1.0512  0.2861 -0.2716
  128MOL   F10515599   6.541   1.097   7.460 -0.5854 -0.0202  0.4902
  128MOL   F10615600   6.575   1.315   7.478  0.5687  0.5130  0.0874
  128MOL   C10715601   6.381   1.239   7.361 -0.3761 -0.5167 -0.2787
  128MOL   H10815602   6.349   1.153   7.302 -0.6272 -1.2478  0.9035
  128MOL   H10915603   6.377   1.330   7.301 -2.5619 -0.2404  0.2430
  128MOL   C11015604   6.276   1.240   7.479  0.1814  0.1108  0.2630
  128MOL   F11115605   6.249   1.112   7.513 -0.0400  0.0139  0.2027
  128MOL   F11215606   6.321   1.311   7.582  0.5778 -0.3439 -0.4501
  128MOL   C11315607   6.151   1.315   7.413 -0.6483  0.1519 -0.0089
  128MOL   H11415608   6.132   1.268   7.316 -0.5980  2.1856 -1.0190
  128MOL   H11515609   6.181   1.417   7.391 -0.9970 -0.1545 -1.9891
  128MOL   C11615610   6.020   1.315   7.491 -0.0545  0.2853 -0.5870
  128MOL   F11715611   5.968   1.189   7.507 -0.1417 -0.4677  0.3931
  128MOL   F11815612   6.055   1.360   7.613 -0.0955  0.0298  0.3034
  128MOL   C11915613   5.913   1.412   7.431  0.3009 -0.2388  0.1868
  128MOL   H12015614   5.958   1.509   7.408 -1.0290  0.3627  0.0939
  128MOL   H12115615   5.825   1.429   7.492  0.5130  0.6474  0.2506
  128MOL   H12215616   5.884   1.365   7.337 -1.6255  0.2629  0.5197
  129MOL     C115617   5.342   8.222   6.324  1.4444 -0.0927 -0.5007
  129MOL     F215618   5.303   8.115   6.397 -0.1059 -0.2740  0.0835
  129MOL     F315619   5.397   8.317   6.402  0.3258  0.7741  0.3082
  129MOL     C415620   5.227   8.287   6.247  0.4915  0.5211  0.2091
  129MOL     H515621   5.267   0.014   6.181  1.1837 -0.6572 -0.7534
  129MOL     H615622   5.158   8.340   6.313  2.0182  1.0083  1.4462
  129MOL     H715623   5.413   8.177   6.255  0.9432 -2.0297  0.2232
  129MOL     C815624   5.170   8.194   6.147 -0.1068  0.5694 -0.1264
  129MOL     F915625   5.084   8.278   6.082 -0.6357 -0.4775 -0.0378
  129MOL    F1015626   5.267   8.151   6.063 -0.6032 -0.6156  0.1933
  129MOL    C1115627   5.077   8.087   6.201  0.2916  0.0566 -0.6402
  129MOL    H1215628   4.996   8.142   6.248 -1.1545 -3.9311  1.7315
  129MOL    H1315629   5.119   8.031   6.284  3.0733  0.3736 -1.7563
  129MOL    C1415630   5.024   7.983   6.092  0.1471 -0.0399  0.1437
  129MOL    F1515631   4.956   8.043   5.998 -0.0186  0.1912  0.4913
  129MOL    F1615632   5.134   7.930   6.046  0.4069  0.0065  0.0897
  129MOL    C1715633   4.949   7.872   6.166  0.2861 -0.3499  0.0814
  129MOL    H1815634   5.030   7.829   6.225  0.7551  1.2244  0.6236
  129MOL    H1915635   4.913   7.802   6.091 -1.6507 -0.9306  1.5214
  129MOL    C2015636   4.838   7.903   6.259 -0.2026  0.0882 -0.0455
  129MOL    F2115637   4.889   7.956   6.368 -0.1727 -0.1056  0.3212
  129MOL    F2215638   4.758   7.993   6.205 -0.0927 -0.4334 -0.5784
  129MOL    C2315639   4.761   7.775   6.297  0.0273  0.1024  0.1047
  129MOL    H2415640   4.722   7.729   6.205  0.5451 -2.8012  1.2676
  129MOL    H2515641   4.669   7.811   6.342 -0.3423 -0.2366 -0.3721
  129MOL    C2615642   4.824   7.662   6.388  0.5722  0.0415  0.1071
  129MOL    F2715643   4.931   7.606   6.337 -0.3591  0.0682  0.3335
  129MOL    F2815644   4.880   7.733   6.491 -0.1823  0.2395 -0.3543
  129MOL    C2915645   4.718   7.563   6.437  0.6357 -0.9211 -0.1396
  129MOL    H3015646   4.628   7.616   6.469  2.5917  2.4998 -0.1098
  129MOL    H3115647   4.748   7.520   6.533 -0.0872 -0.1039  0.4715
  129MOL    C3215648   4.669   7.456   6.347 -0.8911 -0.1909 -0.4942
  129MOL    F3315649   4.591   7.373   6.418  0.0603 -0.4486  0.1041
  129MOL    F3415650   4.581   7.512   6.260 -0.2073 -0.4546 -0.3481
  129MOL    C3515651   4.770   7.367   6.263 -0.1316 -0.3287  0.0064
  129MOL    H3615652   4.823   7.432   6.194 -0.7441  0.8126  0.6092
  129MOL    H3715653   4.712   7.306   6.193  0.9866 -0.1241 -1.1237
  129MOL    C3815654   4.866   7.279   6.347  0.1535 -0.0315  0.3378
  129MOL    F3915655   4.899   7.358   6.451 -0.3379  0.0222 -0.2835
  129MOL    F4015656   4.819   7.170   6.395 -0.6821  0.0932 -0.5329
  129MOL    C4115657   4.998   7.236   6.267  0.5858  0.0424  0.6205
  129MOL    H4215658   5.037   7.318   6.208 -1.2728 -0.8494 -1.9644
  129MOL    H4315659   4.967   7.163   6.192  1.5834  0.0499  0.1906
  129MOL    C4415660   5.121   7.170   6.332  0.6578 -0.0272 -0.1908
  129MOL    F4515661   5.204   7.127   6.241 -0.1401 -0.5442  0.3857
  129MOL    F4615662   5.184   7.264   6.402  0.3506  0.4554  0.2028
  129MOL    C4715663   5.096   7.056   6.434 -0.0763 -0.4640 -0.4017
  129MOL    H4815664   5.023   6.988   6.390  0.2956 -1.2727  0.2171
  129MOL    H4915665   5.040   7.095   6.519 -1.2683 -1.7508 -0.5758
  129MOL    C5015666   5.214   6.977   6.479 -0.1172  0.4249 -0.1791
  129MOL    F5115667   5.271   6.914   6.375 -0.0779 -0.0757  0.2089
  129MOL    F5215668   5.306   7.062   6.527 -0.1830  0.2177  0.1470
  129MOL    C5315669   5.188   6.880   6.591 -0.8845 -0.9333  0.4813
  129MOL    H5415670   5.130   6.928   6.670  1.1786  1.1898  0.7777
  129MOL    H5515671   5.282   6.870   6.646  0.3216  0.7424 -1.2039
  129MOL    C5615672   5.113   6.752   6.550  0.3016  0.5265 -0.2279
  129MOL    F5715673   5.003   6.793   6.499 -0.5057  0.4726 -0.6605
  129MOL    F5815674   5.179   6.692   6.453  0.0602 -0.1412 -0.4701
  129MOL    C5915675   5.086   6.652   6.667 -0.2507 -0.5724  0.3957
  129MOL    H6015676   5.059   6.550   6.639 -0.3214 -0.8615  1.4736
  129MOL    H6115677   5.003   6.688   6.728  0.6308  2.8728 -0.3215
  129MOL    C6215678   5.192   6.630   6.767 -0.7582  0.0311  0.0085
  129MOL    F6315679   5.305   6.607   6.690 -0.2331 -0.0313 -0.0777
  129MOL    F6415680   5.205   6.743   6.832  0.0255 -0.4941 -0.0297
  129MOL    C6515681   5.165   6.528   6.878  0.1282  0.6678 -0.6571
  129MOL    H6615682   5.113   6.442   6.835 -0.1733  0.3441  0.3345
  129MOL    H6715683   5.102   6.569   6.957 -1.0361 -1.0316 -0.6809
  129MOL    C6815684   5.286   6.467   6.948  0.4375  0.1345 -0.7304
  129MOL    F6915685   5.236   6.380   7.034  0.4148 -0.1128 -0.1341
  129MOL    F7015686   5.350   6.397   6.852 -0.0111  0.2455 -0.4177
  129MOL    C7115687   5.384   6.564   7.013 -0.1000 -0.4093 -0.4712
  129MOL    H7215688   5.329   6.637   7.073  1.5895 -1.5365  2.5340
  129MOL    H7315689   5.433   6.624   6.936  0.7700  1.2897  1.3536
  129MOL    C7415690   5.490   6.483   7.099 -0.1450 -0.0730 -0.0815
  129MOL    F7515691   5.422   6.418   7.193 -0.0556 -0.5823 -0.3027
  129MOL    F7615692   5.555   6.401   7.017 -0.5275  0.0340  0.0945
  129MOL    C7715693   5.608   6.576   7.161 -0.1226 -0.1352 -0.1447
  129MOL    H7815694   5.642   6.634   7.075 -0.0876  0.2673  0.1372
  129MOL    H7915695   5.688   6.516   7.203  0.9557  1.9447  0.8915
  129MOL    C8015696   5.557   6.668   7.275 -0.0361 -0.5554 -0.0107
  129MOL    F8115697   5.494   6.771   7.218 -0.4457  0.2070 -0.4790
  129MOL    F8215698   5.474   6.600   7.351 -0.0151 -0.5084 -0.3306
  129MOL    C8315699   5.669   6.723   7.362 -0.6030  0.1154  0.2073
  129MOL    H8415700   5.737   6.780   7.298  1.5854  0.0033  2.3641
  129MOL    H8515701   5.742   6.649   7.395 -0.2742  0.7494  0.9170
  129MOL    C8615702   5.615   6.818   7.478 -1.7002 -0.1758 -0.0140
  129MOL    F8715703   5.573   6.745   7.583  0.8120  0.2907 -0.7118
  129MOL    F8815704   5.728   6.867   7.531  0.0412 -0.0491  0.4262
  129MOL    C8915705   5.525   6.934   7.448 -0.3955 -0.0549  0.2981
  129MOL    H9015706   5.434   6.898   7.399  0.1488  2.0015 -2.3953
  129MOL    H9115707   5.578   6.996   7.375  0.7952  0.1538  1.3395
  129MOL    C9215708   5.473   7.033   7.559  0.2179  0.5809  0.3013
  129MOL    F9315709   5.387   7.121   7.502 -0.1166 -0.4743 -0.0491
  129MOL    F9415710   5.414   6.954   7.650  0.3724 -0.4301 -0.1964
  129MOL    C9515711   5.580   7.112   7.643  0.5750 -0.8067 -0.2325
  129MOL    H9615712   5.643   7.034   7.687  2.1007 -0.5904 -1.9804
  129MOL    H9715713   5.536   7.162   7.729  1.4516  0.0403 -0.2732
  129MOL    C9815714   5.656   7.226   7.572  0.6294  0.6815 -0.0444
  129MOL    F9915715   5.721   7.169   7.469 -0.1000  0.2479  0.1503
  129MOL   F10015716   5.576   7.318   7.517  0.6781  0.0707 -0.2791
  129MOL   C10115717   5.743   7.295   7.683 -0.1832 -1.0193 -0.3055
  129MOL   H10215718   5.809   7.223   7.732  1.8351  0.9555 -0.0532
  129MOL   H10315719   5.676   7.339   7.758 -2.2984 -2.1285 -1.4903
  129MOL   C10415720   5.843   7.396   7.634  0.4765  0.1686 -0.1997
  129MOL   F10515721   5.936   7.429   7.724  0.0743  0.1639 -0.3699
  129MOL   F10615722   5.904   7.339   7.528  0.4406  0.0104  0.2609
  129MOL   C10715723   5.798   7.538   7.594  0.2393 -0.1518 -0.2429
  129MOL   H10815724   5.744   7.529   7.500 -3.4967  0.2654  1.7994
  129MOL   H10915725   5.889   7.590   7.563  1.0090 -1.4432 -0.2113
  129MOL   C11015726   5.704   7.625   7.689 -0.9003  0.5004  0.6747
  129MOL   F11115727   5.582   7.568   7.695  0.4458 -0.4325  0.1026
  129MOL   F11215728   5.755   7.627   7.813 -0.4763  0.2578  0.2789
  129MOL   C11315729   5.688   7.775   7.644 -0.3776 -0.2355 -0.5390
  129MOL   H11415730   5.591   7.821   7.666 -2.6341 -2.9212 -4.1637
  129MOL   H11515731   5.686   7.787   7.535  0.1452  3.0863 -0.2444
  129MOL   C11615732   5.795   7.869   7.703  0.3089  0.2151  0.1564
  129MOL   F11715733   5.780   7.986   7.645  0.0226  0.0278 -0.0229
  129MOL   F11815734   5.774   7.888   7.836 -0.1368  0.2423  0.3105
  129MOL   C11915735   5.942   7.825   7.678 -0.1001  0.2831 -0.8647
  129MOL   H12015736   5.956   7.750   7.755  3.1886  1.7640  0.0679
  129MOL   H12115737   6.027   7.890   7.701  0.8661 -1.0206 -0.6903
  129MOL   H12215738   5.963   7.783   7.579  0.2896 -1.2709 -0.1390
  130MOL     C115739   1.204   2.181   7.716  0.2683  0.3352 -0.2883
  130MOL     F215740   1.324   2.201   7.773  0.0317 -0.4067  0.5666
  130MOL     F315741   1.127   2.107   7.793  0.3943  0.0963 -0.0255
  130MOL     C415742   1.231   2.100   7.581  0.0305  0.1725 -0.0207
  130MOL     H515743   1.259   2.000   7.616  2.6774  1.6130  2.2334
  130MOL     H615744   1.324   2.132   7.533  1.8111 -2.3747  1.5796
  130MOL     H715745   1.161   2.278   7.693  0.0407  0.0847 -0.9187
  130MOL     C815746   1.113   2.101   7.489 -0.2577  0.2651 -0.3223
  130MOL     F915747   1.081   2.225   7.459 -0.6786  0.0001 -0.4556
  130MOL    F1015748   1.169   2.043   7.382 -0.1414 -0.0802 -0.0026
  130MOL    C1115749   0.995   2.022   7.556 -0.3173  0.1061 -0.6983
  130MOL    H1215750   0.975   2.082   7.645 -1.7696 -1.2351 -0.0828
  130MOL    H1315751   1.030   1.925   7.592 -1.4173 -0.0126  0.1089
  130MOL    C1415752   0.874   1.992   7.470 -0.3712  0.0775  0.7096
  130MOL    F1515753   0.832   2.105   7.410  0.2874 -0.0993  0.4937
  130MOL    F1615754   0.908   1.900   7.382 -0.4533 -0.1107 -0.2570
  130MOL    C1715755   0.756   1.929   7.551  0.3371  0.8928  0.3586
  130MOL    H1815756   0.740   1.992   7.639  3.9801  3.0369 -0.3906
  130MOL    H1915757   0.793   1.834   7.590  1.4283  0.9256 -0.5348
  130MOL    C2015758   0.615   1.912   7.482  0.3004 -0.4056 -0.6235
  130MOL    F2115759   0.575   2.038   7.467 -0.5588  0.6122 -0.0761
  130MOL    F2215760   0.626   1.855   7.365 -0.0269  0.1231  0.2940
  130MOL    C2315761   0.515   1.839   7.568  0.7114  0.1670 -0.4272
  130MOL    H2415762   0.502   1.907   7.652 -3.1149 -2.9564  1.7084
  130MOL    H2515763   0.556   1.748   7.613  1.5818  1.2621  1.0202
  130MOL    C2615764   0.387   1.799   7.500  0.3340 -0.1857 -0.2847
  130MOL    F2715765   0.330   1.893   7.438  0.4386  0.4047 -0.1269
  130MOL    F2815766   0.415   1.699   7.407 -0.1980  0.4783 -0.5069
  130MOL    C2915767   0.281   1.737   7.597  0.1358 -0.2304 -0.0800
  130MOL    H3015768   0.186   1.718   7.547  0.4112 -0.4852 -0.5054
  130MOL    H3115769   0.263   1.814   7.671  0.6036  0.8988 -1.1191
  130MOL    C3215770   0.329   1.618   7.672  0.5641 -0.1744 -0.4259
  130MOL    F3315771   0.382   1.519   7.598 -0.6722 -0.0638 -0.2805
  130MOL    F3415772   0.413   1.659   7.770 -0.0365  0.5413 -0.1366
  130MOL    C3515773   0.197   1.556   7.732  0.4415 -0.3648 -0.5555
  130MOL    H3615774   0.134   1.523   7.649  0.4960  0.5062 -0.9495
  130MOL    H3715775   0.133   1.625   7.786 -2.6168 -1.4000 -2.7586
  130MOL    C3815776   0.202   1.433   7.835 -0.0977 -0.1015 -0.2520
  130MOL    F3915777   0.274   1.483   7.939 -0.7433 -0.7278 -0.4550
  130MOL    F4015778   0.080   1.400   7.876  0.4233 -0.5088  0.5707
  130MOL    C4115779   0.271   1.299   7.794 -0.0345 -0.8987 -0.1080
  130MOL    H4215780   0.280   1.230   7.878 -1.1066 -0.1159  0.6593
  130MOL    H4315781   0.372   1.329   7.764 -0.3306  0.2471  0.0346
  130MOL    C4415782   0.208   1.225   7.675 -0.2075  0.3206  0.7608
  130MOL    F4515783   0.087   1.172   7.709 -0.0093 -0.0173  0.1803
  130MOL    F4615784   0.196   1.302   7.570  0.2538 -0.3831  0.3414
  130MOL    C4715785   0.278   1.097   7.633  0.9814  0.5564 -0.2638
  130MOL    H4815786   0.217   1.059   7.551  2.9724  0.5105 -1.7641
  130MOL    H4915787   0.277   1.025   7.714 -0.1243  0.4881 -0.3295
  130MOL    C5015788   0.424   1.103   7.578  0.2673  0.3951  0.3908
  130MOL    F5115789   0.407   1.184   7.474 -0.6878 -0.0517 -0.1254
  130MOL    F5215790   0.494   1.162   7.668  0.2977  0.5152  0.6627
  130MOL    C5315791   0.467   0.962   7.537  0.0370 -0.8317 -0.2861
  130MOL    H5415792   0.395   0.921   7.467 -2.6174  3.9408 -0.5401
  130MOL    H5515793   0.473   0.899   7.626 -0.3331 -1.4962 -0.7334
  130MOL    C5615794   0.610   0.955   7.474 -0.1430  0.7413 -0.5937
  130MOL    F5715795   0.602   0.837   7.413  0.6020 -0.6720  0.1247
  130MOL    F5815796   0.607   1.045   7.378  0.4530  0.4932 -0.5989
  130MOL    C5915797   0.728   0.971   7.576 -0.3021  0.6545  0.0585
  130MOL    H6015798   0.697   0.908   7.659  0.6385  1.4788  1.0420
  130MOL    H6115799   0.739   1.071   7.616  0.9513  0.8113 -0.6580
  130MOL    C6215800   0.864   0.948   7.518 -0.3307  0.0605  0.0819
  130MOL    F6315801   0.951   0.966   7.615  0.1105 -0.1453 -0.3436
  130MOL    F6415802   0.874   0.826   7.474  0.1358 -1.2418  0.1437
  130MOL    C6515803   0.905   1.053   7.420 -0.4917 -0.4358  0.0664
  130MOL    H6615804   0.915   1.147   7.474  0.9827 -0.5206 -0.0348
  130MOL    H6715805   0.840   1.063   7.333  0.1884 -0.2210 -0.4198
  130MOL    C6815806   1.041   1.016   7.359  0.1284  0.9196 -0.0022
  130MOL    F6915807   1.128   0.989   7.454  0.2647 -0.2122 -0.0111
  130MOL    F7015808   1.039   0.909   7.278 -0.1267 -0.4630  0.0697
  130MOL    C7115809   1.087   1.136   7.272 -0.8532  0.1599  0.1463
  130MOL    H7215810   1.083   1.223   7.337 -3.1265  0.3603 -0.2106
  130MOL    H7315811   1.020   1.167   7.192 -1.3481  1.7845  1.1836
  130MOL    C7415812   1.225   1.115   7.208  0.1699 -0.2011 -0.0837
  130MOL    F7515813   1.311   1.094   7.304  0.3152  0.1566 -0.2400
  130MOL    F7615814   1.216   1.010   7.124 -0.2640 -0.2570  0.1035
  130MOL    C7715815   1.290   1.229   7.126 -0.3708  0.6279  0.1018
  130MOL    H7815816   1.241   1.235   7.029 -0.0068 -0.1942 -0.1374
  130MOL    H7915817   1.385   1.184   7.099 -0.9065  0.8693 -2.2359
  130MOL    C8015818   1.294   1.358   7.202 -0.2880 -0.0928  0.6005
  130MOL    F8115819   1.172   1.413   7.206  0.1653  0.2780  0.1436
  130MOL    F8215820   1.337   1.341   7.327 -0.0301  0.4322 -0.0992
  130MOL    C8315821   1.393   1.460   7.140 -0.0776 -0.6533 -0.5190
  130MOL    H8415822   1.386   1.460   7.031  2.3389  0.5730 -0.7153
  130MOL    H8515823   1.496   1.428   7.160  0.0122  0.6780  1.2216
  130MOL    C8615824   1.362   1.608   7.183  0.2045 -0.1077 -0.0524
  130MOL    F8715825   1.239   1.647   7.140  0.2137 -0.4551 -0.1737
  130MOL    F8815826   1.367   1.606   7.319  0.3546 -0.2326 -0.0726
  130MOL    C8915827   1.456   1.708   7.110 -0.1026  0.6996  0.1787
  130MOL    H9015828   1.403   1.804   7.109  0.8902  1.2605 -2.1298
  130MOL    H9115829   1.470   1.674   7.008 -0.9532  1.8762 -0.3395
  130MOL    C9215830   1.600   1.728   7.177  0.0807 -0.1398  0.5702
  130MOL    F9315831   1.577   1.785   7.300 -0.2230  0.0306  0.2990
  130MOL    F9415832   1.643   1.602   7.192  0.1154 -0.0958 -0.0975
  130MOL    C9515833   1.704   1.810   7.095  0.1027  0.0458  0.1357
  130MOL    H9615834   1.672   1.914   7.089 -2.2918 -0.7470 -1.6823
  130MOL    H9715835   1.711   1.781   6.990  1.0731  2.4219 -0.4941
  130MOL    C9815836   1.860   1.806   7.138  0.7272 -0.6753  0.0275
  130MOL    F9915837   1.921   1.897   7.058  0.3649 -0.5002 -0.2438
  130MOL   F10015838   1.870   1.840   7.262 -0.4485 -0.5805 -0.2293
  130MOL   C10115839   1.935   1.670   7.111  0.2537  0.1029 -0.3437
  130MOL   H10215840   1.950   1.660   7.004 -1.1648 -1.2867 -0.4358
  130MOL   H10315841   1.877   1.585   7.147 -1.3302  1.5814  0.6593
  130MOL   C10415842   2.079   1.658   7.170  0.6299 -0.4840  0.2144
  130MOL   F10515843   2.139   1.771   7.138  0.6218  0.1843 -0.1017
  130MOL   F10615844   2.079   1.643   7.301  0.0354 -0.1777  0.0188
  130MOL   C10715845   2.156   1.541   7.113  0.2725 -0.3257  0.3426
  130MOL   H10815846   2.172   1.546   7.005  2.5667  0.0003  0.6668
  130MOL   H10915847   2.088   1.459   7.135 -0.1960 -0.6926 -2.2324
  130MOL   C11015848   2.289   1.490   7.178  0.3933 -0.0115  0.7603
  130MOL   F11115849   2.272   1.469   7.308 -0.4655 -0.1991 -0.3222
  130MOL   F11215850   2.320   1.373   7.113 -0.2633 -0.3606  0.3576
  130MOL   C11315851   2.403   1.591   7.161 -0.4487  0.2436  0.4418
  130MOL   H11415852   2.389   1.677   7.227  1.5640 -0.0410  1.2660
  130MOL   H11515853   2.425   1.610   7.056 -0.9552 -2.1298 -0.1055
  130MOL   C11615854   2.538   1.526   7.208  0.0300 -0.1174 -0.5837
  130MOL   F11715855   2.570   1.436   7.113 -0.0432  0.4394  0.0750
  130MOL   F11815856   2.628   1.623   7.197 -0.5829 -0.0235  0.0088
  130MOL   C11915857   2.550   1.471   7.353  0.4494 -0.0063  0.7653
  130MOL   H12015858   2.488   1.383   7.370 -1.2977  0.9940 -0.2631
  130MOL   H12115859   2.507   1.548   7.418  2.6958  0.5063  1.6831
  130MOL   H12215860   2.654   1.453   7.380  0.1282 -2.6934  0.3012
  131MOL     C115861   4.635   5.782   1.594 -1.1235  0.2159  0.0023
  131MOL     F215862   4.554   5.877   1.544 -0.2654  0.0999  0.5317
  131MOL     F315863   4.569   5.665   1.615  0.6821  0.5505 -0.2286
  131MOL     C415864   4.691   5.835   1.730 -0.6155  0.6108 -0.3827
  131MOL     H515865   4.732   5.746   1.777 -0.4441  0.0911 -1.4913
  131MOL     H615866   4.611   5.871   1.796  0.7254  1.7705  0.6378
  131MOL     H715867   4.713   5.768   1.519 -0.3366  1.8290  0.5049
  131MOL     C815868   4.802   5.949   1.699  0.8124 -1.0380  0.5292
  131MOL     F915869   4.872   5.957   1.812 -0.2874 -0.0561 -0.2613
  131MOL    F1015870   4.880   5.916   1.600 -0.1542  0.0679  0.2938
  131MOL    C1115871   4.740   6.091   1.674 -0.5292  0.4518  0.3054
  131MOL    H1215872   4.680   6.097   1.765 -1.2255 -1.3754 -0.0019
  131MOL    H1315873   4.683   6.085   1.581 -1.0000  2.2513  0.4513
  131MOL    C1415874   4.844   6.201   1.671 -0.4284  0.7528 -0.1022
  131MOL    F1515875   4.915   6.205   1.783 -0.0481 -0.7260 -0.0532
  131MOL    F1615876   4.931   6.177   1.574 -0.4603  0.5630  0.2506
  131MOL    C1715877   4.776   6.336   1.633  0.0965  0.3716  0.2049
  131MOL    H1815878   4.686   6.349   1.694  0.6499  1.3034  0.8319
  131MOL    H1915879   4.745   6.334   1.529 -2.5164 -3.2687  0.9626
  131MOL    C2015880   4.875   6.450   1.658  1.1603 -0.0548 -0.7315
  131MOL    F2115881   4.808   6.563   1.617  0.3272  0.3552  0.2422
  131MOL    F2215882   4.900   6.460   1.789 -0.3268  0.4613 -0.0592
  131MOL    C2315883   5.008   6.452   1.579 -0.2307  0.0525 -0.5997
  131MOL    H2415884   4.996   6.424   1.475  0.6691 -2.0537 -0.1684
  131MOL    H2515885   5.064   6.369   1.622  1.2547  1.3831  0.1165
  131MOL    C2615886   5.110   6.572   1.591  0.3185  0.0102  0.1879
  131MOL    F2715887   5.145   6.586   1.722  0.3258 -0.1828  0.6735
  131MOL    F2815888   5.216   6.528   1.532  0.1853  1.0183  0.0771
  131MOL    C2915889   5.067   6.698   1.516 -0.4053 -0.2033  0.6528
  131MOL    H3015890   4.974   6.732   1.560 -0.4305 -0.4579  0.8012
  131MOL    H3115891   5.038   6.674   1.414 -0.6028  1.6223  0.2697
  131MOL    C3215892   5.176   6.806   1.512 -0.0076 -0.6531  0.2759
  131MOL    F3315893   5.199   6.837   1.641 -0.1842 -0.2533 -0.1267
  131MOL    F3415894   5.285   6.756   1.466 -0.5581  0.0188 -0.6743
  131MOL    C3515895   5.144   6.933   1.425  0.1180 -0.1671  0.3427
  131MOL    H3615896   5.132   6.901   1.321 -2.2219  0.6290  0.3347
  131MOL    H3715897   5.237   6.990   1.431  0.9405 -1.3234 -1.0500
  131MOL    C3815898   5.024   7.018   1.466 -0.1939 -0.4302 -0.4546
  131MOL    F3915899   5.009   7.099   1.362 -0.7252  0.0041 -0.3373
  131MOL    F4015900   4.916   6.932   1.476  0.2387 -0.2531 -0.0467
  131MOL    C4115901   5.051   7.102   1.591  0.2254 -0.4881  0.8702
  131MOL    H4215902   5.153   7.139   1.587 -0.0721  0.2739  0.0184
  131MOL    H4315903   5.051   7.032   1.674 -1.0016  0.6140  1.8252
  131MOL    C4415904   4.951   7.221   1.616  0.0846  0.3258 -0.2468
  131MOL    F4515905   4.961   7.326   1.524  0.2474 -0.0718  0.3848
  131MOL    F4615906   4.822   7.181   1.628  0.0136 -0.0010 -0.1387
  131MOL    C4715907   4.982   7.298   1.747  0.0608  0.0326  0.8164
  131MOL    H4815908   4.967   7.224   1.826  0.5562 -0.6371  0.2823
  131MOL    H4915909   4.891   7.356   1.765 -1.4711 -1.6493 -1.2175
  131MOL    C5015910   5.112   7.374   1.773 -0.6273 -0.1260  0.0156
  131MOL    F5115911   5.216   7.299   1.773 -0.1998  0.2560  0.1961
  131MOL    F5215912   5.136   7.451   1.668 -0.2986  0.1975  0.0264
  131MOL    C5315913   5.112   7.464   1.895 -0.5250  0.4287  0.3820
  131MOL    H5415914   5.078   7.413   1.986  1.1754  1.0146  1.3726
  131MOL    H5515915   5.029   7.530   1.871 -0.2853  0.0981 -1.3921
  131MOL    C5615916   5.246   7.540   1.936 -0.0415 -0.4173  0.5511
  131MOL    F5715917   5.343   7.453   1.961 -0.0260  0.3889  0.1603
  131MOL    F5815918   5.280   7.630   1.843 -0.0977 -0.1989  0.4573
  131MOL    C5915919   5.224   7.613   2.075 -0.3188  0.2074 -0.5697
  131MOL    H6015920   5.186   7.548   2.154 -0.0002  0.4953 -0.1718
  131MOL    H6115921   5.133   7.671   2.059  0.0231  1.0992  0.6177
  131MOL    C6215922   5.348   7.679   2.146 -0.1641 -0.0834 -0.2359
  131MOL    F6315923   5.330   7.711   2.276 -0.4328  0.1920 -0.3963
  131MOL    F6415924   5.446   7.591   2.137 -0.2023 -0.0364 -0.3961
  131MOL    C6515925   5.380   7.809   2.067  0.2839 -0.1976  0.2588
  131MOL    H6615926   5.287   7.858   2.039 -0.2145 -0.8871  0.7092
  131MOL    H6715927   5.429   7.779   1.974 -0.7906  1.8044 -1.0100
  131MOL    C6815928   5.470   7.906   2.151 -0.2551  0.1620 -0.6822
  131MOL    F6915929   5.510   8.006   2.070 -0.1541  0.2503  0.3027
  131MOL    F7015930   5.405   7.974   2.250 -0.0881  0.3849  0.3595
  131MOL    C7115931   5.593   7.842   2.231 -0.5429  0.1875  0.9140
  131MOL    H7215932   5.562   7.759   2.295  0.0968  1.1019  2.4333
  131MOL    H7315933   5.641   7.916   2.294  0.4855  0.0413  0.3140
  131MOL    C7415934   5.718   7.800   2.144 -0.2474  0.5352  0.3004
  131MOL    F7515935   5.665   7.715   2.057  0.4841 -0.1356  0.1966
  131MOL    F7615936   5.762   7.903   2.080  0.0720  0.0827 -0.2577
  131MOL    C7715937   5.822   7.725   2.233  0.3134 -0.5689 -0.3489
  131MOL    H7815938   5.769   7.657   2.301 -0.6529  0.4686 -0.0447
  131MOL    H7915939   5.862   7.798   2.304 -0.5656  1.2376 -1.6817
  131MOL    C8015940   5.947   7.659   2.162  0.1136 -0.7566  0.1896
  131MOL    F8115941   5.991   7.737   2.062  0.0121 -0.1397  0.1529
  131MOL    F8215942   6.047   7.649   2.254  0.2758 -0.1485  0.4086
  131MOL    C8315943   5.905   7.524   2.114 -0.2021 -0.2088  0.2145
  131MOL    H8415944   5.802   7.517   2.076 -0.6192  1.3226  1.0355
  131MOL    H8515945   5.890   7.467   2.206  0.7278  1.6545  1.5373
  131MOL    C8615946   5.984   7.442   2.008  0.0171  0.3365 -0.5061
  131MOL    F8715947   6.100   7.401   2.060  0.1014 -0.2486 -0.4848
  131MOL    F8815948   5.921   7.321   1.986 -0.2438  0.1713 -0.1504
  131MOL    C8915949   6.012   7.501   1.873 -0.6079  0.2319  0.2363
  131MOL    H9015950   6.059   7.422   1.814 -0.9045 -0.4188  0.8641
  131MOL    H9115951   6.077   7.587   1.883  0.8550 -1.0091  1.6177
  131MOL    C9215952   5.887   7.551   1.798 -0.0524 -0.0774 -0.6687
  131MOL    F9315953   5.824   7.648   1.862 -0.0222 -0.4459  0.3513
  131MOL    F9415954   5.935   7.608   1.687 -0.1211  0.2680  0.2813
  131MOL    C9515955   5.798   7.443   1.752 -0.1768  0.8704  0.3020
  131MOL    H9615956   5.751   7.410   1.845  1.5540 -1.4101  0.4085
  131MOL    H9715957   5.843   7.351   1.716  0.8786  1.1062  1.0154
  131MOL    C9815958   5.685   7.481   1.647  0.3038  0.3878  0.1242
  131MOL    F9915959   5.747   7.485   1.520  0.3358  0.1134 -0.5330
  131MOL   F10015960   5.588   7.387   1.648 -0.3464  1.0277 -0.0403
  131MOL   C10115961   5.612   7.617   1.664  0.0724 -0.0542 -0.0568
  131MOL   H10215962   5.687   7.696   1.665  0.5426 -0.5028  0.3944
  131MOL   H10315963   5.553   7.620   1.756  0.7456 -1.7636  0.4398
  131MOL   C10415964   5.522   7.663   1.544  0.3757 -0.6483  0.3477
  131MOL   F10515965   5.468   7.779   1.591  0.1969  0.0786 -0.4957
  131MOL   F10615966   5.593   7.686   1.434 -0.0050 -0.4171 -0.4952
  131MOL   C10715967   5.411   7.569   1.508 -0.6437  0.7413 -0.1747
  131MOL   H10815968   5.349   7.554   1.596  1.2164 -1.6450  0.7755
  131MOL   H10915969   5.461   7.476   1.480  0.8483  1.0128  1.4843
  131MOL   C11015970   5.335   7.607   1.386 -0.5649  0.6883  0.1650
  131MOL   F11115971   5.285   7.729   1.397 -0.1525 -0.3679 -0.6258
  131MOL   F11215972   5.418   7.600   1.279 -0.2282 -0.2121  0.0157
  131MOL   C11315973   5.207   7.516   1.366  0.3337  0.5149 -0.0717
  131MOL   H11415974   5.143   7.540   1.451  0.0795  0.0552 -0.1350
  131MOL   H11515975   5.232   7.412   1.385 -0.2890  0.6474  1.5329
  131MOL   C11615976   5.136   7.539   1.232  0.3336 -0.7392 -0.4184
  131MOL   F11715977   5.083   7.658   1.214  0.2665 -0.0665  0.1532
  131MOL   F11815978   5.223   7.509   1.139 -0.0612  0.1500 -0.0260
  131MOL   C11915979   5.023   7.439   1.226  0.6223  0.2053 -0.4209
  131MOL   H12015980   4.976   7.432   1.128 -2.5465 -1.3725  1.1392
  131MOL   H12115981   4.950   7.472   1.300 -0.7026  1.1985 -2.1262
  131MOL   H12215982   5.055   7.337   1.248 -3.1030 -1.6230 -2.8059
  132MOL     C115983   5.997   4.106   4.898 -0.0211  0.6774 -0.4368
  132MOL     F215984   6.019   4.189   4.801  0.3451 -0.0992 -0.0786
  132MOL     F315985   5.976   4.172   5.015  0.1622  0.1515 -0.4089
  132MOL     C415986   6.122   4.022   4.909 -0.1335 -0.0394 -0.3549
  132MOL     H515987   6.207   4.085   4.938  1.2102 -1.2341 -1.6136
  132MOL     H615988   6.134   3.983   4.808 -1.6869  0.0935 -0.6019
  132MOL     H715989   5.919   4.038   4.865 -0.8778  1.7089 -0.5666
  132MOL     C815990   6.112   3.913   5.016 -0.2396 -0.7235 -0.3745
  132MOL     F915991   6.120   3.976   5.135  0.2274  0.0873 -0.1273
  132MOL    F1015992   5.994   3.853   5.023  0.2918  0.0811 -0.0114
  132MOL    C1115993   6.220   3.799   5.011 -0.0441 -0.8163 -0.2858
  132MOL    H1215994   6.315   3.847   5.032 -0.5924 -0.4680  1.4890
  132MOL    H1315995   6.232   3.758   4.910  2.7487  0.6076 -0.5786
  132MOL    C1415996   6.209   3.685   5.113  0.3918  0.1033  0.3625
  132MOL    F1515997   6.108   3.599   5.064 -0.2125 -0.0511 -0.5184
  132MOL    F1615998   6.323   3.614   5.111 -0.1700 -0.3902 -0.8734
  132MOL    C1715999   6.178   3.725   5.258  1.1628 -0.4467 -0.2431
  132MOL    H1816000   6.086   3.781   5.268  2.0836  1.6337 -2.7484
  132MOL    H1916001   6.268   3.782   5.284 -0.0999  2.2146 -1.4790
  132MOL    C2016002   6.165   3.603   5.345  0.4511  1.0113 -0.4483
  132MOL    F2116003   6.047   3.541   5.320 -0.4405  0.1147 -0.4099
  132MOL    F2216004   6.266   3.514   5.325  0.4790 -0.3767  0.4418
  132MOL    C2316005   6.175   3.652   5.492 -0.2474  0.2302  0.7574
  132MOL    H2416006   6.117   3.740   5.518 -0.5122 -0.6277  3.1600
  132MOL    H2516007   6.275   3.692   5.508  0.4586 -1.5499  0.9574
  132MOL    C2616008   6.167   3.534   5.595  0.1525 -0.1265 -0.4215
  132MOL    F2716009   6.051   3.472   5.575  0.0038  0.7723 -0.5944
  132MOL    F2816010   6.262   3.447   5.576 -0.2591 -0.3716  0.3174
  132MOL    C2916011   6.176   3.592   5.739 -0.1628  0.2964 -0.6768
  132MOL    H3016012   6.127   3.689   5.748  3.3177  2.1150 -0.2936
  132MOL    H3116013   6.281   3.615   5.761 -0.5688  1.5573  0.0163
  132MOL    C3216014   6.127   3.501   5.855  0.0344  0.1437  0.4323
  132MOL    F3316015   6.156   3.569   5.965  0.1020 -0.4154  0.3379
  132MOL    F3416016   5.995   3.489   5.854 -0.5453  0.2079  0.3491
  132MOL    C3516017   6.206   3.360   5.855  0.1446  0.5410 -0.2951
  132MOL    H3616018   6.185   3.304   5.764 -0.1210 -2.4019  1.5141
  132MOL    H3716019   6.144   3.302   5.924  2.8090  0.4026  2.0613
  132MOL    C3816020   6.348   3.344   5.908  0.0439  0.4982  0.2658
  132MOL    F3916021   6.431   3.440   5.861  0.0376  0.2156 -0.4782
  132MOL    F4016022   6.336   3.365   6.037  0.0299 -0.0878 -0.4861
  132MOL    C4116023   6.409   3.205   5.896  0.0318  0.2944 -0.6480
  132MOL    H4216024   6.333   3.135   5.930 -0.8219  1.1152 -0.8180
  132MOL    H4316025   6.497   3.193   5.959 -1.1557  0.4189  1.0822
  132MOL    C4416026   6.437   3.165   5.746  0.0928  0.0254 -0.1128
  132MOL    F4516027   6.479   3.044   5.765  0.3849 -0.0366  0.7967
  132MOL    F4616028   6.329   3.162   5.669 -0.1776 -0.1960  0.0574
  132MOL    C4716029   6.547   3.245   5.676 -0.0732  0.5600 -0.4204
  132MOL    H4816030   6.626   3.254   5.751 -0.0705  1.2141 -0.4914
  132MOL    H4916031   6.519   3.349   5.656 -2.6252 -0.5098 -2.5503
  132MOL    C5016032   6.599   3.181   5.544  0.0704  0.2914  0.4990
  132MOL    F5116033   6.707   3.248   5.504  0.4265  0.3142 -0.0358
  132MOL    F5216034   6.625   3.056   5.570  0.7280 -0.8104  0.1193
  132MOL    C5316035   6.493   3.204   5.432  0.4416 -0.0445  0.1005
  132MOL    H5416036   6.457   3.306   5.439 -1.3467 -0.6657  0.2820
  132MOL    H5516037   6.407   3.143   5.459 -0.6654  1.3437 -0.2488
  132MOL    C5616038   6.544   3.189   5.285 -0.5652 -0.2360 -1.1111
  132MOL    F5716039   6.634   3.284   5.261  0.2559 -0.3933  0.2885
  132MOL    F5816040   6.602   3.075   5.261  0.2271 -0.0233  0.3021
  132MOL    C5916041   6.441   3.221   5.177  0.1378  0.1941 -0.3397
  132MOL    H6016042   6.488   3.191   5.083  0.7208  1.2622 -0.4022
  132MOL    H6116043   6.420   3.327   5.170  1.7441  0.4932 -0.9011
  132MOL    C6216044   6.303   3.146   5.199  0.4148 -0.1607 -0.0520
  132MOL    F6316045   6.334   3.019   5.209 -0.3959  0.1848  0.1093
  132MOL    F6416046   6.245   3.195   5.308 -0.0867  0.0506  0.3545
  132MOL    C6516047   6.204   3.158   5.077 -0.4988 -0.8733  0.0785
  132MOL    H6616048   6.241   3.094   4.997 -2.5381  1.0751 -2.5114
  132MOL    H6716049   6.210   3.259   5.037  1.0811 -0.6844  0.7517
  132MOL    C6816050   6.059   3.116   5.117 -0.3482  0.1128  0.1748
  132MOL    F6916051   6.017   3.206   5.193  0.1435 -0.0480 -0.4127
  132MOL    F7016052   5.988   3.126   5.009 -0.2427 -0.6137 -0.1881
  132MOL    C7116053   6.038   2.981   5.189  0.0776 -0.2049  0.2271
  132MOL    H7216054   6.109   2.951   5.266 -1.0294 -0.8326  1.0107
  132MOL    H7316055   6.075   2.918   5.109 -0.7898  0.9444 -1.0982
  132MOL    C7416056   5.892   2.948   5.227 -0.1172 -0.6541 -0.1035
  132MOL    F7516057   5.819   2.940   5.118 -0.4682 -0.0173  0.4210
  132MOL    F7616058   5.884   2.830   5.296  0.1611  0.1428  0.3220
  132MOL    C7716059   5.814   3.042   5.317 -0.1330  0.4689  0.4505
  132MOL    H7816060   5.715   2.998   5.333 -0.7391  1.6739  0.0457
  132MOL    H7916061   5.798   3.133   5.260  2.1401 -0.0736 -1.0750
  132MOL    C8016062   5.873   3.068   5.453  0.9174  0.3463  0.4646
  132MOL    F8116063   5.896   2.955   5.517  0.3733  0.1974  0.3223
  132MOL    F8216064   5.992   3.129   5.432 -0.4204 -0.3635  0.6976
  132MOL    C8316065   5.774   3.153   5.538  0.1948  0.2614  0.5040
  132MOL    H8416066   5.822   3.171   5.634 -0.2902  0.0039  0.8016
  132MOL    H8516067   5.683   3.094   5.553 -0.2767  0.8646  0.0779
  132MOL    C8616068   5.741   3.285   5.477  0.0732 -0.3908  0.1456
  132MOL    F8716069   5.852   3.337   5.441 -0.1686 -0.7667 -0.0878
  132MOL    F8816070   5.651   3.264   5.375  0.1402  0.2877 -0.5619
  132MOL    C8916071   5.680   3.370   5.594  0.2712  0.1713 -0.5130
  132MOL    H9016072   5.758   3.412   5.658  0.5319 -0.9737 -0.0703
  132MOL    H9116073   5.622   3.308   5.662  0.7639 -0.2554 -0.4706
  132MOL    C9216074   5.589   3.485   5.556  0.6708 -0.1708  0.0255
  132MOL    F9316075   5.481   3.435   5.513 -0.4538 -0.0020  0.5858
  132MOL    F9416076   5.560   3.556   5.667  0.2922  0.5475  0.7263
  132MOL    C9516077   5.650   3.589   5.455 -0.0803 -0.7231  1.3266
  132MOL    H9616078   5.688   3.533   5.369 -0.9762  1.4049 -0.5029
  132MOL    H9716079   5.740   3.633   5.499  0.4456  1.2480 -1.5057
  132MOL    C9816080   5.554   3.699   5.414  0.2068  0.4243 -0.0558
  132MOL    F9916081   5.443   3.639   5.371  0.4676 -0.4980 -0.3297
  132MOL   F10016082   5.521   3.761   5.525  0.0942  0.4124 -0.1780
  132MOL   C10116083   5.602   3.790   5.302 -0.2856  0.2388 -0.6652
  132MOL   H10216084   5.522   3.858   5.271 -0.8307 -0.5163 -0.9248
  132MOL   H10316085   5.626   3.729   5.215  0.5935 -0.2143 -0.1223
  132MOL   C10416086   5.716   3.879   5.353  0.2083 -0.2406 -0.8591
  132MOL   F10516087   5.684   3.940   5.463  0.0060 -0.0220  0.0472
  132MOL   F10616088   5.823   3.800   5.371 -0.0403 -0.2347 -0.2121
  132MOL   C10716089   5.759   3.999   5.251 -0.4574  0.7960 -0.0051
  132MOL   H10816090   5.792   3.950   5.160  0.5032 -2.4875  2.0116
  132MOL   H10916091   5.847   4.058   5.280 -0.8320  1.3593  0.0082
  132MOL   C11016092   5.643   4.103   5.205  0.4006  0.0837 -0.0133
  132MOL   F11116093   5.581   4.038   5.111 -0.1053 -0.3030 -0.1327
  132MOL   F11216094   5.559   4.115   5.307  0.3582 -0.3174 -0.3749
  132MOL   C11316095   5.679   4.249   5.155  0.7584  0.4373  0.2174
  132MOL   H11416096   5.763   4.249   5.085 -0.4161  0.9319 -1.2035
  132MOL   H11516097   5.713   4.301   5.244  0.6735 -2.4257  1.9896
  132MOL   C11616098   5.557   4.334   5.097  1.0608  0.4075  0.2819
  132MOL   F11716099   5.534   4.277   4.972 -0.2573 -0.0465 -0.4440
  132MOL   F11816100   5.450   4.319   5.176 -0.1613 -0.2549 -0.3319
  132MOL   C11916101   5.592   4.477   5.080  0.0673  0.3806  0.0217
  132MOL   H12016102   5.680   4.493   5.018 -0.1076 -1.8112 -0.8610
  132MOL   H12116103   5.607   4.514   5.182 -0.7318  0.8635 -0.0380
  132MOL   H12216104   5.514   4.533   5.030 -0.4922  0.3020  0.7883
  133MOL     C116105   3.754   0.584   3.017 -0.1916  0.1501 -0.3411
  133MOL     F216106   3.887   0.552   3.017 -0.5784  0.2644 -0.3146
  133MOL     F316107   3.752   0.706   3.060  0.1161  0.2472  0.2494
  133MOL     C416108   3.672   0.494   3.113 -1.0480  0.1558 -0.0679
  133MOL     H516109   3.712   0.502   3.215  1.9559 -1.1305 -1.0910
  133MOL     H616110   3.696   0.390   3.091 -2.4439 -0.7397  2.4899
  133MOL     H716111   3.725   0.579   2.912 -0.4418  1.3762 -0.3410
  133MOL     C816112   3.516   0.517   3.105 -0.4658  0.1741 -0.0494
  133MOL     F916113   3.479   0.498   2.975  0.6453 -0.4690 -0.9263
  133MOL    F1016114   3.467   0.419   3.170  0.1148 -0.7393 -0.2107
  133MOL    C1116115   3.478   0.653   3.156 -0.6026  0.3632  0.1849
  133MOL    H1216116   3.518   0.729   3.088 -1.8734 -0.5081 -1.5710
  133MOL    H1316117   3.535   0.679   3.245  0.3670 -0.8810 -0.0550
  133MOL    C1416118   3.332   0.686   3.174  0.6108  0.1985  0.8208
  133MOL    F1516119   3.333   0.811   3.222 -0.6299 -0.0874 -0.0047
  133MOL    F1616120   3.289   0.694   3.048 -0.2684  0.6034 -0.5978
  133MOL    C1716121   3.247   0.588   3.263 -0.0155  0.2508 -0.0617
  133MOL    H1816122   3.295   0.570   3.359 -2.9704  1.1839  1.6456
  133MOL    H1916123   3.235   0.487   3.223 -0.0141 -0.3463  1.4247
  133MOL    C2016124   3.105   0.634   3.285 -0.9286 -0.6177 -0.3067
  133MOL    F2116125   3.120   0.751   3.349  0.0297  0.0384 -0.0008
  133MOL    F2216126   3.045   0.659   3.162  0.1954 -0.3166 -0.0023
  133MOL    C2316127   3.021   0.549   3.378  0.1996  0.2449 -0.4805
  133MOL    H2416128   2.938   0.606   3.421 -0.1751 -1.0798  0.5733
  133MOL    H2516129   3.076   0.527   3.469 -0.7240  1.9846  0.5201
  133MOL    C2616130   2.954   0.422   3.316 -0.7271  1.0473 -0.2662
  133MOL    F2716131   2.863   0.467   3.232 -0.0503  0.1001  0.2142
  133MOL    F2816132   3.052   0.349   3.258  0.4494 -0.2054 -0.4003
  133MOL    C2916133   2.870   0.342   3.426 -0.1784  0.9046 -0.4228
  133MOL    H3016134   2.785   0.403   3.458 -0.2576  1.2298 -1.2264
  133MOL    H3116135   2.936   0.312   3.507 -0.7314  2.9223  0.8077
  133MOL    C3216136   2.819   0.216   3.364  0.2310 -0.2240 -0.8107
  133MOL    F3316137   2.734   0.246   3.265  0.1858  0.5063  0.2749
  133MOL    F3416138   2.915   0.146   3.304  0.7630  0.6606  0.2873
  133MOL    C3516139   2.754   0.117   3.463 -0.5243 -0.2465 -0.7185
  133MOL    H3616140   2.829   0.070   3.528 -1.7115 -1.3610 -0.1272
  133MOL    H3716141   2.721   0.025   3.415  0.6187 -1.8078  1.3656
  133MOL    C3816142   2.651   0.167   3.574 -0.2602  0.7950  0.4664
  133MOL    F3916143   2.717   0.248   3.658 -0.4691 -0.2721 -0.1614
  133MOL    F4016144   2.541   0.229   3.524  0.3394 -0.0683 -0.5819
  133MOL    C4116145   2.608   0.053   3.674  0.5642  0.2404  0.3422
  133MOL    H4216146   2.555   0.112   3.748  0.6910 -0.8965  1.3490
  133MOL    H4316147   2.695   0.017   3.729  0.7621 -0.5499 -0.4867
  133MOL    C4416148   2.510   8.284   3.643 -0.1892  0.1491  0.3261
  133MOL    F4516149   2.544   8.259   3.526  0.6444  0.1855  0.1368
  133MOL    F4616150   2.536   8.184   3.726  0.1967  0.3629 -0.4476
  133MOL    C4716151   2.368   8.332   3.641 -0.2798 -0.0200 -0.1747
  133MOL    H4816152   2.363   0.066   3.571  0.5600  0.8077  0.7370
  133MOL    H4916153   2.349   0.029   3.738  0.5431 -0.6200  0.2790
  133MOL    C5016154   2.254   8.233   3.612 -0.1907  0.6411  0.1697
  133MOL    F5116155   2.277   8.180   3.496  0.7519  0.3775  0.3496
  133MOL    F5216156   2.260   8.139   3.697  0.1798  0.1392 -1.0361
  133MOL    C5316157   2.116   8.294   3.601  0.4110  0.6852  0.5736
  133MOL    H5416158   2.115   0.012   3.516  0.0168 -0.3584 -0.2627
  133MOL    H5516159   2.105   0.007   3.690 -3.6575  1.6525 -0.5145
  133MOL    C5616160   1.994   8.198   3.594 -0.2982  0.0020 -0.0140
  133MOL    F5716161   1.999   8.126   3.480 -0.1682  0.0216 -0.1731
  133MOL    F5816162   1.991   8.112   3.700  0.4684  0.7673  0.4753
  133MOL    C5916163   1.857   8.275   3.594 -1.0168 -0.7028  0.2016
  133MOL    H6016164   1.847   8.307   3.698 -1.9655 -2.1270  0.5617
  133MOL    H6116165   1.780   8.198   3.587 -0.0969 -1.8236  2.0570
  133MOL    C6216166   1.846   0.041   3.482 -0.8210  0.5211  0.0001
  133MOL    F6316167   1.905   0.149   3.538 -0.6024  0.4715 -0.0118
  133MOL    F6416168   1.911   0.004   3.374  0.2901  0.0348  0.6405
  133MOL    C6516169   1.697   0.062   3.457  0.3469  1.3019  0.6998
  133MOL    H6616170   1.630   0.033   3.538  1.3888 -3.3115  0.0562
  133MOL    H6716171   1.666   8.332   3.390  0.2751  0.8168  1.3051
  133MOL    C6816172   1.656   0.196   3.404 -0.2550  0.5812 -1.2841
  133MOL    F6916173   1.682   0.278   3.510  0.1181  0.0160  0.2815
  133MOL    F7016174   1.738   0.223   3.305 -0.2100  0.3441  0.3196
  133MOL    C7116175   1.513   0.220   3.360  1.1479 -0.2738 -0.0725
  133MOL    H7216176   1.495   0.145   3.283 -1.9537  1.3582 -1.0223
  133MOL    H7316177   1.510   0.314   3.305 -0.2627 -0.0550  0.3605
  133MOL    C7416178   1.405   0.201   3.465  0.1045  0.1079 -0.1252
  133MOL    F7516179   1.407   0.072   3.498  0.1736 -0.0764  0.0306
  133MOL    F7616180   1.413   0.277   3.577 -0.1712 -0.0943  0.5535
  133MOL    C7716181   1.268   0.224   3.410 -0.4620 -0.0102  0.5773
  133MOL    H7816182   1.250   0.166   3.320  0.7949  1.0624 -0.3863
  133MOL    H7916183   1.257   0.324   3.368  0.4618 -1.3815 -3.1033
  133MOL    C8016184   1.145   0.205   3.503 -0.5752 -0.1416  1.0056
  133MOL    F8116185   1.049   0.227   3.419  0.3392 -0.0209 -0.6205
  133MOL    F8216186   1.146   0.083   3.543  0.4466 -0.4620  0.0286
  133MOL    C8316187   1.134   0.301   3.627 -0.0519 -0.1354 -0.9178
  133MOL    H8416188   1.154   0.406   3.609  2.0351 -0.2647  0.3879
  133MOL    H8516189   1.215   0.268   3.692 -1.6096 -0.4676  0.8915
  133MOL    C8616190   1.004   0.283   3.713  0.3403 -0.0725  0.4307
  133MOL    F8716191   0.986   0.156   3.728  0.0362  0.1448  0.0493
  133MOL    F8816192   1.025   0.331   3.832 -0.9121 -0.1363 -0.1127
  133MOL    C8916193   0.883   0.346   3.645 -0.1656 -1.2364  0.6626
  133MOL    H9016194   0.869   0.304   3.545 -2.3159  0.4064  0.2633
  133MOL    H9116195   0.895   0.453   3.633  0.2128 -1.6195 -3.2019
  133MOL    C9216196   0.744   0.326   3.707 -0.5440  0.0158  0.5148
  133MOL    F9316197   0.658   0.372   3.617  0.3484 -0.3450 -0.1711
  133MOL    F9416198   0.702   0.199   3.724 -0.1017  0.2534 -0.1189
  133MOL    C9516199   0.737   0.391   3.851  0.0135  0.3223  0.2643
  133MOL    H9616200   0.801   0.336   3.921  1.7108  1.5791 -0.2655
  133MOL    H9716201   0.637   0.366   3.885 -0.1436  0.0123 -0.4295
  133MOL    C9816202   0.752   0.539   3.860  0.7361 -0.8989  0.2249
  133MOL    F9916203   0.881   0.574   3.848 -0.4107  0.4303  0.6433
  133MOL   F10016204   0.693   0.602   3.751 -0.1995 -0.0192 -0.2933
  133MOL   C10116205   0.711   0.617   3.989 -0.6708  0.2230 -0.0893
  133MOL   H10216206   0.603   0.622   3.996 -0.7147 -0.7715 -0.0409
  133MOL   H10316207   0.748   0.719   3.975 -1.9066  0.9618  1.8834
  133MOL   C10416208   0.766   0.557   4.119 -0.0914 -0.2127  0.7517
  133MOL   F10516209   0.715   0.440   4.145  0.1205 -0.2850 -0.1044
  133MOL   F10616210   0.899   0.546   4.093 -0.5118  0.5331 -0.2466
  133MOL   C10716211   0.735   0.645   4.243 -0.3329 -0.1573 -0.9614
  133MOL   H10816212   0.628   0.652   4.263  0.0333  1.0585  0.7147
  133MOL   H10916213   0.772   0.745   4.224 -0.4116  0.4540  1.8333
  133MOL   C11016214   0.789   0.598   4.373  0.6995  0.3867 -0.2035
  133MOL   F11116215   0.716   0.485   4.409 -0.1637 -0.2915 -0.4336
  133MOL   F11216216   0.905   0.567   4.351 -0.6113  0.2568  0.6733
  133MOL   C11316217   0.781   0.710   4.481  0.5049 -0.1156 -0.0615
  133MOL   H11416218   0.682   0.742   4.513 -0.0198 -1.1292 -0.6196
  133MOL   H11516219   0.815   0.808   4.448  2.4719  0.0807  2.4216
  133MOL   C11616220   0.844   0.669   4.612  0.6289  0.6819 -0.2756
  133MOL   F11716221   0.979   0.666   4.604  0.1652  0.1557  0.3859
  133MOL   F11816222   0.815   0.764   4.707  0.2938  0.1698  0.1728
  133MOL   C11916223   0.801   0.544   4.674 -0.3547  0.3631 -0.4324
  133MOL   H12016224   0.840   0.456   4.622  1.4446 -0.0514  1.5546
  133MOL   H12116225   0.692   0.543   4.682 -0.3581  2.7588  0.1078
  133MOL   H12216226   0.833   0.542   4.778 -2.1385 -0.5872  0.1209
  134MOL     C116227   0.690   3.738   0.571  0.8153  0.3173 -0.9278
  134MOL     F216228   0.562   3.746   0.605  0.2547 -0.4348  0.1107
  134MOL     F316229   0.689   3.721   0.437  0.3260 -0.0267 -0.5387
  134MOL     C416230   0.777   3.634   0.649  0.1769 -0.0944  0.6630
  134MOL     H516231   0.718   3.542   0.647  1.0906 -0.6838  0.4540
  134MOL     H616232   0.765   3.657   0.754  1.5347 -2.5848  1.4083
  134MOL     H716233   0.734   3.838   0.573  0.8858  0.2871 -0.9493
  134MOL     C816234   0.924   3.609   0.610  0.0874 -0.3388 -0.4198
  134MOL     F916235   0.976   3.731   0.612  0.2526 -0.4071 -0.1541
  134MOL    F1016236   0.979   3.545   0.711  0.0520  0.2506 -0.5936
  134MOL    C1116237   0.951   3.543   0.478 -0.1501  0.0777  0.0250
  134MOL    H1216238   0.885   3.571   0.395 -1.7642 -0.4529  1.1034
  134MOL    H1316239   0.923   3.438   0.493  1.7579 -0.2144  1.7391
  134MOL    C1416240   1.096   3.541   0.431  0.3959 -0.3726  0.3522
  134MOL    F1516241   1.120   3.663   0.391  0.2882 -0.3413 -0.0718
  134MOL    F1616242   1.166   3.523   0.540 -0.3199 -0.2848 -0.0738
  134MOL    C1716243   1.140   3.429   0.338  0.0161 -0.3557 -0.0198
  134MOL    H1816244   1.077   3.437   0.249 -0.5646 -0.6955  0.3593
  134MOL    H1916245   1.109   3.338   0.389 -0.1438  0.6799  1.7895
  134MOL    C2016246   1.288   3.437   0.302  0.4107 -0.7767  0.3811
  134MOL    F2116247   1.302   3.557   0.241  0.2866 -0.4553  0.7625
  134MOL    F2216248   1.375   3.435   0.404  0.0424  0.7614  0.3612
  134MOL    C2316249   1.343   3.324   0.214  0.2088  0.1082  0.1797
  134MOL    H2416250   1.342   3.227   0.263 -0.3907 -1.1488 -2.2281
  134MOL    H2516251   1.451   3.333   0.205  0.3164 -2.0949 -1.1695
  134MOL    C2616252   1.276   3.330   0.076  0.4486 -0.2091  0.6054
  134MOL    F2716253   1.326   3.223   0.008 -0.1461 -0.3924 -0.4972
  134MOL    F2816254   1.139   3.321   0.077  0.1939  0.2113 -0.1276
  134MOL    C2916255   1.308   3.451   8.341 -0.3597 -0.2045  0.1508
  134MOL    H3016256   1.414   3.473   0.001  0.0176 -1.3220 -1.2250
  134MOL    H3116257   1.239   3.529   0.025 -0.3585 -0.0166 -0.2767
  134MOL    C3216258   1.273   3.440   8.196  0.2944 -0.9642  0.4802
  134MOL    F3316259   1.337   3.337   8.138 -0.0544 -0.0548 -0.0267
  134MOL    F3416260   1.143   3.417   8.175 -0.3500 -0.5530 -0.6513
  134MOL    C3516261   1.307   3.563   8.103 -0.2594 -0.4355 -1.1397
  134MOL    H3616262   1.405   3.597   8.140 -1.2233 -1.0368  2.1295
  134MOL    H3716263   1.241   3.646   8.128  1.5271 -0.3835  4.2047
  134MOL    C3816264   1.300   3.540   7.949  0.6076 -0.6947  0.6053
  134MOL    F3916265   1.399   3.463   7.913 -0.0757 -0.4543  0.0480
  134MOL    F4016266   1.188   3.479   7.902 -0.5380 -0.4161  0.3898
  134MOL    C4116267   1.310   3.673   7.870  0.0668  0.6441 -0.1819
  134MOL    H4216268   1.411   3.714   7.873  1.0014 -1.5463 -0.7211
  134MOL    H4316269   1.243   3.744   7.918  2.2654  0.8105  2.7760
  134MOL    C4416270   1.280   3.658   7.717 -0.6441 -0.0145  0.3671
  134MOL    F4516271   1.359   3.558   7.674 -0.1554  0.1116 -0.2199
  134MOL    F4616272   1.152   3.616   7.707  0.0634  0.2885  0.3078
  134MOL    C4716273   1.305   3.789   7.636 -0.6231 -0.4162 -0.4294
  134MOL    H4816274   1.412   3.806   7.645 -0.7868 -0.0108  0.8793
  134MOL    H4916275   1.255   3.867   7.693  0.5228  0.2588 -0.3570
  134MOL    C5016276   1.280   3.792   7.485  0.7746  0.1041  0.3901
  134MOL    F5116277   1.156   3.760   7.467 -0.3064 -0.1584 -0.3304
  134MOL    F5216278   1.298   3.923   7.448 -0.4049  0.2075  0.2107
  134MOL    C5316279   1.373   3.697   7.390  0.0223 -0.3887 -0.2460
  134MOL    H5416280   1.374   3.596   7.431 -0.6915 -0.2223  0.1876
  134MOL    H5516281   1.475   3.733   7.406  0.1776 -0.9322  0.0135
  134MOL    C5616282   1.350   3.700   7.243 -0.1675 -0.1863  0.6843
  134MOL    F5716283   1.334   3.825   7.206 -0.3536 -0.4200 -0.4942
  134MOL    F5816284   1.459   3.658   7.179 -0.4047  0.1349  0.1135
  134MOL    C5916285   1.233   3.602   7.212 -0.0766  0.4042 -0.2907
  134MOL    H6016286   1.145   3.620   7.273  0.1769 -0.1405  0.2400
  134MOL    H6116287   1.261   3.499   7.234 -1.1187  0.4033  1.1276
  134MOL    C6216288   1.188   3.594   7.066  0.3729 -0.0460 -0.1657
  134MOL    F6316289   1.284   3.547   6.990  0.0772  0.1228  0.1921
  134MOL    F6416290   1.086   3.506   7.058  0.0387 -0.3557 -0.0188
  134MOL    C6516291   1.146   3.728   7.005  1.1813  0.6387  0.4958
  134MOL    H6616292   1.228   3.799   7.019  0.5768  1.0665  2.0890
  134MOL    H6716293   1.070   3.773   7.069  1.6905  1.4341  0.5444
  134MOL    C6816294   1.085   3.741   6.859  0.4005  0.5889 -0.6441
  134MOL    F6916295   0.967   3.675   6.857  0.2287 -0.3504  0.0486
  134MOL    F7016296   1.062   3.874   6.835  0.0067  0.4583  0.6989
  134MOL    C7116297   1.182   3.694   6.746  0.2655  0.4207  0.4762
  134MOL    H7216298   1.220   3.595   6.772  0.2219  0.8946  2.4011
  134MOL    H7316299   1.264   3.761   6.723  1.0970 -1.4266 -2.1733
  134MOL    C7416300   1.123   3.689   6.604  0.3596  0.2143 -0.2694
  134MOL    F7516301   1.014   3.610   6.600  0.5326  0.6539 -0.7766
  134MOL    F7616302   1.093   3.809   6.554  0.2046  0.5181  0.1983
  134MOL    C7716303   1.221   3.613   6.506  0.1694 -0.1126 -0.2328
  134MOL    H7816304   1.166   3.617   6.412 -1.8262  1.4030  0.9515
  134MOL    H7916305   1.238   3.508   6.527 -0.2686 -0.7335 -2.8128
  134MOL    C8016306   1.364   3.676   6.503 -0.8819  0.4571  0.2042
  134MOL    F8116307   1.355   3.808   6.499  0.1262  0.9401  0.2649
  134MOL    F8216308   1.438   3.633   6.603  0.0363 -0.0710 -0.8938
  134MOL    C8316309   1.448   3.640   6.377 -0.2689 -0.2580  0.1225
  134MOL    H8416310   1.460   3.532   6.364  0.2176 -0.1615 -0.2115
  134MOL    H8516311   1.547   3.682   6.391 -0.2668 -0.8901  2.2603
  134MOL    C8616312   1.413   3.689   6.237  0.6921 -0.2856  0.0371
  134MOL    F8716313   1.288   3.654   6.212 -0.4367 -0.3243 -0.2243
  134MOL    F8816314   1.419   3.821   6.234  0.4604 -0.4694  0.1769
  134MOL    C8916315   1.522   3.637   6.133 -0.2246 -0.1881 -0.1898
  134MOL    H9016316   1.546   3.532   6.145 -0.9967 -0.2988  0.4593
  134MOL    H9116317   1.618   3.681   6.157 -0.8195  1.5428 -0.8590
  134MOL    C9216318   1.495   3.660   5.984  0.2379  0.0515  0.3383
  134MOL    F9316319   1.510   3.790   5.957 -0.4984  0.3166 -0.0690
  134MOL    F9416320   1.593   3.598   5.915  0.2016  0.0899  0.3041
  134MOL    C9516321   1.354   3.630   5.933  0.3875  0.1825  0.2529
  134MOL    H9616322   1.292   3.707   5.979  0.2029 -0.4721  1.1249
  134MOL    H9716323   1.318   3.542   5.986 -0.4007 -0.8750 -1.9746
  134MOL    C9816324   1.339   3.598   5.782  0.0823 -0.5010  0.4181
  134MOL    F9916325   1.390   3.704   5.721 -0.3719  0.5275  0.2261
  134MOL   F10016326   1.392   3.486   5.739  0.0792 -0.3820  0.2936
  134MOL   C10116327   1.194   3.591   5.738 -0.1628  0.6950  0.1940
  134MOL   H10216328   1.146   3.682   5.772 -0.6043  0.6556 -0.3219
  134MOL   H10316329   1.152   3.506   5.792  1.3505  0.3699  0.9011
  134MOL   C10416330   1.178   3.569   5.587 -0.0168 -0.2118  0.1615
  134MOL   F10516331   1.210   3.686   5.520  0.2942  0.1308  0.6494
  134MOL   F10616332   1.253   3.472   5.534 -0.5532 -0.2830  0.0381
  134MOL   C10716333   1.037   3.537   5.540  0.0867  0.5124  0.8197
  134MOL   H10816334   1.029   3.550   5.432 -0.6046  1.1717  0.9433
  134MOL   H10916335   0.968   3.611   5.580 -0.0127  0.9153 -0.0983
  134MOL   C11016336   0.971   3.397   5.576  0.0239 -0.9484  1.2142
  134MOL   F11116337   0.981   3.372   5.704 -0.0626 -0.0386  0.1865
  134MOL   F11216338   0.837   3.407   5.546 -0.5180  0.3050 -0.4064
  134MOL   C11316339   1.045   3.291   5.488  0.1062 -0.2926 -0.0651
  134MOL   H11416340   1.147   3.272   5.523  1.1190  0.6296 -2.3629
  134MOL   H11516341   1.052   3.316   5.382  2.8879 -0.8024 -0.0426
  134MOL   C11616342   0.979   3.152   5.487 -0.3158  0.2217  0.0597
  134MOL   F11716343   1.063   3.063   5.431 -0.0774  1.3204  0.0441
  134MOL   F11816344   0.961   3.107   5.613  0.2967 -0.9114 -0.1775
  134MOL   C11916345   0.844   3.140   5.413 -0.1010  0.6978  0.3679
  134MOL   H12016346   0.807   3.038   5.402  0.7459  0.3104  1.0353
  134MOL   H12116347   0.841   3.189   5.315  1.2884  0.2072  0.0535
  134MOL   H12216348   0.769   3.196   5.468 -1.8126 -0.1663 -1.0364
  135MOL     C116349   8.211   7.044   1.460 -0.4843 -0.0694 -0.2602
  135MOL     F216350   8.340   7.018   1.488 -0.1678  0.1811  0.0445
  135MOL     F316351   8.133   6.936   1.491 -0.8002  0.2228 -0.1516
  135MOL     C416352   8.197   7.062   1.309 -0.1533  0.1175  0.3254
  135MOL     H516353   8.228   6.969   1.263  1.2196  0.0531  1.3475
  135MOL     H616354   8.268   7.141   1.285 -1.8756  2.4558  2.6093
  135MOL     H716355   8.165   7.130   1.509  0.1988  0.4862 -0.5898
  135MOL     C816356   8.050   7.093   1.270  0.4742  0.1302  0.5814
  135MOL     F916357   7.972   6.993   1.312  0.1963  0.0296  0.1132
  135MOL    F1016358   8.021   7.204   1.332  0.3253  0.0932 -0.6097
  135MOL    C1116359   8.023   7.101   1.118  0.3052  0.0615 -0.4168
  135MOL    H1216360   7.918   7.130   1.110  0.5427  1.6109  1.5388
  135MOL    H1316361   8.032   6.998   1.085 -2.1770 -0.3696  0.1644
  135MOL    C1416362   8.116   7.190   1.035  0.7173  0.3349 -0.6173
  135MOL    F1516363   8.230   7.123   1.026 -0.3938  0.2725  0.0485
  135MOL    F1616364   8.066   7.178   0.912 -0.2545  0.2127  0.6468
  135MOL    C1716365   8.130   7.336   1.086  0.4932 -0.8257 -0.2464
  135MOL    H1816366   8.177   7.339   1.184 -0.0950  1.3599  0.0016
  135MOL    H1916367   8.031   7.379   1.103  0.4615 -0.5943 -1.0093
  135MOL    C2016368   8.210   7.429   0.990  0.2894  0.5467 -0.0715
  135MOL    F2116369   8.343   7.396   1.003  0.2532 -0.0465 -0.4115
  135MOL    F2216370   8.164   7.422   0.867  0.0752  0.0022 -0.0656
  135MOL    C2316371   8.196   7.571   1.035 -0.2574 -0.5711  0.0446
  135MOL    H2416372   8.225   7.578   1.140 -1.2935  2.3848  0.1819
  135MOL    H2516373   8.090   7.591   1.020  0.0087 -0.9384 -2.5369
  135MOL    C2616374   8.268   7.675   0.944 -0.0181 -0.0915 -0.5448
  135MOL    F2716375   8.244   7.645   0.813  0.1813 -0.1426  0.3687
  135MOL    F2816376   8.202   7.793   0.959  0.3885 -0.5324 -0.2092
  135MOL    C2916377   0.076   7.693   0.977 -0.2435 -0.5537 -0.3780
  135MOL    H3016378   0.123   7.760   0.905  0.2696  2.0621  2.2877
  135MOL    H3116379   0.117   7.597   0.945  0.9718 -0.9114  2.1048
  135MOL    C3216380   0.127   7.729   1.117  0.2495  0.7370 -0.2079
  135MOL    F3316381   0.068   7.834   1.166 -0.3769 -0.1570  0.2419
  135MOL    F3416382   0.104   7.622   1.188  0.2870  0.2622 -0.1484
  135MOL    C3516383   0.275   7.762   1.126 -0.5780  0.0265 -0.8994
  135MOL    H3616384   0.285   7.853   1.067 -0.2697  0.6161  0.0537
  135MOL    H3716385   0.342   7.683   1.094  0.8742 -0.5318  3.2609
  135MOL    C3816386   0.328   7.807   1.266 -0.8579  0.0762 -0.2491
  135MOL    F3916387   0.264   7.916   1.314 -0.2694  0.0214  0.1000
  135MOL    F4016388   0.299   7.710   1.348 -0.4346  0.0828  0.1292
  135MOL    C4116389   0.477   7.813   1.268 -0.9739  0.0662 -0.1985
  135MOL    H4216390   0.520   7.713   1.260  4.3988  2.1999 -0.1811
  135MOL    H4316391   0.517   7.859   1.358  0.1150 -0.4502 -0.4078
  135MOL    C4416392   0.557   7.890   1.152 -0.6442 -0.4349  0.2898
  135MOL    F4516393   0.540   7.826   1.040 -0.0947  0.2853 -0.0776
  135MOL    F4616394   0.499   8.007   1.144  0.3424 -0.4370  0.3356
  135MOL    C4716395   0.713   7.891   1.173  0.2979  0.3272 -0.2851
  135MOL    H4816396   0.755   7.791   1.179 -2.0689 -0.7194 -0.6095
  135MOL    H4916397   0.719   7.940   1.271 -1.7022 -0.3791  0.2197
  135MOL    C5016398   0.801   7.968   1.076 -1.2242 -0.3483  0.4217
  135MOL    F5116399   0.750   8.091   1.058  0.0794 -0.0477  0.1199
  135MOL    F5216400   0.924   7.979   1.130 -0.0061  0.1852  0.2770
  135MOL    C5316401   0.808   7.898   0.946  0.4501 -0.4912 -0.4781
  135MOL    H5416402   0.708   7.902   0.904 -0.6396 -1.6848  1.9358
  135MOL    H5516403   0.821   7.791   0.963 -1.5594 -1.1632 -2.9026
  135MOL    C5616404   0.908   7.957   0.845  0.3637  0.2803  0.2565
  135MOL    F5716405   0.869   7.908   0.727 -0.3494  0.2124  0.6922
  135MOL    F5816406   0.894   8.090   0.838  0.5410 -0.5555  0.0171
  135MOL    C5916407   1.053   7.900   0.866  0.7324  0.0494 -0.4248
  135MOL    H6016408   1.052   7.794   0.841  0.3634 -0.0574  0.0283
  135MOL    H6116409   1.082   7.897   0.972 -0.0998  0.3371 -0.1876
  135MOL    C6216410   1.162   7.962   0.780  0.1884 -0.0819 -0.1814
  135MOL    F6316411   1.280   7.896   0.794 -0.0406  0.4449  0.6915
  135MOL    F6416412   1.118   7.945   0.653  0.2204  0.4658  0.0649
  135MOL    C6516413   1.198   8.107   0.810 -0.1394 -0.3108 -0.0250
  135MOL    H6616414   1.118   8.167   0.766  0.8857  1.6759  0.7344
  135MOL    H6716415   1.281   8.139   0.747  1.4452 -0.2480  2.0459
  135MOL    C6816416   1.236   8.144   0.951 -0.1482 -0.4113 -0.1512
  135MOL    F6916417   1.127   8.140   1.030 -0.0911  0.3064  0.0680
  135MOL    F7016418   1.332   8.061   1.004  0.2342  0.0521  0.2012
  135MOL    C7116419   1.296   8.281   0.967  0.0934  0.4214  0.4461
  135MOL    H7216420   1.392   8.289   0.916  1.6147  0.7980  3.2642
  135MOL    H7316421   1.320   8.298   1.072 -0.5209 -0.2825  0.7069
  135MOL    C7416422   1.212   0.049   0.931 -0.0289 -0.1633  0.0497
  135MOL    F7516423   1.177   0.042   0.803 -0.1652 -0.3161  0.8117
  135MOL    F7616424   1.098   0.049   1.003 -0.0800  0.7297 -0.2019
  135MOL    C7716425   1.284   0.184   0.945 -0.6953  0.6894  0.3445
  135MOL    H7816426   1.220   0.265   0.910 -1.0721  0.7577  1.1744
  135MOL    H7916427   1.357   0.178   0.865 -1.6371 -0.4456 -0.4416
  135MOL    C8016428   1.366   0.214   1.067  0.0707 -0.3060 -0.0063
  135MOL    F8116429   1.290   0.199   1.175 -0.2926 -0.2458 -1.2034
  135MOL    F8216430   1.480   0.138   1.066  0.5786  0.1641 -0.3197
  135MOL    C8316431   1.412   0.358   1.072  0.6983 -0.1371  0.2914
  135MOL    H8416432   1.328   0.422   1.048  0.1752 -0.7737  0.4042
  135MOL    H8516433   1.473   0.369   0.982 -0.0747 -1.0096 -0.3548
  135MOL    C8616434   1.473   0.419   1.203  0.4262 -0.4004 -0.2735
  135MOL    F8716435   1.377   0.402   1.296 -0.2651  0.3381 -0.6329
  135MOL    F8816436   1.576   0.342   1.239  0.2487 -0.1560  0.1960
  135MOL    C8916437   1.512   0.559   1.186 -0.8543 -0.3434  0.1529
  135MOL    H9016438   1.426   0.616   1.152 -0.8136 -1.3032 -1.6739
  135MOL    H9116439   1.577   0.570   1.098 -1.4287  0.0521 -0.2260
  135MOL    C9216440   1.586   0.633   1.300  0.2595  0.4027  0.8190
  135MOL    F9316441   1.560   0.763   1.278 -0.0943 -0.0889  0.0032
  135MOL    F9416442   1.532   0.605   1.410  0.1965  0.1884 -0.0434
  135MOL    C9516443   1.736   0.611   1.311  0.1159  0.2505  0.1924
  135MOL    H9616444   1.792   0.655   1.228 -2.0374  1.0959 -0.8509
  135MOL    H9716445   1.751   0.504   1.295 -1.4457  0.3593 -2.3900
  135MOL    C9816446   1.816   0.649   1.441 -0.0360 -0.0351 -1.0741
  135MOL    F9916447   1.808   0.784   1.450 -0.2790 -0.0871  0.2142
  135MOL   F10016448   1.772   0.585   1.552  0.3946 -0.4563 -0.0666
  135MOL   C10116449   1.967   0.616   1.428  0.2991  1.1513  0.1673
  135MOL   H10216450   2.022   0.673   1.504 -1.9994  1.6613  1.5081
  135MOL   H10316451   1.992   0.632   1.324  0.8957 -0.5851  0.0313
  135MOL   C10416452   2.011   0.468   1.459  0.7978 -1.0923  0.0017
  135MOL   F10516453   2.004   0.454   1.588  0.4367 -0.2915  0.4995
  135MOL   F10616454   1.929   0.381   1.401  0.5104  0.4740  0.2784
  135MOL   C10716455   2.160   0.447   1.424 -0.3745 -0.0462  0.2109
  135MOL   H10816456   2.221   0.522   1.474 -0.6974  0.7064 -0.5210
  135MOL   H10916457   2.174   0.477   1.320 -0.1774 -1.5405 -0.2174
  135MOL   C11016458   2.226   0.314   1.455  0.6624  0.6265  0.2132
  135MOL   F11116459   2.355   0.332   1.419  0.0900 -0.4092  0.0790
  135MOL   F11216460   2.214   0.300   1.585  0.0455  0.0333  0.6237
  135MOL   C11316461   2.165   0.198   1.370 -0.3488  0.0353 -0.0856
  135MOL   H11416462   2.159   0.216   1.263 -3.1761  0.2502  0.0793
  135MOL   H11516463   2.059   0.196   1.396 -0.0924  3.3264  1.4904
  135MOL   C11616464   2.223   0.057   1.402 -0.3725  0.4916 -0.3961
  135MOL   F11716465   2.220   0.047   1.530 -0.4802 -0.0848  0.5571
  135MOL   F11816466   2.151   8.320   1.344 -0.0158 -0.2577 -0.0880
  135MOL   C11916467   2.362   0.046   1.348 -0.6204  0.1386 -0.5439
  135MOL   H12016468   2.428   0.114   1.402  1.4685 -1.3708 -1.1761
  135MOL   H12116469   2.363   0.058   1.240 -0.4542  1.0703 -0.4470
  135MOL   H12216470   2.389   8.293   1.369  0.0086  0.7228  1.6632
  136MOL     C116471   3.373   1.090   1.058  0.0077  0.7896  0.2617
  136MOL     F216472   3.270   1.008   1.034 -0.3147  0.6500 -0.0961
  136MOL     F316473   3.422   1.038   1.173 -0.4604 -0.2160  0.8262
  136MOL     C416474   3.342   1.240   1.096  0.1700 -0.2181 -0.2170
  136MOL     H516475   3.434   1.284   1.134  0.6269 -1.2071 -0.1663
  136MOL     H616476   3.273   1.247   1.180  0.6328 -1.4113  0.2830
  136MOL     H716477   3.452   1.087   0.983 -1.2869  0.5415 -1.1064
  136MOL     C816478   3.289   1.317   0.975  0.6388  0.0163 -0.4265
  136MOL     F916479   3.329   1.254   0.863 -0.3507 -0.0944 -0.2672
  136MOL    F1016480   3.159   1.318   0.963 -0.2430 -0.3520 -0.4198
  136MOL    C1116481   3.342   1.461   0.963  0.3328 -0.1234  0.5569
  136MOL    H1216482   3.291   1.509   0.879  0.0929 -2.5450 -0.7482
  136MOL    H1316483   3.446   1.459   0.931  0.9745 -0.4636  2.6374
  136MOL    C1416484   3.324   1.562   1.085 -0.4954 -0.2690  0.2369
  136MOL    F1516485   3.217   1.520   1.150 -0.0537  0.0947 -0.7249
  136MOL    F1616486   3.429   1.551   1.175 -0.2368 -0.6497  0.0507
  136MOL    C1716487   3.313   1.713   1.050  0.3399 -0.2300 -0.0294
  136MOL    H1816488   3.291   1.764   1.144  1.6826  2.0755 -0.9341
  136MOL    H1916489   3.229   1.724   0.982  0.9596  0.0834 -0.7550
  136MOL    C2016490   3.447   1.765   0.990  0.2671  0.4947  0.3416
  136MOL    F2116491   3.544   1.748   1.079  0.6632  0.0735  0.1928
  136MOL    F2216492   3.474   1.698   0.878 -0.1351 -0.0559  0.3310
  136MOL    C2316493   3.444   1.910   0.940  0.3739 -0.7593  0.5430
  136MOL    H2416494   3.402   1.976   1.016 -0.1480 -1.7008  1.0853
  136MOL    H2516495   3.362   1.917   0.869  0.1108 -0.3165  0.8876
  136MOL    C2616496   3.567   1.979   0.876 -0.7185 -0.7435  0.3850
  136MOL    F2716497   3.533   2.105   0.849 -0.3882  0.1547 -0.1190
  136MOL    F2816498   3.669   1.983   0.959 -0.1079 -0.5203 -0.0656
  136MOL    C2916499   3.619   1.907   0.751  1.0570 -0.4977 -0.4869
  136MOL    H3016500   3.534   1.871   0.692  1.2788  0.3261 -1.3172
  136MOL    H3116501   3.689   1.825   0.767  0.1242 -1.5015 -1.4012
  136MOL    C3216502   3.703   1.997   0.656 -0.6536  0.1862 -0.5760
  136MOL    F3316503   3.618   2.084   0.601 -0.1201  0.3196  0.3438
  136MOL    F3416504   3.788   2.051   0.742  0.0313  0.0912 -0.7035
  136MOL    C3516505   3.771   1.918   0.543  0.5380 -0.7518  0.3815
  136MOL    H3616506   3.708   1.857   0.479  1.4118 -1.2820  0.0163
  136MOL    H3716507   3.851   1.856   0.582  2.0995  0.6209 -0.5325
  136MOL    C3816508   3.857   2.005   0.441 -0.0614 -0.3537 -0.3675
  136MOL    F3916509   3.818   2.128   0.421 -0.0681  0.3896 -0.2037
  136MOL    F4016510   3.978   2.014   0.488  0.5036 -0.0281 -0.2273
  136MOL    C4116511   3.879   1.938   0.305  0.0847  0.4444 -0.4323
  136MOL    H4216512   3.788   1.930   0.246  1.0778 -0.8805 -1.8434
  136MOL    H4316513   3.916   1.839   0.332  0.1027  0.3075 -0.9431
  136MOL    C4416514   3.990   2.019   0.229  0.4404  0.5997 -0.8421
  136MOL    F4516515   4.115   2.023   0.279  0.5837 -0.1541  0.3443
  136MOL    F4616516   3.997   1.953   0.109  0.1932 -0.4858  0.0847
  136MOL    C4716517   3.944   2.160   0.183 -0.5305  0.4156  0.2187
  136MOL    H4816518   3.950   2.233   0.264 -2.1159  2.0363 -1.0781
  136MOL    H4916519   3.837   2.164   0.163 -0.2006 -0.1147 -1.6990
  136MOL    C5016520   4.016   2.233   0.069 -0.6083  0.8851 -0.0384
  136MOL    F5116521   3.977   2.200   8.298  0.4245  0.1243 -0.0360
  136MOL    F5216522   3.973   2.358   0.077  0.0860  0.3074 -0.0225
  136MOL    C5316523   4.168   2.228   0.049 -0.1004 -0.1393 -0.2352
  136MOL    H5416524   4.192   2.276   8.304 -0.1383 -0.0120 -0.1796
  136MOL    H5516525   4.209   2.126   0.048  1.7871  0.5921 -2.5924
  136MOL    C5616526   4.257   2.310   0.145  0.1738 -1.0711 -0.1113
  136MOL    F5716527   4.206   2.435   0.169 -0.0553  0.3806 -0.2264
  136MOL    F5816528   4.254   2.245   0.265 -0.1720 -0.1649  0.4049
  136MOL    C5916529   4.402   2.323   0.096 -0.7801  0.0136 -0.0754
  136MOL    H6016530   4.397   2.375   0.000 -0.2582  1.3108  0.5882
  136MOL    H6116531   4.443   2.228   0.064  2.8175  1.1621  0.8220
  136MOL    C6216532   4.509   2.373   0.198 -0.3158  0.2232  0.2525
  136MOL    F6316533   4.481   2.496   0.238  0.0275 -0.5155 -0.0320
  136MOL    F6416534   4.515   2.288   0.299  0.4130 -0.0379  0.0052
  136MOL    C6516535   4.646   2.373   0.128  0.6874  0.2772 -0.2066
  136MOL    H6616536   4.646   2.434   0.038 -1.2569  0.2086 -0.2727
  136MOL    H6716537   4.682   2.280   0.084 -0.9917 -1.2389  1.5392
  136MOL    C6816538   4.764   2.436   0.216  0.7210  0.2841 -0.2310
  136MOL    F6916539   4.877   2.434   0.141  0.3511 -0.1335 -0.0069
  136MOL    F7016540   4.739   2.559   0.252 -0.2178  0.2910 -0.4966
  136MOL    C7116541   4.806   2.354   0.340  0.0077 -0.2976  0.7302
  136MOL    H7216542   4.718   2.361   0.404  0.4633 -1.0613  1.4494
  136MOL    H7316543   4.893   2.398   0.388  0.2171 -0.9953  0.9928
  136MOL    C7416544   4.851   2.209   0.307  0.4296  0.5310 -0.4244
  136MOL    F7516545   4.750   2.139   0.261 -0.1641 -0.5628  0.0581
  136MOL    F7616546   4.950   2.214   0.211  0.2055 -0.0742 -0.0285
  136MOL    C7716547   4.907   2.138   0.428 -0.3595  0.0476 -0.4412
  136MOL    H7816548   4.985   2.196   0.477  1.0396 -0.3365 -2.1670
  136MOL    H7916549   4.954   2.047   0.393  0.3851  0.0350  0.5851
  136MOL    C8016550   4.803   2.083   0.526 -0.1969  0.3725 -0.4145
  136MOL    F8116551   4.728   2.178   0.582  0.0478 -0.2426 -0.0129
  136MOL    F8216552   4.714   2.001   0.466 -0.6399  0.0777  0.1865
  136MOL    C8316553   4.861   1.994   0.633  0.6139 -0.6408  0.0458
  136MOL    H8416554   4.902   1.902   0.591  3.0933 -0.0308  1.0316
  136MOL    H8516555   4.777   1.959   0.694 -0.2888  0.8367 -0.3374
  136MOL    C8616556   4.975   2.056   0.719 -0.0142 -0.6697  0.1603
  136MOL    F8716557   5.088   2.080   0.647 -0.4216 -0.0262  0.7025
  136MOL    F8816558   4.938   2.174   0.769  0.2433  0.2532  0.9347
  136MOL    C8916559   5.020   1.968   0.833 -0.1505 -0.6076  0.2562
  136MOL    H9016560   5.093   2.038   0.875  0.4553 -1.6293  0.9299
  136MOL    H9116561   5.062   1.874   0.797  0.7974 -0.4455  0.9204
  136MOL    C9216562   4.915   1.912   0.938 -0.0414  0.1381  0.1367
  136MOL    F9316563   4.846   1.812   0.887  0.3744  0.1770 -0.0197
  136MOL    F9416564   4.995   1.866   1.037 -0.5642  0.1611 -0.2339
  136MOL    C9516565   4.829   2.021   1.001 -0.2058 -0.6100  0.1465
  136MOL    H9616566   4.757   2.056   0.927  1.2553  3.3667  0.4693
  136MOL    H9716567   4.891   2.111   1.002 -0.5316 -0.3674 -1.1629
  136MOL    C9816568   4.766   1.994   1.139 -0.9279  0.3429 -0.5768
  136MOL    F9916569   4.862   1.988   1.224 -0.7053  0.0177 -0.1017
  136MOL   F10016570   4.702   2.109   1.148 -0.1115  0.7392 -0.1074
  136MOL   C10116571   4.672   1.875   1.141  0.1309  0.3373 -0.5649
  136MOL   H10216572   4.734   1.785   1.136  2.2598  1.6912  0.5991
  136MOL   H10316573   4.621   1.869   1.045  1.7030 -0.4775 -1.3532
  136MOL   C10416574   4.592   1.871   1.276 -0.2278  0.3190 -0.2103
  136MOL   F10516575   4.680   1.867   1.372 -0.4423  0.4020 -0.2053
  136MOL   F10616576   4.521   1.983   1.293  0.2083  0.1178 -0.0710
  136MOL   C10716577   4.498   1.740   1.281  0.1168  0.3261 -0.8036
  136MOL   H10816578   4.421   1.745   1.205  1.3061  0.0924 -2.0499
  136MOL   H10916579   4.450   1.745   1.379  0.3281 -1.9342 -0.5488
  136MOL   C11016580   4.573   1.603   1.258 -0.0674 -0.1917  0.4825
  136MOL   F11116581   4.603   1.588   1.127 -0.0634  0.0675 -0.1706
  136MOL   F11216582   4.688   1.599   1.334 -0.2972  0.2574  0.0441
  136MOL   C11316583   4.502   1.473   1.292  0.3872 -0.1906  0.2876
  136MOL   H11416584   4.508   1.458   1.400  3.1223 -0.5521  0.1192
  136MOL   H11516585   4.564   1.393   1.251  1.3786  1.3532 -1.2800
  136MOL   C11616586   4.361   1.451   1.244  0.8914  0.2098  0.4446
  136MOL   F11716587   4.322   1.337   1.297 -0.0013 -0.2781 -0.1774
  136MOL   F11816588   4.295   1.549   1.307 -0.4974 -0.4355  0.1142
  136MOL   C11916589   4.338   1.454   1.089 -0.1935 -0.3072  0.7208
  136MOL   H12016590   4.232   1.460   1.065  0.1880  1.4643 -0.5990
  136MOL   H12116591   4.383   1.365   1.044 -1.0659  0.0175 -0.8348
  136MOL   H12216592   4.383   1.544   1.046  0.0712  0.2993  2.2471
  137MOL     C116593   7.715   7.922   4.257  0.1669 -0.6675  0.4717
  137MOL     F216594   7.747   8.043   4.278 -0.3761  0.0411 -0.1406
  137MOL     F316595   7.591   7.906   4.302 -0.1813 -0.3045  0.3432
  137MOL     C416596   7.824   7.826   4.311 -0.2087 -0.2588  0.2113
  137MOL     H516597   7.842   7.851   4.416  1.9464 -0.9542  0.0193
  137MOL     H616598   7.908   7.841   4.244 -2.2519  1.3921 -2.0637
  137MOL     H716599   7.704   7.916   4.148  1.9831  1.6205  0.1313
  137MOL     C816600   7.776   7.674   4.298 -0.5945  0.5426 -0.5978
  137MOL     F916601   7.652   7.651   4.353 -1.2214 -0.0355 -0.3579
  137MOL    F1016602   7.765   7.642   4.166  0.6140  0.1589  0.0603
  137MOL    C1116603   7.884   7.578   4.365  0.1871  0.1542  0.4396
  137MOL    H1216604   7.872   7.582   4.474 -2.8904  0.2300  0.1417
  137MOL    H1316605   7.987   7.608   4.350  0.3100  0.2751  1.4492
  137MOL    C1416606   7.884   7.429   4.334 -0.2323 -0.5557  0.2055
  137MOL    F1516607   7.911   7.417   4.207 -0.2239 -0.3097  0.1311
  137MOL    F1616608   7.982   7.378   4.407  0.2270  0.4497  0.2367
  137MOL    C1716609   7.749   7.352   4.377  0.1890 -0.1960  0.0894
  137MOL    H1816610   7.666   7.375   4.310  0.5971 -0.8009 -0.6306
  137MOL    H1916611   7.721   7.377   4.479 -1.2230  0.9821 -0.5570
  137MOL    C2016612   7.749   7.203   4.365  0.4791 -0.0371 -0.2213
  137MOL    F2116613   7.836   7.151   4.450 -0.5573 -0.6597  0.6168
  137MOL    F2216614   7.635   7.172   4.419  0.0419 -0.5947  0.0027
  137MOL    C2316615   7.757   7.156   4.218  0.4365  0.0896  0.5435
  137MOL    H2416616   7.857   7.180   4.182  1.5937 -1.7623  2.4068
  137MOL    H2516617   7.675   7.201   4.162 -2.5362 -1.7732  3.2027
  137MOL    C2616618   7.738   7.003   4.212  0.5662  0.4222  0.4024
  137MOL    F2716619   7.621   6.974   4.266 -0.0668 -0.0885 -0.5012
  137MOL    F2816620   7.730   6.983   4.076 -0.1675  0.3692 -0.1032
  137MOL    C2916621   7.838   6.912   4.277 -0.0173  0.5992 -0.0772
  137MOL    H3016622   7.846   6.921   4.385  0.9043 -0.6635 -0.0258
  137MOL    H3116623   7.939   6.937   4.244  0.2686 -1.7997 -1.1827
  137MOL    C3216624   7.815   6.763   4.245 -0.0399 -0.2377  0.1261
  137MOL    F3316625   7.818   6.748   4.111 -0.3882  0.2177  0.3829
  137MOL    F3416626   7.920   6.699   4.286 -0.5381 -0.0794  0.2601
  137MOL    C3516627   7.699   6.706   4.323 -0.0427 -0.8724 -0.4305
  137MOL    H3616628   7.606   6.748   4.283  1.1143  2.5505  0.2870
  137MOL    H3716629   7.704   6.744   4.425 -0.3033 -3.4771  0.5890
  137MOL    C3816630   7.689   6.553   4.328  0.7292  0.6666 -0.2038
  137MOL    F3916631   7.672   6.510   4.202 -0.4780  0.0916  0.3452
  137MOL    F4016632   7.789   6.492   4.386  0.2524 -0.3723  0.2479
  137MOL    C4116633   7.574   6.526   4.414  0.2386  0.1725 -0.4556
  137MOL    H4216634   7.492   6.597   4.401 -0.0924 -0.0076  0.5460
  137MOL    H4316635   7.600   6.556   4.515  0.7147  0.9031 -0.7920
  137MOL    C4416636   7.532   6.382   4.421  0.7807  0.2830 -0.6287
  137MOL    F4516637   7.509   6.347   4.289  0.4785 -0.0866 -0.2360
  137MOL    F4616638   7.632   6.311   4.469  0.1413 -0.2845  0.1242
  137MOL    C4716639   7.408   6.359   4.511 -0.0916  0.5769 -0.6259
  137MOL    H4816640   7.322   6.422   4.488 -0.2002  0.9757  0.8402
  137MOL    H4916641   7.436   6.377   4.615  0.6068  1.0461 -0.8936
  137MOL    C5016642   7.351   6.209   4.489  0.2633 -0.8256 -0.3467
  137MOL    F5116643   7.228   6.213   4.553 -0.6444 -0.3814 -0.1938
  137MOL    F5216644   7.324   6.187   4.361 -0.1672  0.0868  0.4244
  137MOL    C5316645   7.433   6.090   4.560 -0.3347  0.5376  0.0853
  137MOL    H5416646   7.444   6.122   4.664 -2.4248  0.2489  0.4064
  137MOL    H5516647   7.535   6.076   4.524  0.4066 -2.0888  2.9172
  137MOL    C5616648   7.368   5.939   4.530 -0.0113  0.0192 -0.5764
  137MOL    F5716649   7.234   5.953   4.530  0.1113  0.0283 -0.1233
  137MOL    F5816650   7.400   5.912   4.398 -0.8461  0.1314  0.1939
  137MOL    C5916651   7.414   5.815   4.613  0.3856 -0.3455 -0.3804
  137MOL    H6016652   7.518   5.804   4.582  1.1844  2.1457  1.3092
  137MOL    H6116653   7.350   5.731   4.585  0.1494  0.3458 -1.9919
  137MOL    C6216654   7.425   5.828   4.769  0.7723  0.2503 -0.2110
  137MOL    F6316655   7.473   5.712   4.814  0.1967 -0.2633 -0.1066
  137MOL    F6416656   7.516   5.924   4.796  0.1341  0.1437 -0.6694
  137MOL    C6516657   7.290   5.879   4.821 -0.1578  0.5442 -0.2832
  137MOL    H6616658   7.226   5.793   4.803 -1.5093  0.9413  2.2793
  137MOL    H6716659   7.265   5.976   4.777  0.2965  1.2473  0.9607
  137MOL    C6816660   7.276   5.884   4.974  0.0118 -0.7838 -0.2211
  137MOL    F6916661   7.149   5.914   5.011  0.3814  0.1063  0.9589
  137MOL    F7016662   7.290   5.757   5.020 -0.2383 -0.5350  0.4761
  137MOL    C7116663   7.369   5.986   5.053 -0.5754  0.9501  1.6625
  137MOL    H7216664   7.474   5.979   5.023  0.2086  2.3057  4.0155
  137MOL    H7316665   7.366   5.958   5.158  0.9304  1.6350  1.9047
  137MOL    C7416666   7.330   6.130   5.038 -0.2475 -0.6017  0.1348
  137MOL    F7516667   7.317   6.173   4.911 -0.2306  0.3879  0.5435
  137MOL    F7616668   7.213   6.150   5.091 -0.4605 -0.2465 -0.1913
  137MOL    C7716669   7.426   6.221   5.104  0.2835 -0.3394 -0.4114
  137MOL    H7816670   7.482   6.168   5.181 -0.8770 -1.4445 -0.3102
  137MOL    H7916671   7.374   6.301   5.157  0.1100 -0.2986 -0.6452
  137MOL    C8016672   7.521   6.292   5.011  0.8858  0.4631  0.2303
  137MOL    F8116673   7.583   6.198   4.934  0.2210  0.3977 -0.3635
  137MOL    F8216674   7.466   6.375   4.931 -0.4906 -0.8896 -0.4190
  137MOL    C8316675   7.629   6.373   5.080 -0.0104  0.2621 -0.1180
  137MOL    H8416676   7.682   6.442   5.015  0.1973  0.8060  0.6175
  137MOL    H8516677   7.701   6.317   5.141 -0.8946  0.8066  1.4590
  137MOL    C8616678   7.588   6.469   5.196 -0.9986  0.2019 -0.0053
  137MOL    F8716679   7.508   6.559   5.145  0.2080  0.3942 -1.0507
  137MOL    F8816680   7.535   6.406   5.302  0.5271 -0.3134 -0.3520
  137MOL    C8916681   7.706   6.539   5.266  0.2212 -0.1578 -0.5213
  137MOL    H9016682   7.774   6.462   5.299  0.5294  0.4732  0.3319
  137MOL    H9116683   7.659   6.587   5.352 -0.3903  0.8466 -1.3899
  137MOL    C9216684   7.777   6.645   5.179  0.7693 -0.0885  0.2546
  137MOL    F9316685   7.824   6.601   5.063 -0.1553  0.1864 -0.4677
  137MOL    F9416686   7.683   6.725   5.137 -0.0181 -0.0168 -0.3860
  137MOL    C9516687   7.895   6.732   5.245  0.0571  0.1744 -0.0983
  137MOL    H9616688   7.865   6.773   5.341 -2.5767 -1.0097 -0.3730
  137MOL    H9716689   7.918   6.821   5.186 -0.4243  1.8541  2.2094
  137MOL    C9816690   8.029   6.656   5.276 -0.0101 -0.0667  0.0916
  137MOL    F9916691   8.005   6.584   5.380 -0.0201  0.1168 -0.0721
  137MOL   F10016692   8.071   6.590   5.174 -0.4014  0.0921 -0.4217
  137MOL   C10116693   8.144   6.751   5.317  0.4602 -0.4814  0.2511
  137MOL   H10216694   8.113   6.816   5.399 -2.0304 -2.0746  0.6473
  137MOL   H10316695   8.170   6.812   5.230 -0.5753  0.2334  0.4334
  137MOL   C10416696   8.268   6.687   5.381 -0.0769 -0.4405 -0.2233
  137MOL   F10516697   8.335   6.782   5.446 -0.2056  0.6579  0.6305
  137MOL   F10616698   8.224   6.607   5.479  0.5064  0.3211 -0.3019
  137MOL   C10716699   0.008   6.605   5.282  0.5816  0.1803 -0.9879
  137MOL   H10816700   8.295   6.523   5.246 -3.0823  2.7875 -0.8495
  137MOL   H10916701   0.085   6.560   5.344 -0.2083  1.6861  1.1495
  137MOL   C11016702   0.070   6.674   5.154  0.5694  0.2495 -0.3591
  137MOL   F11116703   8.322   6.703   5.069 -0.2153 -0.0685 -0.5469
  137MOL   F11216704   0.123   6.790   5.182 -0.3138  0.2687 -0.3085
  137MOL   C11316705   0.187   6.594   5.088 -0.7629 -0.3881  0.3766
  137MOL   H11416706   0.281   6.609   5.141 -0.7520 -4.1075  1.5410
  137MOL   H11516707   0.216   6.642   4.994  0.5954 -1.1938  0.3661
  137MOL   C11616708   0.166   6.444   5.073  0.2147  0.5347  0.0927
  137MOL   F11716709   0.179   6.387   5.189 -0.1894  0.3930  0.2040
  137MOL   F11816710   0.039   6.424   5.035  0.4945 -0.0865  0.0020
  137MOL   C11916711   0.269   6.376   4.989 -0.3140  0.0248  0.2692
  137MOL   H12016712   0.375   6.397   5.003 -0.1252 -1.6195  1.4956
  137MOL   H12116713   0.247   6.390   4.883 -1.9186  0.9615  0.6990
  137MOL   H12216714   0.260   6.269   5.002  1.1020 -0.3453 -1.6332
  138MOL     C116715   5.217   6.902   5.903  0.1169  0.1004  0.0269
  138MOL     F216716   5.106   6.828   5.887 -0.3865 -0.0209  0.4435
  138MOL     F316717   5.272   6.928   5.785  0.3788  0.4288 -0.3763
  138MOL     C416718   5.308   6.832   6.009  0.0742 -0.5781 -0.3170
  138MOL     H516719   5.247   6.828   6.099 -0.0908 -1.3016 -0.4572
  138MOL     H616720   5.396   6.892   6.032 -0.6397  1.4572 -2.6057
  138MOL     H716721   5.178   6.995   5.944  0.4318  0.5097 -0.5982
  138MOL     C816722   5.348   6.691   5.982  0.1075 -0.0165  0.4859
  138MOL     F916723   5.234   6.618   5.979  0.4890  0.5496 -0.7256
  138MOL    F1016724   5.421   6.675   5.872 -0.3234 -0.0117 -0.0943
  138MOL    C1116725   5.424   6.632   6.105  0.6972  0.4330  0.3481
  138MOL    H1216726   5.360   6.645   6.192  1.0775  1.2063  0.5138
  138MOL    H1316727   5.506   6.700   6.128  0.9786  0.0750  0.4040
  138MOL    C1416728   5.488   6.498   6.097 -0.5661 -0.1167 -0.1658
  138MOL    F1516729   5.566   6.492   5.985  0.2713  0.5041  0.0035
  138MOL    F1616730   5.563   6.479   6.206  0.0098  0.1041 -0.1387
  138MOL    C1716731   5.389   6.391   6.074 -0.2337 -0.5215  0.1288
  138MOL    H1816732   5.446   6.302   6.051 -0.6133 -0.5861 -0.5684
  138MOL    H1916733   5.340   6.413   5.979  3.7405  2.3749 -1.4394
  138MOL    C2016734   5.286   6.355   6.185 -0.2010  0.3802  0.5017
  138MOL    F2116735   5.215   6.458   6.218 -0.1965 -0.1256 -0.4193
  138MOL    F2216736   5.203   6.267   6.126 -0.2052  1.0339 -0.3112
  138MOL    C2316737   5.360   6.284   6.310  0.6562 -1.2373  0.8889
  138MOL    H2416738   5.442   6.346   6.346  0.2440  0.4259 -0.9893
  138MOL    H2516739   5.416   6.196   6.278  0.8022 -1.5227  1.9079
  138MOL    C2616740   5.266   6.256   6.433 -0.0519  0.4118  0.3494
  138MOL    F2716741   5.183   6.358   6.463 -0.7891 -0.3782  0.1627
  138MOL    F2816742   5.181   6.157   6.400  0.0655  0.2248  0.4038
  138MOL    C2916743   5.347   6.225   6.562  0.3925  0.0893  0.3582
  138MOL    H3016744   5.271   6.227   6.640  0.3295 -1.3701  0.3497
  138MOL    H3116745   5.422   6.302   6.580 -0.7816  1.7253 -1.5057
  138MOL    C3216746   5.426   6.094   6.567 -0.9207  0.1424 -0.2042
  138MOL    F3316747   5.544   6.104   6.492 -0.1417 -0.1623  0.2248
  138MOL    F3416748   5.464   6.066   6.695 -0.1252 -0.0697  0.0096
  138MOL    C3516749   5.352   5.975   6.513  0.2255  0.2560  0.4503
  138MOL    H3616750   5.341   5.985   6.405 -2.6080 -1.1752  0.5626
  138MOL    H3716751   5.251   5.997   6.548 -0.6040 -0.8349 -1.1760
  138MOL    C3816752   5.397   5.834   6.553  0.4906  0.7790 -0.1978
  138MOL    F3916753   5.529   5.830   6.563  0.7966  0.5008 -0.3003
  138MOL    F4016754   5.349   5.819   6.671 -0.1184  0.0631  0.1982
  138MOL    C4116755   5.345   5.720   6.463  1.0687 -0.3092 -0.9242
  138MOL    H4216756   5.373   5.626   6.510 -2.9951 -1.4084 -0.5033
  138MOL    H4316757   5.397   5.729   6.367  2.8563 -1.6716 -0.1087
  138MOL    C4416758   5.190   5.718   6.441  0.3422 -0.1104 -0.1412
  138MOL    F4516759   5.145   5.837   6.398  0.3541  0.2126  1.3506
  138MOL    F4616760   5.163   5.621   6.352  0.5374  0.3961 -0.1716
  138MOL    C4716761   5.114   5.688   6.575 -0.2055  0.0145  0.6124
  138MOL    H4816762   5.141   5.768   6.645  1.8315 -1.0656  1.1304
  138MOL    H4916763   5.167   5.598   6.607 -2.2668 -1.5842 -0.4210
  138MOL    C5016764   4.970   5.662   6.571  0.4082 -0.6836  0.4863
  138MOL    F5116765   4.907   5.779   6.555  0.6828  0.1658 -0.1214
  138MOL    F5216766   4.937   5.575   6.476  0.0509 -0.1558 -0.6517
  138MOL    C5316767   4.924   5.592   6.707 -0.4097 -0.3841 -0.1288
  138MOL    H5416768   4.963   5.654   6.787 -1.0632 -3.4271  2.6629
  138MOL    H5516769   4.974   5.495   6.713  0.3705 -0.1292 -2.2803
  138MOL    C5616770   4.771   5.577   6.748  0.0018 -0.0074  0.5354
  138MOL    F5716771   4.774   5.496   6.847 -0.4359 -0.1782  0.4316
  138MOL    F5816772   4.736   5.697   6.793  0.1883  0.8901 -0.1368
  138MOL    C5916773   4.687   5.527   6.624  0.4405 -0.1613  0.2097
  138MOL    H6016774   4.722   5.424   6.609  0.7408 -0.2752  1.5713
  138MOL    H6116775   4.708   5.584   6.534 -0.3074 -4.4944 -2.8809
  138MOL    C6216776   4.536   5.529   6.649 -0.1417  0.1845  0.0581
  138MOL    F6316777   4.473   5.464   6.550  0.2554 -0.0313 -0.0125
  138MOL    F6416778   4.517   5.453   6.760 -0.1713  0.0089  0.6809
  138MOL    C6516779   4.465   5.665   6.653  0.3643  0.3504 -0.1600
  138MOL    H6616780   4.465   5.691   6.547  0.4543  0.1609 -0.2070
  138MOL    H6716781   4.525   5.738   6.708  2.5099 -1.3884 -0.0988
  138MOL    C6816782   4.320   5.660   6.701  0.2073  0.1695 -0.3441
  138MOL    F6916783   4.253   5.568   6.632  0.4869 -0.6374  0.4258
  138MOL    F7016784   4.316   5.624   6.826 -0.5480  0.2992 -0.3122
  138MOL    C7116785   4.231   5.791   6.684  0.0424  0.7682 -0.3769
  138MOL    H7216786   4.278   5.865   6.749  1.8926 -1.3272  0.7331
  138MOL    H7316787   4.138   5.768   6.735  0.6265 -0.6452  0.0597
  138MOL    C7416788   4.213   5.845   6.535  0.4564 -0.2958  0.0961
  138MOL    F7516789   4.332   5.878   6.490 -0.4880 -1.0414  0.0152
  138MOL    F7616790   4.161   5.750   6.454  0.5579  0.6198  0.0702
  138MOL    C7716791   4.122   5.967   6.518 -0.3748 -0.0977  0.0174
  138MOL    H7816792   4.019   5.949   6.550 -1.0603  1.5976 -1.1462
  138MOL    H7916793   4.113   5.995   6.413  1.6084 -1.2370 -0.4854
  138MOL    C8016794   4.166   6.085   6.603 -0.1597 -1.0571 -0.2011
  138MOL    F8116795   4.133   6.054   6.728  0.3828 -0.2839  0.0468
  138MOL    F8216796   4.295   6.102   6.600 -0.2809 -0.5025  0.0559
  138MOL    C8316797   4.079   6.209   6.581  0.0106  0.0298 -0.2984
  138MOL    H8416798   3.977   6.179   6.604 -0.7043  2.0167 -0.8046
  138MOL    H8516799   4.076   6.223   6.473  1.5851 -0.8894 -0.4842
  138MOL    C8616800   4.109   6.342   6.651  0.1410 -0.1032  0.3110
  138MOL    F8716801   4.239   6.354   6.618 -0.3838 -0.0145 -0.8304
  138MOL    F8816802   4.026   6.435   6.592  0.4850  0.1850  0.1142
  138MOL    C8916803   4.100   6.334   6.804 -0.1398 -0.5284  0.0990
  138MOL    H9016804   4.170   6.259   6.841 -2.0997 -1.7717  1.3685
  138MOL    H9116805   4.004   6.297   6.840 -0.5095 -0.2860 -0.6245
  138MOL    C9216806   4.120   6.480   6.865 -0.0828 -0.5735  0.0729
  138MOL    F9316807   4.027   6.563   6.821  0.4161 -0.2961 -0.7177
  138MOL    F9416808   4.107   6.474   7.000 -0.3834 -0.2447  0.0214
  138MOL    C9516809   4.256   6.547   6.827  0.2543 -1.0502  0.2234
  138MOL    H9616810   4.270   6.645   6.874 -0.2904 -1.6860  1.7370
  138MOL    H9716811   4.259   6.568   6.720 -0.4827  0.7031  0.5178
  138MOL    C9816812   4.384   6.485   6.880 -0.1298 -0.2114  0.1304
  138MOL    F9916813   4.394   6.520   7.012 -0.4742 -0.0015  0.1480
  138MOL   F10016814   4.393   6.351   6.873 -0.0234 -0.2691  0.5318
  138MOL   C10116815   4.509   6.561   6.815 -0.2301  0.0835 -0.2627
  138MOL   H10216816   4.595   6.555   6.881 -1.6644  0.2071  1.6744
  138MOL   H10316817   4.494   6.669   6.824 -1.8146 -0.0755 -0.8688
  138MOL   C10416818   4.554   6.537   6.668 -0.3698  0.0500  0.4865
  138MOL   F10516819   4.445   6.529   6.590  0.3785 -0.0977  0.0877
  138MOL   F10616820   4.644   6.624   6.625  0.2380  0.1011  0.3258
  138MOL   C10716821   4.615   6.393   6.647 -1.0433 -0.1889  0.0279
  138MOL   H10816822   4.637   6.369   6.543 -0.4293  0.1266  0.0837
  138MOL   H10916823   4.537   6.317   6.659 -2.2267  0.8909 -0.7265
  138MOL   C11016824   4.739   6.363   6.737 -0.1583 -0.5395 -0.3905
  138MOL   F11116825   4.836   6.450   6.705  0.7018  0.2544 -0.4556
  138MOL   F11216826   4.713   6.380   6.870 -0.2707  0.1613  0.9032
  138MOL   C11316827   4.799   6.221   6.716 -0.0210 -0.0161 -0.4896
  138MOL   H11416828   4.816   6.200   6.610 -0.2481 -0.9934 -0.3344
  138MOL   H11516829   4.716   6.157   6.746 -1.4198  0.7884 -2.5179
  138MOL   C11616830   4.929   6.187   6.786 -0.1517  0.1831 -0.3851
  138MOL   F11716831   5.032   6.261   6.733  0.1189  1.3196 -0.6310
  138MOL   F11816832   4.920   6.215   6.913  0.2442 -0.5264 -0.5631
  138MOL   C11916833   4.975   6.046   6.773  0.6502 -0.1952 -0.2076
  138MOL   H12016834   4.914   5.978   6.833  1.1978 -0.5158 -0.0126
  138MOL   H12116835   5.079   6.041   6.805 -0.0479 -1.6525  1.9378
  138MOL   H12216836   4.977   6.011   6.670  1.3060  0.3432 -0.3774
  139MOL     C116837   2.577   7.869   3.834  0.3813  0.1712  0.7826
  139MOL     F216838   2.621   7.750   3.812  0.2655 -0.1520 -0.8508
  139MOL     F316839   2.643   7.907   3.939 -0.7270 -0.1542  0.2008
  139MOL     C416840   2.426   7.875   3.857  0.1923 -0.4173  0.2211
  139MOL     H516841   2.398   7.980   3.855 -0.6877 -0.6823 -1.4625
  139MOL     H616842   2.396   7.816   3.944 -1.2929  2.1772  1.5327
  139MOL     H716843   2.605   7.925   3.745 -2.7012 -1.0220 -1.0097
  139MOL     C816844   2.351   7.810   3.740 -0.4427 -0.4344 -0.1936
  139MOL     F916845   2.383   7.885   3.633 -0.0873  0.4131 -0.0476
  139MOL    F1016846   2.381   7.678   3.736 -0.1106  0.6926 -0.1004
  139MOL    C1116847   2.198   7.817   3.739  0.2376 -0.3259  0.2982
  139MOL    H1216848   2.183   7.924   3.725 -0.6582 -0.5724 -0.6900
  139MOL    H1316849   2.158   7.783   3.834  1.3016  0.8058  1.1532
  139MOL    C1416850   2.118   7.741   3.628 -0.2677  0.2919  0.4974
  139MOL    F1516851   2.142   7.614   3.636 -0.1313 -0.1562  0.1288
  139MOL    F1616852   1.982   7.763   3.635  0.0490  0.0554  0.0102
  139MOL    C1716853   2.169   7.784   3.489 -0.3829 -0.0024 -1.2181
  139MOL    H1816854   2.275   7.758   3.494 -0.6624 -0.9512  0.4624
  139MOL    H1916855   2.163   7.893   3.483 -2.3746  0.1884  2.6044
  139MOL    C2016856   2.117   7.703   3.373  0.2718 -0.7261  0.1687
  139MOL    F2116857   2.160   7.578   3.404 -0.5159 -0.1045  0.1761
  139MOL    F2216858   1.988   7.705   3.377 -0.1989  0.9108  0.0724
  139MOL    C2316859   2.172   7.754   3.243  0.2531 -0.0791 -0.5802
  139MOL    H2416860   2.279   7.775   3.243  0.4507 -0.9769  0.6780
  139MOL    H2516861   2.129   7.849   3.215  0.5226  1.0036  2.4557
  139MOL    C2616862   2.145   7.664   3.126 -0.4490 -0.5317  0.2813
  139MOL    F2716863   2.198   7.542   3.142  0.0961  0.1335  0.1044
  139MOL    F2816864   2.014   7.650   3.115 -0.0060 -0.3448 -0.0679
  139MOL    C2916865   2.206   7.716   2.988 -0.0848  0.0221 -1.0250
  139MOL    H3016866   2.310   7.742   3.006 -0.2887 -1.0822  2.1710
  139MOL    H3116867   2.171   7.818   2.974  1.0225  0.5587  0.0685
  139MOL    C3216868   2.202   7.626   2.859 -0.0581 -0.0291 -0.6147
  139MOL    F3316869   2.277   7.675   2.770 -0.5731 -0.2642  0.1210
  139MOL    F3416870   2.246   7.508   2.887 -0.3475  0.6284 -0.3845
  139MOL    C3516871   2.059   7.609   2.798 -0.1701  0.0115  0.7181
  139MOL    H3616872   1.995   7.563   2.873  0.5836 -2.8953 -0.3675
  139MOL    H3716873   2.078   7.534   2.721 -0.1169  2.0203 -1.2945
  139MOL    C3816874   2.015   7.740   2.720  0.2522  0.0804  0.2558
  139MOL    F3916875   2.007   7.838   2.807 -0.2733  0.1405 -0.2011
  139MOL    F4016876   2.090   7.772   2.613 -0.3924 -0.3640 -0.5716
  139MOL    C4116877   1.872   7.731   2.655  0.4192  0.6230 -0.1025
  139MOL    H4216878   1.860   7.834   2.620 -3.0136 -0.8851 -3.5919
  139MOL    H4316879   1.794   7.704   2.726  1.1988  1.2253  1.0117
  139MOL    C4416880   1.855   7.631   2.542  0.3376  0.2465  0.2954
  139MOL    F4516881   1.947   7.630   2.447  0.1143  0.4753 -0.1270
  139MOL    F4616882   1.860   7.508   2.596 -0.5469  0.4551 -0.5111
  139MOL    C4716883   1.722   7.659   2.465  0.4293 -0.3617 -0.5662
  139MOL    H4816884   1.731   7.763   2.435  0.7970  0.4035  2.0311
  139MOL    H4916885   1.636   7.660   2.531  1.2038  0.0728  0.4612
  139MOL    C5016886   1.695   7.556   2.355  0.3911 -0.3311 -0.1303
  139MOL    F5116887   1.658   7.439   2.406 -0.2336  0.2414  0.2770
  139MOL    F5216888   1.585   7.598   2.297  0.3358 -0.1922  0.1435
  139MOL    C5316889   1.799   7.531   2.243 -0.5333  0.1799  0.1030
  139MOL    H5416890   1.887   7.478   2.280 -1.2978 -0.9093  0.3923
  139MOL    H5516891   1.828   7.630   2.208 -2.4523  1.1855  1.2278
  139MOL    C5616892   1.742   7.462   2.122 -0.1047  0.3363 -0.5065
  139MOL    F5716893   1.668   7.353   2.164 -0.4034  0.3060  0.2693
  139MOL    F5816894   1.659   7.543   2.054 -0.2727 -0.1504  0.2553
  139MOL    C5916895   1.848   7.406   2.019 -0.2211  0.4798  0.4321
  139MOL    H6016896   1.798   7.380   1.926  0.5866 -0.8148  0.3505
  139MOL    H6116897   1.896   7.315   2.053 -1.3247 -0.0555  0.5752
  139MOL    C6216898   1.966   7.499   1.975  0.5170  0.4598  0.0566
  139MOL    F6316899   1.925   7.619   1.945  0.3746  0.3862 -0.2624
  139MOL    F6416900   2.042   7.513   2.084  0.3785  0.1747  0.2245
  139MOL    C6516901   2.044   7.445   1.854 -0.6087  0.1534  0.4227
  139MOL    H6616902   1.980   7.411   1.773  2.3876  1.1005 -2.4430
  139MOL    H6716903   2.096   7.356   1.891  0.8861  0.3511 -1.1521
  139MOL    C6816904   2.145   7.551   1.793  0.0638 -0.1627 -0.0227
  139MOL    F6916905   2.058   7.639   1.740  0.0645  0.2277  0.3348
  139MOL    F7016906   2.211   7.616   1.892  0.3972 -0.2752  0.0861
  139MOL    C7116907   2.235   7.499   1.677 -0.6049 -0.2958  0.1750
  139MOL    H7216908   2.287   7.578   1.623 -0.8271  0.1867  0.6712
  139MOL    H7316909   2.165   7.453   1.606 -0.4390 -0.8116  0.3433
  139MOL    C7416910   2.338   7.387   1.714 -0.5925 -0.2119 -0.7799
  139MOL    F7516911   2.389   7.411   1.836  0.3892  0.1107  0.6730
  139MOL    F7616912   2.267   7.277   1.717  0.2126 -0.6347 -0.1675
  139MOL    C7716913   2.460   7.375   1.625  0.4876 -1.2086  0.4528
  139MOL    H7816914   2.511   7.470   1.641 -2.2039  0.3786 -0.1665
  139MOL    H7916915   2.413   7.384   1.527 -1.8840 -1.1245  1.5672
  139MOL    C8016916   2.540   7.242   1.640 -0.1514 -0.1434  0.2215
  139MOL    F8116917   2.594   7.231   1.763  0.4961 -0.2943 -0.2795
  139MOL    F8216918   2.454   7.145   1.623 -0.0753  0.8854 -0.4603
  139MOL    C8316919   2.642   7.226   1.525 -0.2617  0.6035 -0.0717
  139MOL    H8416920   2.716   7.303   1.547  0.7090  0.2819 -1.9900
  139MOL    H8516921   2.600   7.257   1.429  1.5839  1.3824 -0.6627
  139MOL    C8616922   2.725   7.092   1.506  0.3612  0.1065  0.4996
  139MOL    F8716923   2.810   7.074   1.612  0.1547  0.6149 -0.3811
  139MOL    F8816924   2.636   6.984   1.510 -0.2380 -0.1507 -0.1765
  139MOL    C8916925   2.809   7.075   1.373 -0.2747 -0.1951  0.0633
  139MOL    H9016926   2.739   7.085   1.290  0.3946  0.2395 -0.4511
  139MOL    H9116927   2.848   6.974   1.367 -1.2842 -0.8838  3.6729
  139MOL    C9216928   2.918   7.188   1.332  0.6373  0.6509 -0.2622
  139MOL    F9316929   2.956   7.146   1.206 -0.1138  0.1259  0.5015
  139MOL    F9416930   2.843   7.299   1.333 -0.3198 -0.3080  0.0157
  139MOL    C9516931   3.036   7.205   1.428  0.1694  0.6098 -0.0086
  139MOL    H9616932   3.083   7.108   1.447  0.4768  0.3641 -1.8898
  139MOL    H9716933   2.998   7.234   1.525  0.5357 -1.0640  0.6513
  139MOL    C9816934   3.141   7.305   1.384 -0.3931 -0.0559  0.0768
  139MOL    F9916935   3.213   7.265   1.283 -0.3029  0.4802  0.2119
  139MOL   F10016936   3.090   7.425   1.344 -0.4723  0.2887 -0.2634
  139MOL   C10116937   3.237   7.329   1.497  0.1890 -0.2401  0.0560
  139MOL   H10216938   3.182   7.389   1.569 -3.1104 -1.0951 -1.6744
  139MOL   H10316939   3.310   7.406   1.473 -1.3903  1.6436  1.1674
  139MOL   C10416940   3.312   7.213   1.556 -0.5139  0.6347  0.6512
  139MOL   F10516941   3.238   7.132   1.644  0.0037  0.1614  0.4903
  139MOL   F10616942   3.351   7.139   1.446 -0.0734 -0.7339  0.2158
  139MOL   C10716943   3.440   7.255   1.633 -0.3606  0.3107  0.8361
  139MOL   H10816944   3.474   7.325   1.556 -1.2542  0.0007  0.1506
  139MOL   H10916945   3.502   7.165   1.637  0.4160  0.9498  4.5349
  139MOL   C11016946   3.427   7.330   1.767 -0.1825 -0.0341  0.2776
  139MOL   F11116947   3.347   7.435   1.757 -0.0253  0.0397 -0.1913
  139MOL   F11216948   3.385   7.248   1.855  0.0211 -0.1695 -0.2277
  139MOL   C11316949   3.558   7.382   1.822 -0.4807  0.4057 -0.1502
  139MOL   H11416950   3.538   7.438   1.913  0.3004  0.1974  0.1578
  139MOL   H11516951   3.595   7.466   1.762 -1.5120  1.6110  0.8753
  139MOL   C11616952   3.671   7.280   1.862  0.0875  0.4811  0.8673
  139MOL   F11716953   3.634   7.172   1.938  0.0633  0.1681 -0.1875
  139MOL   F11816954   3.720   7.221   1.747  0.0112 -0.4905  0.1657
  139MOL   C11916955   3.786   7.351   1.920 -0.1770  0.1385 -0.3630
  139MOL   H12016956   3.877   7.292   1.931 -0.1886  0.4999  2.0297
  139MOL   H12116957   3.786   7.394   2.021  0.6771 -4.0213  1.5289
  139MOL   H12216958   3.796   7.438   1.857 -1.2690  0.6705  0.1686
  140MOL     C116959   2.808   2.739   6.456  0.5600  0.0543  0.4504
  140MOL     F216960   2.807   2.714   6.585  0.3891  0.4403 -0.0077
  140MOL     F316961   2.680   2.728   6.415 -0.6215  0.3739 -0.2230
  140MOL     C416962   2.890   2.632   6.380  0.4159  0.0158  0.1135
  140MOL     H516963   2.856   2.639   6.276  1.6742  1.5433 -0.2123
  140MOL     H616964   2.860   2.534   6.417 -1.3617 -0.1388 -1.6671
  140MOL     H716965   2.846   2.841   6.450  0.3620  0.2851  2.8539
  140MOL     C816966   3.043   2.656   6.378 -0.0497 -0.3555  0.5482
  140MOL     F916967   3.056   2.774   6.330  0.0274 -0.4746  0.0046
  140MOL    F1016968   3.072   2.664   6.505  0.2390  0.0203  0.0232
  140MOL    C1116969   3.131   2.556   6.305  0.4060 -0.1410 -0.2637
  140MOL    H1216970   3.081   2.557   6.209 -0.4543 -1.8061  0.1410
  140MOL    H1316971   3.121   2.455   6.347 -1.4842  0.1150 -0.0955
  140MOL    C1416972   3.284   2.607   6.290 -0.2225  0.0449 -0.5479
  140MOL    F1516973   3.280   2.725   6.230 -0.1280 -0.1862  0.4516
  140MOL    F1616974   3.334   2.603   6.417 -0.3503 -0.2910  0.4063
  140MOL    C1716975   3.371   2.514   6.195  0.2537  0.0871  0.1085
  140MOL    H1816976   3.318   2.534   6.102 -0.6397 -1.0220  0.3649
  140MOL    H1916977   3.352   2.406   6.201 -5.1770  0.9685  1.6337
  140MOL    C2016978   3.514   2.552   6.194 -0.4361 -0.1683  0.2447
  140MOL    F2116979   3.546   2.682   6.166  0.3744 -0.0666  0.0638
  140MOL    F2216980   3.557   2.510   6.315 -0.2445 -0.4236  0.2545
  140MOL    C2316981   3.601   2.473   6.098 -0.5544 -0.5641  0.7283
  140MOL    H2416982   3.603   2.366   6.119  2.5538 -0.2676  2.1032
  140MOL    H2516983   3.698   2.514   6.125 -0.3902  0.3277 -1.1435
  140MOL    C2616984   3.595   2.500   5.943 -0.3489 -0.2423  0.2779
  140MOL    F2716985   3.718   2.464   5.905 -0.2760 -0.1905  0.3500
  140MOL    F2816986   3.497   2.418   5.893 -0.2802  0.3566  0.2535
  140MOL    C2916987   3.568   2.648   5.900  0.0659 -0.1764  0.1224
  140MOL    H3016988   3.642   2.719   5.939 -1.2336  2.6600 -2.3648
  140MOL    H3116989   3.469   2.676   5.936  0.5190 -0.5158  1.6666
  140MOL    C3216990   3.565   2.675   5.755  0.0166 -0.2387 -0.5184
  140MOL    F3316991   3.674   2.632   5.698  0.6186  0.8459  0.2774
  140MOL    F3416992   3.462   2.621   5.697 -0.1172  0.8817  0.1940
  140MOL    C3516993   3.564   2.821   5.720 -0.0136 -0.3916  0.1180
  140MOL    H3616994   3.545   2.835   5.613  2.1905 -1.7349 -0.4731
  140MOL    H3716995   3.665   2.858   5.737  0.8865 -1.1931 -3.0093
  140MOL    C3816996   3.453   2.898   5.784 -0.4413  0.2258  0.4172
  140MOL    F3916997   3.331   2.831   5.784 -0.0429 -0.4057 -0.2892
  140MOL    F4016998   3.481   2.920   5.913 -0.3085  0.1885 -0.3132
  140MOL    C4116999   3.438   3.034   5.712  0.3621 -0.5008 -0.4743
  140MOL    H4217000   3.413   3.012   5.608  3.9824 -2.6531 -0.9729
  140MOL    H4317001   3.533   3.088   5.711  0.8803 -1.4134 -0.8335
  140MOL    C4417002   3.328   3.126   5.769  0.0711  0.0861 -0.2929
  140MOL    F4517003   3.208   3.071   5.754 -0.3908  0.3400 -0.5739
  140MOL    F4617004   3.354   3.153   5.896 -0.1284 -0.1180 -0.3199
  140MOL    C4717005   3.335   3.258   5.686  0.0963 -0.1805  0.4258
  140MOL    H4817006   3.319   3.242   5.580  1.6084  2.0470 -0.1720
  140MOL    H4917007   3.433   3.305   5.679  0.1647 -0.6062 -1.8856
  140MOL    C5017008   3.216   3.349   5.715 -0.2687 -0.0187  0.0106
  140MOL    F5117009   3.102   3.291   5.695  0.0574 -0.5967 -0.8207
  140MOL    F5217010   3.228   3.386   5.839  0.1797 -0.1988 -0.4550
  140MOL    C5317011   3.217   3.475   5.629 -0.4331  0.2002 -0.2817
  140MOL    H5417012   3.237   3.439   5.528  0.6325  0.9018 -0.3283
  140MOL    H5517013   3.300   3.542   5.648  0.4749 -1.1957  0.6576
  140MOL    C5617014   3.081   3.554   5.607  0.3427  0.3589 -0.2929
  140MOL    F5717015   3.109   3.665   5.541 -0.5152  0.2387  0.5514
  140MOL    F5817016   3.000   3.475   5.534 -0.3737 -0.2480 -0.4463
  140MOL    C5917017   3.010   3.610   5.739 -0.4237  0.0112  0.3183
  140MOL    H6017018   2.991   3.524   5.804 -1.1070 -0.9924 -1.2026
  140MOL    H6117019   2.915   3.652   5.709  0.0197  0.3685 -0.6013
  140MOL    C6217020   3.082   3.719   5.816 -0.2274 -0.3778  0.0522
  140MOL    F6317021   3.210   3.685   5.833 -0.0499 -0.0714 -0.1826
  140MOL    F6417022   3.085   3.823   5.736 -0.1410 -0.3754 -0.0895
  140MOL    C6517023   3.021   3.752   5.950 -0.6468  0.0986 -0.2195
  140MOL    H6617024   3.011   3.670   6.021  1.1577 -1.6952 -1.9759
  140MOL    H6717025   2.916   3.774   5.934 -0.7665  0.1240  0.5599
  140MOL    C6817026   3.095   3.858   6.028 -0.2463  0.3088 -0.0944
  140MOL    F6917027   3.114   3.971   5.954  0.1775  0.1152  0.1870
  140MOL    F7017028   3.001   3.873   6.121 -0.0377 -0.4062  0.1827
  140MOL    C7117029   3.233   3.811   6.092  0.4333 -0.2919 -0.3948
  140MOL    H7217030   3.312   3.812   6.017 -0.9441 -1.3128 -1.9022
  140MOL    H7317031   3.223   3.713   6.138  0.2247 -0.1313 -0.1018
  140MOL    C7417032   3.284   3.900   6.213  0.6211 -0.2174 -0.3993
  140MOL    F7517033   3.280   4.026   6.174 -0.0925 -0.7489 -0.2688
  140MOL    F7617034   3.198   3.892   6.312 -0.1788 -0.0705  0.0903
  140MOL    C7717035   3.425   3.873   6.260 -0.0690  0.1844 -0.4386
  140MOL    H7817036   3.448   3.955   6.327  0.6712  0.3067 -0.8363
  140MOL    H7917037   3.484   3.887   6.169 -1.3493 -1.0798 -1.4834
  140MOL    C8017038   3.464   3.742   6.334  0.6802 -0.8063  0.6487
  140MOL    F8117039   3.370   3.711   6.429  0.0916  0.6038 -0.2699
  140MOL    F8217040   3.461   3.649   6.238 -0.3261 -0.5982 -0.3972
  140MOL    C8317041   3.602   3.759   6.400  0.2146 -0.3011 -0.5255
  140MOL    H8417042   3.596   3.849   6.460  1.5818 -0.2792 -0.4073
  140MOL    H8517043   3.674   3.784   6.322 -0.0698  0.1406 -0.6449
  140MOL    C8617044   3.648   3.649   6.493  0.3333 -0.2458  0.1985
  140MOL    F8717045   3.760   3.690   6.555 -0.7029 -0.4289 -0.3431
  140MOL    F8817046   3.553   3.628   6.582  0.5060 -0.5859 -0.6316
  140MOL    C8917047   3.676   3.507   6.437  0.3102 -0.3485  0.2636
  140MOL    H9017048   3.596   3.471   6.372  1.2231  0.9964 -1.6511
  140MOL    H9117049   3.662   3.442   6.523  1.2903 -1.4857 -0.4218
  140MOL    C9217050   3.802   3.488   6.359  0.1500  0.9341  0.3680
  140MOL    F9317051   3.797   3.570   6.254 -0.2496  0.2198  0.2033
  140MOL    F9417052   3.903   3.523   6.441 -0.0861  0.3888  0.2351
  140MOL    C9517053   3.827   3.343   6.309  0.5625  0.0273  0.1625
  140MOL    H9617054   3.728   3.311   6.275  0.6150 -1.3565  1.2815
  140MOL    H9717055   3.856   3.278   6.392 -0.4801 -0.0079  0.5031
  140MOL    C9817056   3.929   3.318   6.194  0.3144 -0.4252 -0.7814
  140MOL    F9917057   3.921   3.187   6.173 -0.1960  0.0492  0.2599
  140MOL   F10017058   3.880   3.378   6.083  0.2142 -0.1307 -0.3311
  140MOL   C10117059   4.072   3.353   6.222 -0.1293 -0.0005 -0.1867
  140MOL   H10217060   4.105   3.304   6.313  2.2204  0.2027 -0.9104
  140MOL   H10317061   4.076   3.461   6.233  0.9235 -0.1872  1.3698
  140MOL   C10417062   4.174   3.305   6.114  0.5025  1.0246  0.4050
  140MOL   F10517063   4.175   3.170   6.111 -0.4100  0.3082  0.2253
  140MOL   F10617064   4.135   3.354   5.995  0.7043 -0.1867 -0.5695
  140MOL   C10717065   4.317   3.367   6.142  0.1451  0.0833  0.1723
  140MOL   H10817066   4.362   3.351   6.240  0.6667  0.3134 -0.0261
  140MOL   H10917067   4.317   3.476   6.147  1.9344  0.1510 -0.7724
  140MOL   C11017068   4.424   3.326   6.044  0.4926 -0.2806  0.1126
  140MOL   F11117069   4.463   3.196   6.057 -0.3807 -0.0589  0.4580
  140MOL   F11217070   4.380   3.334   5.915 -0.4551  0.4271 -0.2410
  140MOL   C11317071   4.547   3.420   6.054 -0.1544  0.4493  0.1900
  140MOL   H11417072   4.634   3.367   6.017 -0.0045  1.1176 -0.4130
  140MOL   H11517073   4.581   3.426   6.158  1.0734  1.0981 -0.2435
  140MOL   C11617074   4.537   3.561   5.995 -0.1736  0.1533  0.0502
  140MOL   F11717075   4.449   3.635   6.057 -0.1074  0.0362  0.0875
  140MOL   F11817076   4.654   3.611   6.020  0.2121  0.1569  0.1627
  140MOL   C11917077   4.519   3.564   5.846  0.3540 -0.5480 -1.4171
  140MOL   H12017078   4.583   3.493   5.794 -0.0329 -1.2774 -0.9030
  140MOL   H12117079   4.542   3.662   5.803 -1.7938  0.6214 -0.0261
  140MOL   H12217080   4.414   3.544   5.825 -0.6598  1.0151  1.8326
  141MOL     C117081   4.645   3.972   0.379  0.0279  0.0876  0.1518
  141MOL     F217082   4.629   4.089   0.313 -0.0780 -0.0305  0.4065
  141MOL     F317083   4.572   3.973   0.492 -0.0206 -0.3897 -0.0806
  141MOL     C417084   4.792   3.943   0.407  0.1961 -0.3854  0.0304
  141MOL     H517085   4.785   3.856   0.473  1.8856 -1.1551 -0.7777
  141MOL     H617086   4.846   4.025   0.454 -0.6013  0.7682 -1.0464
  141MOL     H717087   4.598   3.896   0.316 -0.4252 -0.3244  0.9806
  141MOL     C817088   4.865   3.894   0.284  0.3607  0.7118  0.6647
  141MOL     F917089   4.806   3.783   0.239  0.5379  0.4692 -0.0240
  141MOL    F1017090   4.867   3.984   0.185 -0.3168 -0.3182  0.1041
  141MOL    C1117091   5.012   3.859   0.304  0.7421  0.3737  0.2537
  141MOL    H1217092   5.036   3.798   0.217 -0.0979 -0.3082  0.5012
  141MOL    H1317093   5.010   3.799   0.395  3.7380 -0.2039  0.0068
  141MOL    C1417094   5.110   3.978   0.313  0.1592  0.0807 -0.4119
  141MOL    F1517095   5.046   4.093   0.353  0.4178 -0.1807 -0.3434
  141MOL    F1617096   5.214   3.961   0.400  0.1140  0.0101 -0.1788
  141MOL    C1717097   5.193   4.008   0.179 -0.5258  0.6430  0.0556
  141MOL    H1817098   5.114   4.026   0.107  0.2292  0.4634 -0.8156
  141MOL    H1917099   5.241   3.913   0.155 -0.1748  0.7957  0.1656
  141MOL    C2017100   5.305   4.112   0.187  0.2003  0.9990  0.0968
  141MOL    F2117101   5.412   4.039   0.229 -0.1254 -0.3362 -0.1260
  141MOL    F2217102   5.323   4.140   0.058  0.1144  0.0377  0.2033
  141MOL    C2317103   5.282   4.240   0.270  0.1324 -0.7040  0.2806
  141MOL    H2417104   5.269   4.212   0.374 -1.3018  1.8766  0.8484
  141MOL    H2517105   5.186   4.282   0.239 -0.7108 -2.2404  0.7299
  141MOL    C2617106   5.398   4.340   0.260 -0.1801 -0.7744  0.0815
  141MOL    F2717107   5.507   4.270   0.279 -0.2782 -0.1964  0.6141
  141MOL    F2817108   5.402   4.403   0.139 -0.1048  0.1323 -0.2705
  141MOL    C2917109   5.384   4.450   0.368  0.0091  0.4094 -0.1947
  141MOL    H3017110   5.404   4.407   0.467 -1.4733 -1.1260 -0.5420
  141MOL    H3117111   5.278   4.476   0.367 -0.3093 -0.8787 -2.6522
  141MOL    C3217112   5.460   4.587   0.345 -0.8997 -0.2854  0.3441
  141MOL    F3317113   5.435   4.648   0.227  0.3835 -0.9482 -0.1180
  141MOL    F3417114   5.416   4.675   0.439  0.5337  0.2897 -0.0139
  141MOL    C3517115   5.613   4.575   0.365 -0.1310 -0.0467  0.2298
  141MOL    H3617116   5.654   4.500   0.297  2.2879  1.0690  0.4030
  141MOL    H3717117   5.620   4.533   0.465 -0.7632 -0.5056  0.0842
  141MOL    C3817118   5.703   4.704   0.339  0.7433  0.8578 -0.1614
  141MOL    F3917119   5.690   4.719   0.213  0.2813 -0.0199 -0.1698
  141MOL    F4017120   5.650   4.813   0.400  0.6739 -0.4919 -0.3528
  141MOL    C4117121   5.847   4.688   0.385 -0.2220  0.4966 -0.1883
  141MOL    H4217122   5.891   4.621   0.312 -1.8154  0.6770 -1.3211
  141MOL    H4317123   5.845   4.641   0.483  0.5307  0.6089 -0.1153
  141MOL    C4417124   5.941   4.809   0.377  0.0571 -0.9327  0.4006
  141MOL    F4517125   5.922   4.885   0.483  0.1535 -0.1146  0.9220
  141MOL    F4617126   6.064   4.763   0.374  0.2658  0.5568  0.3704
  141MOL    C4717127   5.919   4.892   0.248  0.0969  0.1359 -0.0072
  141MOL    H4817128   5.813   4.915   0.252  0.0324 -0.0846 -0.3436
  141MOL    H4917129   5.937   4.830   0.160  1.8199 -0.0030  0.4218
  141MOL    C5017130   6.007   5.024   0.225  0.5253  0.8526 -0.6761
  141MOL    F5117131   6.128   4.990   0.274 -0.4769 -0.2597 -0.0229
  141MOL    F5217132   6.029   5.061   0.101 -0.7994  0.2607  0.3760
  141MOL    C5317133   5.964   5.140   0.312 -0.1726 -0.0766 -0.0238
  141MOL    H5417134   6.042   5.215   0.297 -0.2305  0.3638  1.8031
  141MOL    H5517135   5.986   5.118   0.416 -0.1435  0.3282  0.0556
  141MOL    C5617136   5.823   5.191   0.290 -1.1406 -0.2105  0.4059
  141MOL    F5717137   5.781   5.163   0.169  0.1211  0.3002  0.3573
  141MOL    F5817138   5.739   5.133   0.378 -0.6370  0.5141 -0.1720
  141MOL    C5917139   5.801   5.343   0.301 -0.5960  0.0541 -0.2621
  141MOL    H6017140   5.697   5.369   0.278  0.1070  2.8617 -0.4407
  141MOL    H6117141   5.855   5.396   0.222  0.4642  1.1113  1.1459
  141MOL    C6217142   5.839   5.400   0.440  0.1691 -0.5483 -0.1581
  141MOL    F6317143   5.794   5.316   0.532  0.1461  0.6114 -0.6582
  141MOL    F6417144   5.970   5.402   0.450 -0.0846  0.0472 -0.0882
  141MOL    C6517145   5.794   5.546   0.472 -0.2937  1.0991  0.4277
  141MOL    H6617146   5.829   5.583   0.568  0.2753  1.2041  0.1789
  141MOL    H6717147   5.685   5.536   0.471 -0.0990 -1.4194  1.1784
  141MOL    C6817148   5.811   5.653   0.359  0.4045 -0.4855  0.1380
  141MOL    F6917149   5.930   5.639   0.298 -0.0957 -0.3894 -0.1634
  141MOL    F7017150   5.728   5.636   0.265 -0.0990  0.6352  0.6482
  141MOL    C7117151   5.810   5.800   0.406  0.0557 -0.5516 -0.8158
  141MOL    H7217152   5.835   5.859   0.318  1.8934  1.0830  0.7849
  141MOL    H7317153   5.900   5.818   0.464 -0.7093  1.8546 -0.3279
  141MOL    C7417154   5.679   5.843   0.477  0.0488 -0.5232  0.5719
  141MOL    F7517155   5.582   5.785   0.407  0.0549  0.1235  0.1155
  141MOL    F7617156   5.687   5.796   0.603 -0.5875 -0.1302 -0.3172
  141MOL    C7717157   5.649   5.995   0.474 -0.3964 -0.7080  0.5980
  141MOL    H7817158   5.547   6.018   0.507 -0.2220 -0.5942  1.0676
  141MOL    H7917159   5.636   6.024   0.370  5.1791 -1.5028 -0.4737
  141MOL    C8017160   5.754   6.092   0.549  0.2445 -0.7640 -0.5400
  141MOL    F8117161   5.762   6.068   0.681  0.1854  0.0864  0.4443
  141MOL    F8217162   5.872   6.075   0.492 -0.2785  0.1544  0.7674
  141MOL    C8317163   5.732   6.244   0.532 -0.0591  0.5956 -0.5930
  141MOL    H8417164   5.748   6.254   0.425 -1.2971 -2.8706 -1.1604
  141MOL    H8517165   5.800   6.307   0.590  1.1953 -0.9108 -0.3997
  141MOL    C8617166   5.586   6.294   0.554  0.6108 -0.2041  0.8305
  141MOL    F8717167   5.589   6.427   0.532 -0.0237  0.2577 -0.3640
  141MOL    F8817168   5.512   6.238   0.458 -0.1225 -0.6951 -0.1566
  141MOL    C8917169   5.520   6.289   0.687  0.1853 -0.0537 -0.6135
  141MOL    H9017170   5.572   6.364   0.746  1.7460 -0.9986 -0.7684
  141MOL    H9117171   5.549   6.196   0.734 -0.6845  1.4277  3.0425
  141MOL    C9217172   5.372   6.329   0.705 -0.3388 -1.0260 -0.5621
  141MOL    F9317173   5.346   6.436   0.625 -0.0419  0.5516 -0.5325
  141MOL    F9417174   5.296   6.224   0.662  0.1973 -0.0482 -0.4387
  141MOL    C9517175   5.325   6.362   0.849 -0.6872 -0.1332 -0.3893
  141MOL    H9617176   5.227   6.407   0.834 -0.5121 -0.1025 -1.5121
  141MOL    H9717177   5.382   6.443   0.895  1.2145 -1.2392 -0.7337
  141MOL    C9817178   5.289   6.241   0.941  0.3363  0.0820  0.0755
  141MOL    F9917179   5.199   6.156   0.881 -0.1214 -0.1703  0.3850
  141MOL   F10017180   5.408   6.175   0.952  0.5543  0.2024 -0.0292
  141MOL   C10117181   5.260   6.274   1.090 -0.3182 -0.5947 -0.6519
  141MOL   H10217182   5.320   6.353   1.134 -2.5245  0.0852  1.1894
  141MOL   H10317183   5.291   6.183   1.142  2.2504  0.3460 -0.4917
  141MOL   C10417184   5.118   6.318   1.134  0.5756 -0.4621  0.0878
  141MOL   F10517185   5.116   6.374   1.252  0.1012  0.5017 -0.3982
  141MOL   F10617186   5.087   6.416   1.040  0.2888  0.2201 -0.1883
  141MOL   C10717187   5.019   6.205   1.135  0.5092  0.1485 -0.2239
  141MOL   H10817188   5.054   6.127   1.203  0.6332 -1.5849 -2.2278
  141MOL   H10917189   5.023   6.162   1.035 -1.8501 -0.4001 -0.1038
  141MOL   C11017190   4.872   6.253   1.161  0.4303  0.1599 -0.2619
  141MOL   F11117191   4.869   6.290   1.290 -0.8954 -0.9615 -0.4528
  141MOL   F11217192   4.835   6.356   1.085  0.1967 -0.0230 -0.1941
  141MOL   C11317193   4.777   6.126   1.146 -0.0109 -0.2200  0.0858
  141MOL   H11417194   4.816   6.045   1.208 -1.9027 -1.8034 -0.7560
  141MOL   H11517195   4.781   6.091   1.043 -1.4017 -0.4428  0.1040
  141MOL   C11617196   4.629   6.153   1.172 -0.2472  0.1434  0.0521
  141MOL   F11717197   4.619   6.195   1.302 -0.3022 -0.0346 -0.0246
  141MOL   F11817198   4.589   6.241   1.083 -0.0307 -0.5048 -0.5654
  141MOL   C11917199   4.543   6.023   1.161 -0.2402  0.0479  0.0318
  141MOL   H12017200   4.439   6.053   1.172  0.1030  1.8818 -1.5884
  141MOL   H12117201   4.563   5.957   1.246 -2.0840 -0.3151  0.2091
  141MOL   H12217202   4.543   5.982   1.060 -1.2721 -0.8557  0.3837
  142MOL     C117203   5.477   3.489   2.183  0.7038 -0.6287  0.1156
  142MOL     F217204   5.502   3.492   2.052 -0.1502 -0.0636  0.2837
  142MOL     F317205   5.587   3.462   2.255 -0.1941 -0.6929  0.5977
  142MOL     C417206   5.376   3.379   2.206  0.1968  0.0040 -0.1739
  142MOL     H517207   5.382   3.353   2.312  3.3371 -0.3729 -0.4157
  142MOL     H617208   5.403   3.295   2.142  0.6179 -0.8245  1.0662
  142MOL     H717209   5.443   3.587   2.215 -2.2073 -1.6844  0.3758
  142MOL     C817210   5.241   3.442   2.176 -0.2778  0.3830 -0.3093
  142MOL     F917211   5.231   3.549   2.249  0.1586  0.2200  0.8832
  142MOL    F1017212   5.243   3.473   2.051  0.5762  0.5981  0.2237
  142MOL    C1117213   5.129   3.345   2.204 -0.5473  0.1752  0.4529
  142MOL    H1217214   5.128   3.327   2.312  1.1625  1.4257  0.6928
  142MOL    H1317215   5.153   3.252   2.152  3.4610  0.7260  1.1256
  142MOL    C1417216   4.986   3.404   2.176  0.2434  0.0255  0.1306
  142MOL    F1517217   4.964   3.411   2.048 -0.1035 -0.1115 -0.5380
  142MOL    F1617218   4.891   3.315   2.225  0.0841 -0.3389  0.1456
  142MOL    C1717219   4.941   3.553   2.223 -0.6127  0.3982 -0.0267
  142MOL    H1817220   4.850   3.583   2.171  0.5388  3.0885 -0.5496
  142MOL    H1917221   5.015   3.621   2.181  1.4452 -0.0085  2.7956
  142MOL    C2017222   4.930   3.575   2.373 -0.5613 -0.9053  0.0408
  142MOL    F2117223   4.821   3.512   2.419 -0.6049 -0.4313  0.1203
  142MOL    F2217224   5.038   3.519   2.423 -0.1286  0.1809  0.1718
  142MOL    C2317225   4.899   3.725   2.415 -0.0845  0.5596  0.5426
  142MOL    H2417226   4.841   3.728   2.507 -1.4885  0.7732 -0.3341
  142MOL    H2517227   4.819   3.756   2.347  0.2844 -0.8725 -0.5775
  142MOL    C2617228   5.019   3.818   2.428  0.2774 -0.2989 -0.6942
  142MOL    F2717229   5.081   3.817   2.315  0.1642  0.2604  0.2224
  142MOL    F2817230   4.963   3.938   2.449  0.1058  0.2208  0.0648
  142MOL    C2917231   5.119   3.779   2.543  0.0261  0.4942  0.6490
  142MOL    H3017232   5.177   3.693   2.510 -1.2518 -0.5055  0.9910
  142MOL    H3117233   5.055   3.740   2.622 -0.0655  1.2899  0.9721
  142MOL    C3217234   5.215   3.889   2.597  0.4686 -0.0538  0.1998
  142MOL    F3317235   5.144   3.980   2.655  0.0688 -0.0759 -0.4551
  142MOL    F3417236   5.285   3.825   2.690  0.6392  0.3089  0.0500
  142MOL    C3517237   5.303   3.949   2.482 -0.2164  0.3985 -0.4236
  142MOL    H3617238   5.232   4.008   2.424  0.3877  1.0405 -0.5199
  142MOL    H3717239   5.339   3.881   2.406  1.7312  0.5964  0.2974
  142MOL    C3817240   5.422   4.046   2.533  0.4295 -0.7208 -0.2104
  142MOL    F3917241   5.377   4.148   2.612  0.3312 -0.2044  0.2651
  142MOL    F4017242   5.513   3.975   2.599  0.6327 -0.2125  0.1201
  142MOL    C4117243   5.503   4.095   2.412  0.2935 -0.0681  0.5957
  142MOL    H4217244   5.427   4.139   2.348 -0.5077 -3.2088 -0.7338
  142MOL    H4317245   5.551   4.017   2.353  0.3633 -0.1487  0.7583
  142MOL    C4417246   5.615   4.193   2.449 -0.7862  0.4835  0.2720
  142MOL    F4517247   5.684   4.205   2.332 -0.4183  0.0265  0.0139
  142MOL    F4617248   5.554   4.309   2.471 -0.1068 -0.2524  0.0865
  142MOL    C4717249   5.704   4.158   2.579 -0.4098 -0.4651  0.1639
  142MOL    H4817250   5.741   4.056   2.571 -0.5492 -0.3546 -2.0549
  142MOL    H4917251   5.640   4.152   2.667 -2.3661 -2.5057 -1.3450
  142MOL    C5017252   5.839   4.234   2.600 -1.2366  0.2067  0.2031
  142MOL    F5117253   5.905   4.175   2.698  0.4360  0.6820 -0.1012
  142MOL    F5217254   5.923   4.228   2.494  0.2041 -0.1547  0.0650
  142MOL    C5317255   5.819   4.379   2.644  0.1622  0.3294 -0.2844
  142MOL    H5417256   5.769   4.379   2.741  1.8655 -1.1146  0.6184
  142MOL    H5517257   5.755   4.425   2.569 -1.3901 -1.9185 -0.4021
  142MOL    C5617258   5.944   4.478   2.655 -0.1299 -0.4808  0.0955
  142MOL    F5717259   5.978   4.502   2.530 -0.0309 -0.4250  0.0413
  142MOL    F5817260   5.903   4.599   2.700  0.1882 -0.0660 -0.2613
  142MOL    C5917261   6.062   4.435   2.742  0.8872  0.2699  0.1195
  142MOL    H6017262   6.135   4.515   2.732  0.4189  0.9602  2.0094
  142MOL    H6117263   6.116   4.347   2.708  1.8183 -0.4412  3.2766
  142MOL    C6217264   6.055   4.443   2.893 -0.5233  1.0121 -0.3982
  142MOL    F6317265   5.975   4.343   2.922  0.0786  0.1156 -0.0360
  142MOL    F6417266   6.179   4.417   2.942 -0.0694 -0.4135  0.0013
  142MOL    C6517267   6.001   4.580   2.946 -0.4422 -0.2938  0.0854
  142MOL    H6617268   5.893   4.580   2.935 -0.4854  1.5804  0.3934
  142MOL    H6717269   6.038   4.662   2.884 -0.3761 -0.2065  0.2423
  142MOL    C6817270   6.039   4.612   3.091 -0.5647  0.4184 -0.4898
  142MOL    F6917271   6.159   4.673   3.090  0.3088 -0.1741  0.3715
  142MOL    F7017272   5.953   4.701   3.137  0.2665 -0.3371 -0.1523
  142MOL    C7117273   6.041   4.483   3.179  0.3220 -0.5754 -0.2739
  142MOL    H7217274   6.098   4.400   3.137 -0.7243 -0.4887 -1.8900
  142MOL    H7317275   5.949   4.427   3.199  0.1451 -0.8665 -1.7979
  142MOL    C7417276   6.091   4.520   3.320  0.3204  0.6269  0.1541
  142MOL    F7517277   6.227   4.532   3.308  0.4117 -0.4881  0.0148
  142MOL    F7617278   6.052   4.639   3.357  0.7434  0.0292  0.7317
  142MOL    C7717279   6.065   4.414   3.428  0.7389  0.2347  0.2836
  142MOL    H7817280   6.143   4.419   3.503 -0.3405 -3.3393  1.7363
  142MOL    H7917281   6.073   4.315   3.383 -1.7945 -0.5899  1.5344
  142MOL    C8017282   5.928   4.428   3.501 -0.0325  0.1746 -0.4671
  142MOL    F8117283   5.825   4.400   3.427  0.6733 -0.5960  0.2689
  142MOL    F8217284   5.928   4.326   3.583  0.3825  0.3122  0.2127
  142MOL    C8317285   5.884   4.556   3.572 -0.9569  0.2328  0.0890
  142MOL    H8417286   5.781   4.536   3.602 -0.8785 -2.3437 -1.2259
  142MOL    H8517287   5.890   4.641   3.504 -1.0250 -0.4868 -0.8358
  142MOL    C8617288   5.961   4.589   3.700  0.3727  0.5050 -0.0945
  142MOL    F8717289   5.953   4.480   3.779  0.8358  0.0120 -0.4388
  142MOL    F8817290   6.087   4.601   3.674 -0.1414  0.1424  0.1178
  142MOL    C8917291   5.905   4.714   3.774 -0.0564 -0.1961  0.6645
  142MOL    H9017292   5.801   4.690   3.793 -0.3536 -1.2068 -1.9779
  142MOL    H9117293   5.920   4.803   3.714  0.5831 -0.9277 -0.2806
  142MOL    C9217294   5.976   4.744   3.903 -0.0024  0.0410  0.3946
  142MOL    F9317295   5.963   4.656   3.998 -0.1430 -0.2655 -0.1940
  142MOL    F9417296   6.103   4.766   3.869  0.6453  0.4143  0.1729
  142MOL    C9517297   5.926   4.877   3.976  0.3402 -0.0543 -0.1111
  142MOL    H9617298   5.818   4.865   3.990  0.6100 -0.4172  1.8005
  142MOL    H9717299   5.936   4.960   3.907 -1.8079 -1.0281 -1.6533
  142MOL    C9817300   5.979   4.914   4.111 -0.4141 -0.3235 -0.0549
  142MOL    F9917301   5.952   4.815   4.188  0.4655 -0.2518 -0.2572
  142MOL   F10017302   6.108   4.921   4.100 -0.8298 -0.2807 -0.1363
  142MOL   C10117303   5.925   5.040   4.174  0.5071  0.2498 -0.0937
  142MOL   H10217304   5.960   5.036   4.277 -2.5001  1.9835  1.0669
  142MOL   H10317305   5.817   5.044   4.169  0.5743  2.6887 -0.3125
  142MOL   C10417306   5.978   5.166   4.103 -0.0286 -0.1855 -0.2411
  142MOL   F10517307   5.922   5.177   3.978 -0.5661  0.7044  0.6025
  142MOL   F10617308   5.922   5.264   4.164  0.6318 -0.0803  0.0662
  142MOL   C10717309   6.130   5.201   4.100  0.3052  0.2113 -0.1979
  142MOL   H10817310   6.185   5.141   4.028 -0.0004  0.6291 -0.7931
  142MOL   H10917311   6.162   5.181   4.202 -1.0641 -0.6627  0.0820
  142MOL   C11017312   6.164   5.353   4.079 -0.2227  0.1801  0.0431
  142MOL   F11117313   6.115   5.426   4.179 -0.0631 -0.3282 -0.3262
  142MOL   F11217314   6.297   5.363   4.076  0.0522 -0.0954  0.0076
  142MOL   C11317315   6.117   5.412   3.947 -0.0403 -0.1963 -0.3319
  142MOL   H11417316   6.135   5.520   3.941  2.3750 -0.5720 -0.2258
  142MOL   H11517317   6.009   5.417   3.962  0.1601 -1.2838  1.6575
  142MOL   C11617318   6.175   5.357   3.817  0.4131  0.0458  0.3131
  142MOL   F11717319   6.308   5.380   3.819  0.7124  0.4336  0.1989
  142MOL   F11817320   6.163   5.229   3.814 -0.1489 -0.2302  0.5550
  142MOL   C11917321   6.121   5.409   3.687 -0.2064 -0.1721 -0.0478
  142MOL   H12017322   6.017   5.380   3.667  0.4465 -1.1216 -2.2240
  142MOL   H12117323   6.180   5.365   3.607 -2.3061 -0.5289 -1.4620
  142MOL   H12217324   6.136   5.517   3.682  0.8131 -0.3276 -0.3150
  143MOL     C117325   4.062   3.121   7.581  0.1986 -0.2637  0.2413
  143MOL     F217326   4.191   3.072   7.581  0.1386 -0.7535  0.4117
  143MOL     F317327   4.055   3.215   7.495 -0.2787  0.3905 -0.3442
  143MOL     C417328   4.010   3.156   7.723 -0.7247  0.2458  0.4585
  143MOL     H517329   4.057   3.251   7.751  1.4223 -0.9418  1.0182
  143MOL     H617330   4.060   3.093   7.797 -1.1955 -0.8261 -0.1497
  143MOL     H717331   3.990   3.046   7.548  1.1857 -0.9963 -0.2575
  143MOL     C817332   3.861   3.153   7.748  0.3076  0.1577 -0.6621
  143MOL     F917333   3.801   3.212   7.646 -0.2504  0.0943  0.4982
  143MOL    F1017334   3.822   3.021   7.751  0.0161  0.1185 -0.1322
  143MOL    C1117335   3.817   3.219   7.886 -0.8279 -0.3683  0.6958
  143MOL    H1217336   3.711   3.194   7.890 -1.4127  1.8436  0.0524
  143MOL    H1317337   3.827   3.326   7.870  1.3344 -0.6821 -0.2572
  143MOL    C1417338   3.890   3.166   8.009  0.1815 -0.1078 -0.0986
  143MOL    F1517339   3.893   3.033   8.004  0.1572  0.4477  0.0320
  143MOL    F1617340   4.018   3.209   7.998 -0.0187 -0.4326  0.7370
  143MOL    C1717341   3.836   3.220   8.147  1.0322 -0.0843 -0.0485
  143MOL    H1817342   3.886   3.159   8.223 -0.1777  0.5241  1.2503
  143MOL    H1917343   3.734   3.200   8.177  1.1026 -1.5167 -0.7427
  143MOL    C2017344   3.867   3.374   8.174 -0.0566  0.3383  0.5188
  143MOL    F2117345   3.995   3.394   8.140 -0.3614 -1.0004 -0.1380
  143MOL    F2217346   3.790   3.460   8.101  0.9585 -0.4278 -0.2768
  143MOL    C2317347   3.827   3.427   8.314  0.0649  0.4446 -0.3946
  143MOL    H2417348   3.721   3.403   8.325  0.5412 -1.1377  0.8813
  143MOL    H2517349   3.836   3.535   8.311  2.5395  0.2547 -0.1343
  143MOL    C2617350   3.912   3.375   0.080 -1.1376  0.4316  0.0918
  143MOL    F2717351   3.865   3.448   0.182  0.2989 -0.0123 -0.1043
  143MOL    F2817352   3.892   3.246   0.107 -0.6242  0.8430  0.6500
  143MOL    C2917353   4.063   3.414   0.063 -0.0589 -0.6198 -0.3886
  143MOL    H3017354   4.063   3.518   0.029  0.0381  0.2100  2.0502
  143MOL    H3117355   4.114   3.348   8.342  0.1681 -1.3162  0.4165
  143MOL    C3217356   4.147   3.401   0.192 -0.7588 -0.5358 -0.1327
  143MOL    F3317357   4.085   3.442   0.302  0.4494  0.0202  0.2363
  143MOL    F3417358   4.173   3.270   0.198 -0.5316 -0.1625 -0.3634
  143MOL    C3517359   4.281   3.481   0.194 -0.7074 -0.9330  0.1863
  143MOL    H3617360   4.255   3.587   0.191 -3.0248 -1.4909 -0.9888
  143MOL    H3717361   4.318   3.483   0.092 -0.7941  0.0018  0.1705
  143MOL    C3817362   4.393   3.455   0.301 -0.6672  0.0216  0.4977
  143MOL    F3917363   4.443   3.331   0.288  0.4099 -0.2325 -0.0181
  143MOL    F4017364   4.482   3.548   0.271  0.0464 -0.0223  0.2933
  143MOL    C4117365   4.341   3.461   0.453 -0.3819  0.2169  0.0349
  143MOL    H4217366   4.275   3.376   0.471 -2.1622  1.7386  0.8154
  143MOL    H4317367   4.281   3.552   0.463 -1.3208 -0.3969  0.0249
  143MOL    C4417368   4.450   3.467   0.561 -0.0448  0.8871 -0.1167
  143MOL    F4517369   4.521   3.352   0.563  0.3061 -0.2824 -0.2787
  143MOL    F4617370   4.532   3.558   0.522  0.2818 -0.2191 -0.2877
  143MOL    C4717371   4.397   3.486   0.702 -0.1431 -0.4247 -0.3619
  143MOL    H4817372   4.489   3.510   0.756 -0.6494  1.6656 -0.3902
  143MOL    H4917373   4.354   3.400   0.753  0.0338 -0.7891 -0.8269
  143MOL    C5017374   4.312   3.616   0.725 -0.1565  0.1424 -0.4908
  143MOL    F5117375   4.350   3.717   0.642 -0.7133  0.2911  0.3023
  143MOL    F5217376   4.189   3.574   0.689  0.1513 -0.2091 -0.2683
  143MOL    C5317377   4.326   3.652   0.875  0.4666 -0.7349  0.4417
  143MOL    H5417378   4.427   3.672   0.911 -0.5442  4.5983  0.8439
  143MOL    H5517379   4.290   3.567   0.933  0.4156 -1.1287 -0.1657
  143MOL    C5617380   4.233   3.772   0.921 -0.0350 -0.6065 -0.6001
  143MOL    F5717381   4.248   3.878   0.842  0.4334 -0.3574  0.2212
  143MOL    F5817382   4.109   3.734   0.913 -0.5871 -0.1251 -0.0731
  143MOL    C5917383   4.265   3.810   1.067 -0.0012 -0.0393  0.0776
  143MOL    H6017384   4.359   3.864   1.061  2.0943 -3.6041 -0.4652
  143MOL    H6117385   4.291   3.724   1.128 -0.0646 -0.3013 -0.2635
  143MOL    C6217386   4.170   3.897   1.151 -0.0830  0.0049 -1.2462
  143MOL    F6317387   4.083   3.810   1.207 -0.6304  0.0417  0.3792
  143MOL    F6417388   4.236   3.954   1.258 -0.0251  0.4533 -0.6341
  143MOL    C6517389   4.090   4.012   1.084 -0.7809 -0.5287 -0.3291
  143MOL    H6617390   4.012   3.966   1.023 -2.5204  0.2016  1.3076
  143MOL    H6717391   4.153   4.068   1.015 -0.8066  1.5028  1.2554
  143MOL    C6817392   4.029   4.114   1.185 -0.2096 -0.5847 -0.1909
  143MOL    F6917393   3.922   4.061   1.253 -0.4461  0.0287 -0.2603
  143MOL    F7017394   4.123   4.146   1.279 -0.3894  0.0763 -0.0990
  143MOL    C7117395   4.001   4.253   1.125  0.2717  0.0912  0.6565
  143MOL    H7217396   4.092   4.288   1.076  0.3648  0.0746  0.8175
  143MOL    H7317397   4.000   4.331   1.201  0.7853  1.4570 -0.7247
  143MOL    C7417398   3.870   4.253   1.045  0.6516  0.5351 -0.5141
  143MOL    F7517399   3.889   4.186   0.935 -0.4079  0.3697 -0.0495
  143MOL    F7617400   3.774   4.199   1.116 -0.0164 -0.0882 -0.7501
  143MOL    C7717401   3.834   4.399   1.006  0.3953  0.0604  0.5725
  143MOL    H7817402   3.921   4.446   0.962  1.4527 -0.0921  2.4211
  143MOL    H7917403   3.804   4.457   1.094  0.7332  1.0649  0.0281
  143MOL    C8017404   3.724   4.410   0.896 -0.8087  0.4898 -0.3566
  143MOL    F8117405   3.777   4.369   0.772 -0.1194  0.4546 -0.0558
  143MOL    F8217406   3.621   4.335   0.934 -0.4553 -0.7167  0.3875
  143MOL    C8317407   3.670   4.551   0.869 -0.2833 -0.0915 -0.0525
  143MOL    H8417408   3.621   4.581   0.962  1.1706 -1.4095  1.1635
  143MOL    H8517409   3.592   4.551   0.793 -0.2226  0.8038 -0.1224
  143MOL    C8617410   3.761   4.664   0.829 -0.3191 -0.7121  0.4246
  143MOL    F8717411   3.857   4.688   0.921  0.4487 -0.1950  0.2190
  143MOL    F8817412   3.826   4.635   0.717 -0.2853 -0.4618 -0.0935
  143MOL    C8917413   3.693   4.799   0.806  0.1376 -0.5489 -0.2505
  143MOL    H9017414   3.769   4.872   0.779  0.0489 -0.5646 -0.5390
  143MOL    H9117415   3.661   4.843   0.901  1.8674  0.9425 -0.3364
  143MOL    C9217416   3.576   4.804   0.700  0.4122  0.2746  0.5679
  143MOL    F9317417   3.619   4.728   0.602 -0.1838 -0.2421  0.2473
  143MOL    F9417418   3.466   4.747   0.761 -0.3306  0.1371 -0.0282
  143MOL    C9517419   3.537   4.940   0.627  0.3184  0.5068 -0.6287
  143MOL    H9617420   3.473   4.918   0.542 -1.7147  0.5206  0.8467
  143MOL    H9717421   3.624   4.986   0.582  1.1167 -0.2768  0.0874
  143MOL    C9817422   3.469   5.043   0.710  0.7967 -0.7162  0.8943
  143MOL    F9917423   3.510   5.047   0.836 -0.3903 -0.3344  0.1243
  143MOL   F10017424   3.511   5.163   0.655  0.1807  0.2949 -0.3356
  143MOL   C10117425   3.319   5.048   0.724  0.2425 -0.6574  0.0937
  143MOL   H10217426   3.295   4.961   0.785 -0.4357 -1.8853 -1.8709
  143MOL   H10317427   3.280   5.024   0.625 -0.9528  0.4134  0.2888
  143MOL   C10417428   3.250   5.177   0.777 -0.1573 -0.0765  0.2957
  143MOL   F10517429   3.256   5.266   0.679 -0.0347 -0.0122  0.2956
  143MOL   F10617430   3.126   5.143   0.811 -0.4367 -0.1204  0.4575
  143MOL   C10717431   3.309   5.240   0.897 -0.4751  0.0283  0.2195
  143MOL   H10817432   3.411   5.266   0.873 -0.4733 -0.9014 -0.8408
  143MOL   H10917433   3.323   5.174   0.983  0.7717  0.2502  0.1947
  143MOL   C11017434   3.248   5.378   0.941  0.5386 -0.3701 -0.6281
  143MOL   F11117435   3.276   5.474   0.854  0.2539 -0.4196 -0.0042
  143MOL   F11217436   3.120   5.372   0.959  0.1532 -0.3519 -0.0368
  143MOL   C11317437   3.292   5.439   1.079 -0.1897 -0.5093  0.1643
  143MOL   H11417438   3.262   5.375   1.161  0.0213  0.2541  0.8474
  143MOL   H11517439   3.246   5.537   1.093 -0.0567 -0.6125  1.3329
  143MOL   C11617440   3.446   5.458   1.089  0.0529  1.2622  0.6221
  143MOL   F11717441   3.494   5.341   1.121 -0.5334  0.2990  0.4728
  143MOL   F11817442   3.506   5.497   0.979 -0.0009  0.1179 -0.0876
  143MOL   C11917443   3.490   5.548   1.196  0.1568 -0.2209  0.1930
  143MOL   H12017444   3.478   5.504   1.295 -0.6923 -0.2112  0.0996
  143MOL   H12117445   3.443   5.647   1.198  1.5711  0.4503  2.6222
  143MOL   H12217446   3.596   5.574   1.195  0.2331 -0.5368  0.0595
  144MOL     C117447   0.450   4.453   1.326 -0.4162  0.0641 -0.9177
  144MOL     F217448   0.340   4.524   1.357 -0.4053  0.5628 -0.3668
  144MOL     F317449   0.504   4.408   1.436  0.1663 -0.2184  0.4184
  144MOL     C417450   0.551   4.541   1.243 -0.3342  0.3713 -0.4412
  144MOL     H517451   0.526   4.546   1.137  0.2288  1.6457 -0.5251
  144MOL     H617452   0.647   4.491   1.247 -0.3081  0.5470  3.1877
  144MOL     H717453   0.416   4.371   1.263  2.8538 -1.9118 -0.1916
  144MOL     C817454   0.575   4.684   1.302 -0.2817  0.5207  0.0825
  144MOL     F917455   0.456   4.751   1.314 -0.0702 -0.1269  0.1291
  144MOL    F1017456   0.627   4.676   1.424 -1.1159 -0.2235 -0.5090
  144MOL    C1117457   0.672   4.779   1.216  1.1913 -0.6861  0.5247
  144MOL    H1217458   0.672   4.754   1.110  0.1154  1.2408  0.0607
  144MOL    H1317459   0.778   4.764   1.240  1.0529  0.7536  2.1536
  144MOL    C1417460   0.653   4.936   1.234  0.3723 -0.3099  0.2784
  144MOL    F1517461   0.722   5.015   1.152 -0.4801  0.4401 -0.0579
  144MOL    F1617462   0.527   4.962   1.185  0.3122  0.4211 -0.3388
  144MOL    C1717463   0.652   4.990   1.373 -0.3700 -0.1079  0.2506
  144MOL    H1817464   0.584   4.926   1.429 -1.1474 -1.5442 -2.2364
  144MOL    H1917465   0.609   5.090   1.368  1.4593  0.8892  3.3114
  144MOL    C2017466   0.786   5.006   1.448  0.0870  0.8475  0.0879
  144MOL    F2117467   0.813   4.882   1.486 -0.1704 -0.3300 -0.1034
  144MOL    F2217468   0.888   5.044   1.368 -0.5019  0.2255 -0.4313
  144MOL    C2317469   0.780   5.096   1.571 -0.7001 -0.5919  0.2423
  144MOL    H2417470   0.685   5.071   1.619  0.4784 -0.4500  2.7439
  144MOL    H2517471   0.773   5.199   1.534 -0.3968 -0.0967  1.5271
  144MOL    C2617472   0.893   5.084   1.679 -0.8411  0.3531  0.1922
  144MOL    F2717473   1.004   5.104   1.616 -0.0314  0.0223 -0.2434
  144MOL    F2817474   0.872   5.193   1.754  0.0555 -0.1616 -0.0293
  144MOL    C2917475   0.889   4.954   1.766  0.1941  0.4906 -0.5668
  144MOL    H3017476   0.866   4.874   1.696 -3.8758  0.5843  0.5081
  144MOL    H3117477   0.798   4.961   1.825  0.9961  0.3420  0.7200
  144MOL    C3217478   1.011   4.917   1.852  0.1156 -0.2046  0.0726
  144MOL    F3317479   1.128   4.902   1.788 -0.3524 -0.0402  0.0080
  144MOL    F3417480   1.026   5.021   1.933  0.0851  0.7637 -0.0461
  144MOL    C3517481   0.982   4.799   1.946 -0.1597  0.3780 -0.1806
  144MOL    H3617482   0.907   4.828   2.021  0.2629  1.5504 -0.2009
  144MOL    H3717483   1.065   4.792   2.017  1.0188 -1.8114 -1.7533
  144MOL    C3817484   0.951   4.658   1.890  0.3229 -0.3183  0.1391
  144MOL    F3917485   0.955   4.587   2.005 -0.2849  0.3945 -0.1492
  144MOL    F4017486   0.829   4.667   1.843  0.1522  0.1177 -0.3822
  144MOL    C4117487   1.059   4.613   1.791  0.6312 -0.5693  0.4237
  144MOL    H4217488   1.155   4.591   1.837  0.4473 -1.5840  0.3494
  144MOL    H4317489   1.070   4.693   1.719 -0.9451 -0.2915  0.4671
  144MOL    C4417490   1.026   4.479   1.718  0.4725  0.9775  0.7582
  144MOL    F4517491   1.137   4.419   1.674 -0.1547  0.4390  0.0180
  144MOL    F4617492   0.964   4.389   1.794 -0.1352 -0.2828 -0.3802
  144MOL    C4717493   0.944   4.511   1.591 -0.3573 -0.0005 -0.4697
  144MOL    H4817494   1.002   4.581   1.530 -1.4990 -0.8424 -2.5734
  144MOL    H4917495   0.860   4.578   1.607 -1.3665 -1.1497 -0.9270
  144MOL    C5017496   0.891   4.396   1.514 -0.0174  0.3616  0.9521
  144MOL    F5117497   0.814   4.320   1.592  0.0774  0.4710 -0.4918
  144MOL    F5217498   0.812   4.460   1.422  0.4819  0.4376 -0.0326
  144MOL    C5317499   1.003   4.313   1.440  0.4843  0.9103 -0.2436
  144MOL    H5417500   1.054   4.257   1.518 -0.7136 -1.1863 -0.9102
  144MOL    H5517501   1.070   4.381   1.389  1.0627  2.2438  2.2266
  144MOL    C5617502   0.944   4.200   1.343  0.1978  0.0367 -0.4630
  144MOL    F5717503   0.859   4.253   1.247  0.0158 -0.0422  0.2335
  144MOL    F5817504   1.045   4.143   1.271 -0.2121  0.2263  0.4223
  144MOL    C5917505   0.846   4.097   1.405 -0.6795  0.9414  0.1332
  144MOL    H6017506   0.803   4.034   1.327  0.7417  0.3809 -0.2219
  144MOL    H6117507   0.766   4.154   1.451 -0.0297  0.9245  1.2995
  144MOL    C6217508   0.906   3.985   1.495 -0.5220  0.0374 -0.4091
  144MOL    F6317509   0.964   4.039   1.604  0.6795 -0.4029 -0.1756
  144MOL    F6417510   0.799   3.909   1.528 -0.7083 -0.5710  0.2858
  144MOL    C6517511   1.013   3.895   1.430  0.1815  0.0812  0.1957
  144MOL    H6617512   1.087   3.956   1.378  0.1376  0.1806  0.2494
  144MOL    H6717513   0.966   3.838   1.350 -1.1026  1.7037 -0.2124
  144MOL    C6817514   1.076   3.781   1.518 -0.6807  0.2465  0.1389
  144MOL    F6917515   0.984   3.685   1.536 -0.0889 -0.3910 -0.0701
  144MOL    F7017516   1.170   3.731   1.442 -0.0658 -0.7936 -0.8065
  144MOL    C7117517   1.130   3.824   1.655  0.2019 -0.0772 -0.1377
  144MOL    H7217518   1.042   3.844   1.716  0.6985  0.4584  0.4059
  144MOL    H7317519   1.185   3.917   1.645 -0.6553  0.3919 -0.5759
  144MOL    C7417520   1.206   3.707   1.720  0.1915 -1.0055 -0.0534
  144MOL    F7517521   1.319   3.689   1.639 -0.3436 -0.2541 -0.5004
  144MOL    F7617522   1.249   3.752   1.833  0.2877  0.1965 -0.0885
  144MOL    C7717523   1.137   3.574   1.749 -0.6231  0.0259  0.1556
  144MOL    H7817524   1.110   3.525   1.655 -1.3975  1.5419 -0.4459
  144MOL    H7917525   1.045   3.596   1.803 -1.4511  0.3814 -1.3501
  144MOL    C8017526   1.221   3.464   1.829  0.1326 -0.3279 -0.9040
  144MOL    F8117527   1.232   3.502   1.953  0.4797 -0.1356 -0.2822
  144MOL    F8217528   1.141   3.354   1.834  0.4723  0.2339 -0.2725
  144MOL    C8317529   1.362   3.430   1.779  0.3528  0.0911 -0.3840
  144MOL    H8417530   1.405   3.373   1.861 -1.7962 -0.9970  0.0018
  144MOL    H8517531   1.414   3.524   1.758  2.2110 -1.1149 -1.3620
  144MOL    C8617532   1.371   3.351   1.646  0.2076  0.1486 -0.3132
  144MOL    F8717533   1.326   3.227   1.663  0.2291  0.0400  0.0343
  144MOL    F8817534   1.306   3.415   1.548  0.4054  0.3165  0.4013
  144MOL    C8917535   1.519   3.334   1.608 -0.2772  0.1250 -0.1148
  144MOL    H9017536   1.572   3.272   1.680  0.8126 -1.9816 -2.6691
  144MOL    H9117537   1.564   3.433   1.618  0.8179 -0.5054  1.3660
  144MOL    C9217538   1.534   3.276   1.464 -0.4940 -0.0536  0.5287
  144MOL    F9317539   1.653   3.209   1.457  0.4396 -0.1716 -0.5129
  144MOL    F9417540   1.440   3.185   1.438 -0.2809 -0.1623 -0.4520
  144MOL    C9517541   1.536   3.377   1.346 -0.0578  1.0329 -0.4256
  144MOL    H9617542   1.444   3.434   1.335 -0.4105  0.4879 -0.3528
  144MOL    H9717543   1.549   3.326   1.250  1.8646  1.2990 -0.3272
  144MOL    C9817544   1.638   3.491   1.347  0.1943 -0.4951  0.0770
  144MOL    F9917545   1.622   3.568   1.451  0.6145  0.2158 -0.6648
  144MOL   F10017546   1.757   3.434   1.352  0.1786  0.3854 -0.3033
  144MOL   C10117547   1.621   3.581   1.227 -0.6973  0.7106 -0.3662
  144MOL   H10217548   1.523   3.627   1.242 -0.2238  2.8619 -3.4463
  144MOL   H10317549   1.616   3.515   1.140 -1.2388  0.4842 -0.1730
  144MOL   C10417550   1.732   3.691   1.208 -0.3241  0.2812  0.5033
  144MOL   F10517551   1.750   3.755   1.325 -0.1631  0.2276 -0.1906
  144MOL   F10617552   1.841   3.620   1.170 -0.3221 -0.4220  0.4080
  144MOL   C10717553   1.725   3.796   1.097 -0.0434 -0.2314 -0.5327
  144MOL   H10817554   1.735   3.743   1.003  0.5432 -1.7665  0.3665
  144MOL   H10917555   1.817   3.853   1.107 -1.4834  2.1161 -0.3169
  144MOL   C11017556   1.597   3.889   1.094  0.0212 -0.5959 -0.3856
  144MOL   F11117557   1.600   3.960   0.985 -0.1967 -0.3954 -0.2580
  144MOL   F11217558   1.489   3.811   1.075 -0.0418 -0.0305  0.4461
  144MOL   C11317559   1.596   3.969   1.227  0.4445 -0.7186  0.2158
  144MOL   H11417560   1.698   3.993   1.256  0.1481 -1.3298  1.8268
  144MOL   H11517561   1.553   3.904   1.303  1.6179 -0.1525  1.3662
  144MOL   C11617562   1.521   4.099   1.205 -0.4269  0.2910 -0.6546
  144MOL   F11717563   1.530   4.160   1.320  0.4962 -0.1814 -0.0220
  144MOL   F11817564   1.577   4.175   1.122  0.1030  0.6355 -0.0295
  144MOL   C11917565   1.366   4.086   1.169  0.6529  0.2896 -0.2867
  144MOL   H12017566   1.357   4.059   1.064  0.2993  1.9050 -0.6865
  144MOL   H12117567   1.302   4.172   1.189  0.3303  0.2983 -1.3476
  144MOL   H12217568   1.327   4.004   1.229  0.1035  1.3735  0.8645
  145MOL     C117569   3.184   6.511   3.948 -0.5067 -0.3758 -0.4772
  145MOL     F217570   3.318   6.516   3.981 -0.0046  0.2970  0.3566
  145MOL     F317571   3.138   6.394   3.959  0.5239  0.2826 -0.4069
  145MOL     C417572   3.162   6.577   3.810  0.3754 -0.4685  0.5919
  145MOL     H517573   3.187   6.683   3.822  0.0510 -0.2182 -0.9225
  145MOL     H617574   3.055   6.590   3.794  0.8024  2.0779 -0.4408
  145MOL     H717575   3.125   6.565   4.022 -0.0755  1.1090 -1.1949
  145MOL     C817576   3.226   6.504   3.688  0.5458 -0.0697  1.0807
  145MOL     F917577   3.178   6.379   3.685  0.2932  0.6314 -0.4897
  145MOL    F1017578   3.184   6.574   3.581  0.3555  0.2510  0.2939
  145MOL    C1117579   3.378   6.494   3.689 -0.4123 -0.0468  0.6927
  145MOL    H1217580   3.416   6.431   3.769  1.9887  1.2800  0.6372
  145MOL    H1317581   3.422   6.591   3.709 -2.3375  1.0348 -0.1497
  145MOL    C1417582   3.446   6.446   3.559 -0.5284 -0.2532  0.1649
  145MOL    F1517583   3.567   6.402   3.595 -0.0379 -0.0231  0.5189
  145MOL    F1617584   3.389   6.330   3.522 -0.4551 -0.4438  0.1793
  145MOL    C1717585   3.452   6.549   3.439  0.0254  0.2193 -0.4875
  145MOL    H1817586   3.513   6.634   3.467 -0.9504  0.3811  1.2239
  145MOL    H1917587   3.352   6.579   3.408 -0.2689  0.8376  1.0403
  145MOL    C2017588   3.526   6.502   3.316  0.7308 -0.2341  0.1788
  145MOL    F2117589   3.653   6.490   3.347 -0.3562 -0.2359 -0.4495
  145MOL    F2217590   3.477   6.376   3.281  0.2532 -1.0084  0.0947
  145MOL    C2317591   3.516   6.611   3.200 -0.3947 -0.1013 -0.3422
  145MOL    H2417592   3.560   6.702   3.239 -2.8261  1.3955 -0.9501
  145MOL    H2517593   3.411   6.639   3.190  0.3072  2.5524 -0.5778
  145MOL    C2617594   3.585   6.567   3.070 -0.3092  0.1549  0.7236
  145MOL    F2717595   3.715   6.556   3.097  0.0544 -0.2648  0.4240
  145MOL    F2817596   3.540   6.449   3.025  0.1109 -0.3000  0.0100
  145MOL    C2917597   3.565   6.660   2.948  0.1586  0.6552  0.5324
  145MOL    H3017598   3.467   6.649   2.901  0.1782  0.3077  0.5701
  145MOL    H3117599   3.628   6.624   2.867 -0.1430 -0.6203  0.8504
  145MOL    C3217600   3.593   6.812   2.971  0.2064  1.1133  0.1700
  145MOL    F3317601   3.566   6.858   2.854  0.2965 -0.7834  0.5850
  145MOL    F3417602   3.495   6.850   3.049 -0.7229  0.1866 -0.4773
  145MOL    C3517603   3.739   6.837   3.014  0.6638 -0.1131 -0.2137
  145MOL    H3617604   3.807   6.803   2.936 -0.0383 -1.2763 -0.3432
  145MOL    H3717605   3.769   6.771   3.095 -0.2921 -0.9049 -0.4959
  145MOL    C3817606   3.776   6.984   3.048  0.1252 -0.2930 -0.3547
  145MOL    F3917607   3.907   6.991   3.067  0.0656 -0.2036 -0.2982
  145MOL    F4017608   3.721   7.075   2.964  0.1895 -0.1740  0.2827
  145MOL    C4117609   3.732   7.037   3.194  0.5870 -0.1016  0.4571
  145MOL    H4217610   3.624   7.025   3.196  0.4612  0.9593  0.4794
  145MOL    H4317611   3.749   7.144   3.211 -1.3114  0.3925 -0.5695
  145MOL    C4417612   3.794   6.956   3.315 -0.0491 -0.3620 -0.0236
  145MOL    F4517613   3.745   6.834   3.322 -0.1057 -0.2290  0.8355
  145MOL    F4617614   3.928   6.958   3.303 -0.1796  0.2091 -0.0375
  145MOL    C4717615   3.762   7.024   3.452 -0.5712  0.2616 -0.0758
  145MOL    H4817616   3.810   7.122   3.453  2.1066 -1.0074 -1.0935
  145MOL    H4917617   3.803   6.970   3.538  0.4569  2.2128  0.6947
  145MOL    C5017618   3.615   7.039   3.488  0.3992 -0.1355 -0.1554
  145MOL    F5117619   3.552   7.117   3.402  0.7092 -0.0966 -0.1531
  145MOL    F5217620   3.559   6.916   3.498  0.4354 -0.1768  0.0604
  145MOL    C5317621   3.602   7.110   3.619  0.4259  0.0525  0.4793
  145MOL    H5417622   3.651   7.205   3.599 -1.0633  0.6091 -0.6050
  145MOL    H5517623   3.669   7.066   3.693 -2.3706 -1.8800  1.9404
  145MOL    C5617624   3.453   7.133   3.675 -0.2676  0.0608  0.6413
  145MOL    F5717625   3.382   7.200   3.586 -0.0184 -0.1454  0.2338
  145MOL    F5817626   3.405   7.013   3.691  0.0142  0.0717  0.0504
  145MOL    C5917627   3.462   7.197   3.812  0.7953  0.0832  0.0801
  145MOL    H6017628   3.513   7.129   3.880 -2.3829 -0.2063  2.2920
  145MOL    H6117629   3.361   7.216   3.848 -0.3987 -1.8689 -2.0700
  145MOL    C6217630   3.527   7.335   3.830  0.6656 -0.5773  0.1243
  145MOL    F6317631   3.507   7.367   3.959  0.2665  0.5386  0.1682
  145MOL    F6417632   3.660   7.338   3.806 -0.2401 -0.0240 -0.3817
  145MOL    C6517633   3.460   7.442   3.740 -0.0858 -0.4301  0.2249
  145MOL    H6617634   3.353   7.425   3.748  0.0949 -1.9013 -0.3419
  145MOL    H6717635   3.498   7.420   3.640  0.2667  0.4782  0.1466
  145MOL    C6817636   3.493   7.590   3.777  1.2937 -0.4088 -0.2208
  145MOL    F6917637   3.427   7.614   3.888 -0.4078  0.2555 -0.3885
  145MOL    F7017638   3.625   7.606   3.790 -0.6317  0.1599  0.1733
  145MOL    C7117639   3.433   7.674   3.664  0.5475 -0.0256 -0.5948
  145MOL    H7217640   3.337   7.632   3.637  1.7213 -1.6349 -2.3393
  145MOL    H7317641   3.485   7.654   3.570  0.3655 -1.2078 -0.4474
  145MOL    C7417642   3.425   7.830   3.695  0.4228 -0.5293  0.6192
  145MOL    F7517643   3.361   7.850   3.811 -0.2979 -0.1487  0.2965
  145MOL    F7617644   3.548   7.874   3.705  0.2640  0.4974  0.2144
  145MOL    C7717645   3.345   7.912   3.586  0.8178  0.5981  0.4540
  145MOL    H7817646   3.347   8.017   3.611  0.4357  0.9297 -0.8463
  145MOL    H7917647   3.241   7.880   3.576  0.0762  3.4197 -1.3244
  145MOL    C8017648   3.406   7.907   3.447  0.0619 -0.4663  0.3792
  145MOL    F8117649   3.533   7.937   3.450  0.0102 -0.0532  0.0017
  145MOL    F8217650   3.401   7.780   3.402  0.2370  0.0451  0.3023
  145MOL    C8317651   3.336   8.002   3.354  0.3134  0.3648 -0.4827
  145MOL    H8417652   3.353   8.103   3.391  0.0156  0.6931 -1.2387
  145MOL    H8517653   3.230   7.980   3.370  0.8883 -1.2578  1.3762
  145MOL    C8617654   3.370   7.987   3.206 -0.7548 -0.1700 -0.0291
  145MOL    F8717655   3.502   7.985   3.185  0.1310  0.2434  0.0712
  145MOL    F8817656   3.319   7.872   3.172  0.1325 -0.1125 -0.0064
  145MOL    C8917657   3.292   8.095   3.115 -0.6934 -0.4999 -0.0913
  145MOL    H9017658   3.315   8.060   3.014  2.3738 -0.8542  0.6558
  145MOL    H9117659   3.338   8.193   3.119 -2.8129  0.4675  1.0955
  145MOL    C9217660   3.144   8.112   3.141  0.0546  0.4672 -0.7232
  145MOL    F9317661   3.074   7.991   3.132  0.0165 -0.0524  0.1800
  145MOL    F9417662   3.137   8.163   3.259 -0.2089  0.4235 -0.0936
  145MOL    C9517663   3.083   8.212   3.044 -0.0570 -0.2785 -0.2787
  145MOL    H9617664   3.108   8.181   2.943  1.7790  0.9468 -0.2117
  145MOL    H9717665   3.119   8.314   3.059  0.0316 -0.1948 -1.0233
  145MOL    C9817666   2.925   8.238   3.042 -0.8457  0.2867 -0.5603
  145MOL    F9917667   2.862   8.132   2.996 -0.0852  0.0254 -0.0821
  145MOL   F10017668   2.882   8.252   3.171  0.2446  0.3583  0.2764
  145MOL   C10117669   2.878   0.012   2.956  0.6747  0.1769  0.0794
  145MOL   H10217670   2.896   0.108   3.006 -0.2450 -0.0911  0.9297
  145MOL   H10317671   2.770   0.011   2.965  0.5567  0.3231 -1.1382
  145MOL   C10417672   2.915   0.018   2.802  0.2471  0.5156 -0.4213
  145MOL   F10517673   3.033   0.067   2.807  0.1433 -0.2377  0.2036
  145MOL   F10617674   2.920   8.245   2.755  0.0139  0.2323  0.4433
  145MOL   C10717675   2.816   0.105   2.715 -0.1136  0.4242 -0.5923
  145MOL   H10817676   2.795   0.199   2.766 -5.5835 -0.5003 -0.8496
  145MOL   H10917677   2.719   0.055   2.718  0.1916 -0.0800  1.0043
  145MOL   C11017678   2.869   0.128   2.573  1.0276 -0.3686  1.0643
  145MOL   F11117679   2.977   0.201   2.581 -0.2171 -0.3846  0.1192
  145MOL   F11217680   2.885   0.007   2.516  0.3773  0.3809 -0.3908
  145MOL   C11317681   2.764   0.198   2.489 -0.3316 -0.2612 -0.1656
  145MOL   H11417682   2.727   0.284   2.544 -0.0252  1.1574 -2.1632
  145MOL   H11517683   2.684   0.124   2.494 -0.0310 -0.5897 -0.1114
  145MOL   C11617684   2.799   0.230   2.342 -0.6209 -0.6652  0.4291
  145MOL   F11717685   2.876   0.337   2.356  0.4986 -0.6265 -0.7532
  145MOL   F11817686   2.852   0.126   2.282  0.1339  0.1489  0.1095
  145MOL   C11917687   2.656   0.268   2.276  0.1514  0.0022 -0.6534
  145MOL   H12017688   2.577   0.195   2.291  0.3498 -0.3995 -1.5026
  145MOL   H12117689   2.672   0.289   2.170  1.1409 -0.0356 -0.5161
  145MOL   H12217690   2.610   0.359   2.315 -0.0287 -0.3036 -0.1573
  146MOL     C117691   4.558   1.384   0.746  0.2768  0.5176 -0.5237
  146MOL     F217692   4.573   1.505   0.798 -0.0148 -0.1762  0.2560
  146MOL     F317693   4.432   1.345   0.763 -0.5308  0.2932 -0.4038
  146MOL     C417694   4.659   1.291   0.816  0.4432  0.2920 -0.7498
  146MOL     H517695   4.616   1.297   0.915 -0.2105  1.2741 -1.0812
  146MOL     H617696   4.753   1.346   0.817  0.5591  0.0722  1.8028
  146MOL     H717697   4.564   1.386   0.637 -0.7244 -2.7048 -0.6866
  146MOL     C817698   4.658   1.147   0.776  0.1460  0.0641 -0.3856
  146MOL     F917699   4.545   1.103   0.833 -0.1618  0.2902 -0.0633
  146MOL    F1017700   4.645   1.127   0.639 -0.6868  0.4278  0.1026
  146MOL    C1117701   4.784   1.071   0.833  0.3645 -0.2653 -0.2856
  146MOL    H1217702   4.802   1.090   0.938 -0.4052  0.5162 -0.2901
  146MOL    H1317703   4.872   1.112   0.783 -1.2265  1.5327 -1.6909
  146MOL    C1417704   4.798   0.923   0.798 -0.2061 -0.3709 -0.2501
  146MOL    F1517705   4.692   0.857   0.836 -0.0681  0.2350  0.8048
  146MOL    F1617706   4.814   0.900   0.669  0.1813  0.4061 -0.1355
  146MOL    C1717707   4.917   0.863   0.867  0.4686 -0.1018  0.1395
  146MOL    H1817708   4.921   0.878   0.975  1.0251 -3.8846  0.7202
  146MOL    H1917709   5.007   0.912   0.830 -0.5401  0.8696 -1.0604
  146MOL    C2017710   4.939   0.703   0.852  0.1147  0.6501 -0.4379
  146MOL    F2117711   4.931   0.662   0.723  0.2457  0.5541 -0.3401
  146MOL    F2217712   5.063   0.685   0.892 -0.4809  0.2388  0.4876
  146MOL    C2317713   4.840   0.628   0.941 -0.2446  0.3255 -0.0672
  146MOL    H2417714   4.739   0.661   0.916 -1.0555 -1.8432  0.1701
  146MOL    H2517715   4.861   0.666   1.041 -1.2373 -0.1321  0.3255
  146MOL    C2617716   4.845   0.475   0.933  1.2310  0.1593  0.5048
  146MOL    F2717717   4.812   0.427   0.814 -0.0546  0.0104 -0.1283
  146MOL    F2817718   4.969   0.437   0.969  0.1594 -0.0518  0.3732
  146MOL    C2917719   4.759   0.397   1.033  0.7508 -0.0106  1.1053
  146MOL    H3017720   4.802   0.297   1.038  0.4563 -0.3286 -1.9196
  146MOL    H3117721   4.660   0.375   0.993  1.4023  0.6705 -0.9180
  146MOL    C3217722   4.737   0.460   1.172 -0.6689 -0.3749  0.2695
  146MOL    F3317723   4.862   0.495   1.211  0.0616  0.0767  0.2021
  146MOL    F3417724   4.661   0.570   1.162 -0.0873 -0.4859  0.1190
  146MOL    C3517725   4.666   0.357   1.255  0.1779 -0.2676 -0.1923
  146MOL    H3617726   4.734   0.272   1.260 -1.6520 -1.6807  1.2558
  146MOL    H3717727   4.574   0.329   1.205  0.9852 -0.1189 -1.7901
  146MOL    C3817728   4.619   0.410   1.397 -0.4411  0.3291  0.4252
  146MOL    F3917729   4.712   0.477   1.467  0.2513 -0.5550  0.0146
  146MOL    F4017730   4.512   0.485   1.371 -0.5264 -0.2863 -0.2148
  146MOL    C4117731   4.573   0.290   1.483 -0.6288 -0.8185 -0.1790
  146MOL    H4217732   4.504   0.233   1.421 -1.1336 -1.1602  0.6971
  146MOL    H4317733   4.505   0.328   1.558 -1.3167 -0.3910 -1.0089
  146MOL    C4417734   4.690   0.204   1.547 -0.4368 -0.4697  0.3836
  146MOL    F4517735   4.622   0.094   1.580 -0.3863  0.2120 -0.1171
  146MOL    F4617736   4.784   0.159   1.463 -0.1713 -0.4384  0.2922
  146MOL    C4717737   4.761   0.255   1.671 -0.1050  0.3827  0.3347
  146MOL    H4817738   4.693   0.297   1.746 -0.1714  2.2778 -0.7658
  146MOL    H4917739   4.820   0.342   1.645  0.5087  0.1032  0.7647
  146MOL    C5017740   4.859   0.154   1.740  0.3489  1.0309 -0.3696
  146MOL    F5117741   4.912   0.206   1.854  0.0560 -0.6174 -0.2331
  146MOL    F5217742   4.801   0.041   1.778  0.1771  0.0395  0.7911
  146MOL    C5317743   4.985   0.106   1.649  0.3434  0.4498 -0.0870
  146MOL    H5417744   4.947   0.045   1.567  1.5025 -2.7300  1.6661
  146MOL    H5517745   5.051   0.044   1.709 -0.9000 -0.2537  0.5719
  146MOL    C5617746   5.068   0.224   1.584  0.3063  0.0560 -0.0517
  146MOL    F5717747   5.004   0.280   1.481 -0.0851 -0.0904  0.6814
  146MOL    F5817748   5.074   0.312   1.687 -0.1431  0.0922  0.4813
  146MOL    C5917749   5.206   0.166   1.542 -0.2444  0.2433  0.1822
  146MOL    H6017750   5.191   0.096   1.460 -1.1552  0.8849 -0.2043
  146MOL    H6117751   5.246   0.101   1.620  0.2013 -1.3351 -1.3316
  146MOL    C6217752   5.309   0.278   1.513  0.2828  0.1751 -0.1408
  146MOL    F6317753   5.263   0.362   1.421 -0.1825  0.6280  0.2758
  146MOL    F6417754   5.327   0.352   1.627  0.2039  0.3284  0.3631
  146MOL    C6517755   5.440   0.222   1.463 -0.1121  0.1667 -0.1164
  146MOL    H6617756   5.415   0.177   1.368  1.5894 -0.7581 -0.1571
  146MOL    H6717757   5.475   0.140   1.526 -0.2862  0.5256  0.4529
  146MOL    C6817758   5.549   0.326   1.441  0.7651  0.8377  0.0907
  146MOL    F6917759   5.514   0.398   1.334 -0.5476 -0.1171 -0.0372
  146MOL    F7017760   5.568   0.411   1.545 -0.0207  0.3672 -0.0618
  146MOL    C7117761   5.683   0.254   1.408  0.4299  0.3232  0.6914
  146MOL    H7217762   5.720   0.208   1.499  1.2074  1.0965  0.7687
  146MOL    H7317763   5.751   0.336   1.384  1.1804 -0.5969 -0.3656
  146MOL    C7417764   5.689   0.153   1.292  0.0187  0.6482 -0.4818
  146MOL    F7517765   5.600   0.062   1.310 -0.1102 -0.0342 -0.1729
  146MOL    F7617766   5.651   0.210   1.182 -0.0920  0.0606 -0.4597
  146MOL    C7717767   5.820   0.073   1.278 -0.3769  0.4598 -0.1996
  146MOL    H7817768   5.806   8.338   1.211 -2.4089  0.3096  0.3709
  146MOL    H7917769   5.841   0.029   1.375 -2.0406  0.5698  0.2276
  146MOL    C8017770   5.938   0.150   1.224  0.3286 -0.4535  0.4663
  146MOL    F8117771   5.914   0.184   1.093  0.2416 -0.1990  0.1434
  146MOL    F8217772   5.968   0.253   1.304  0.0314  0.4290  0.0706
  146MOL    C8317773   6.070   0.074   1.226 -0.3309  0.6131 -0.5085
  146MOL    H8417774   6.133   0.139   1.164 -0.4620  1.1391 -0.0931
  146MOL    H8517775   6.060   8.337   1.161  1.5312  0.4407 -0.6043
  146MOL    C8617776   6.130   0.047   1.359 -0.1323  0.0811 -0.2877
  146MOL    F8717777   6.148   0.152   1.432  0.0242 -0.1998 -0.0244
  146MOL    F8817778   6.062   8.306   1.431  0.1806  0.7027 -0.6689
  146MOL    C8917779   6.273   8.330   1.352  0.0306  0.3473 -0.2422
  146MOL    H9017780   6.261   8.227   1.318  1.5771 -0.5944  1.9706
  146MOL    H9117781   6.324   8.324   1.448  1.1331  2.2618 -0.6871
  146MOL    C9217782   6.370   0.042   1.258  0.0923 -0.1180 -0.3284
  146MOL    F9317783   6.330   0.016   1.137 -0.2736 -0.2075  0.4588
  146MOL    F9417784   6.359   0.172   1.284  0.4051  0.4536 -0.2012
  146MOL    C9517785   6.517   8.330   1.265 -0.0835 -0.3135 -0.1227
  146MOL    H9617786   6.559   0.019   1.358  1.8255 -1.1267 -0.6360
  146MOL    H9717787   6.572   0.032   1.186  3.3117  1.5395  3.2710
  146MOL    C9817788   6.533   8.180   1.276  0.1957 -0.3606  0.0002
  146MOL    F9917789   6.500   8.150   1.402 -0.1206  0.0927 -0.3251
  146MOL   F10017790   6.452   8.122   1.192 -0.2134 -0.0019  0.4758
  146MOL   C10117791   6.680   8.138   1.263  0.2768 -0.0104  0.2899
  146MOL   H10217792   6.738   8.204   1.327 -0.8751  2.0750 -0.7573
  146MOL   H10317793   6.702   8.171   1.161  1.8551 -1.0656  0.2793
  146MOL   C10417794   6.729   7.993   1.271  0.3980  0.2626  0.2648
  146MOL   F10517795   6.730   7.959   1.404  0.3984 -0.2513  0.3227
  146MOL   F10617796   6.645   7.907   1.207  0.4590 -0.1656 -0.1743
  146MOL   C10717797   6.868   7.998   1.216 -0.4478  1.1683  0.0147
  146MOL   H10817798   6.919   8.079   1.269  1.1399  0.5228 -0.4917
  146MOL   H10917799   6.864   8.011   1.108  2.3577 -1.0940 -0.4368
  146MOL   C11017800   6.936   7.856   1.233  0.1202 -0.4015 -0.4008
  146MOL   F11117801   6.936   7.811   1.358 -0.1384 -0.0319 -0.4107
  146MOL   F11217802   6.876   7.771   1.150  0.2398  0.4667  0.3311
  146MOL   C11317803   7.082   7.856   1.186  0.1474 -0.2485  0.5873
  146MOL   H11417804   7.148   7.913   1.252  0.0887  1.8438 -1.0858
  146MOL   H11517805   7.102   7.888   1.083  0.4188 -1.5581  0.2313
  146MOL   C11617806   7.139   7.710   1.196  0.7262 -0.1397 -0.7918
  146MOL   F11717807   7.115   7.633   1.307 -0.3922 -0.2496  0.5349
  146MOL   F11817808   7.093   7.650   1.092 -0.5318  0.2474  0.2633
  146MOL   C11917809   7.294   7.721   1.195  0.9326  0.6211  0.5061
  146MOL   H12017810   7.337   7.778   1.113  1.5359  0.6131  0.8179
  146MOL   H12117811   7.325   7.617   1.195 -0.6054  0.1476  0.4995
  146MOL   H12217812   7.331   7.768   1.286 -1.0564  2.8954  0.1986
  147MOL     C117813   1.882   5.987   3.241  0.2694  0.0552  0.1370
  147MOL     F217814   1.991   6.018   3.169 -0.0987  0.2830  0.3625
  147MOL     F317815   1.821   6.095   3.274  0.4431 -0.5681 -0.2771
  147MOL     C417816   1.921   5.909   3.360  0.2332  0.5295 -0.2074
  147MOL     H517817   1.965   5.980   3.430  0.2901 -0.7924  1.1447
  147MOL     H617818   1.994   5.832   3.334  0.1612  0.7442 -1.0376
  147MOL     H717819   1.825   5.927   3.170  3.0413  1.1815 -3.2269
  147MOL     C817820   1.797   5.856   3.436  0.3555 -0.6660 -0.1442
  147MOL     F917821   1.737   5.952   3.507  0.2657  0.5863 -0.0899
  147MOL    F1017822   1.710   5.801   3.350  0.4578  0.1442  0.8305
  147MOL    C1117823   1.842   5.751   3.541 -0.7478 -0.5317 -0.2178
  147MOL    H1217824   1.927   5.790   3.596 -1.3516  1.1200 -0.4241
  147MOL    H1317825   1.884   5.668   3.485 -1.6606 -3.0668  2.7131
  147MOL    C1417826   1.734   5.697   3.627  0.0267 -0.1072  0.4691
  147MOL    F1517827   1.697   5.781   3.721 -0.1811 -0.4919  0.1373
  147MOL    F1617828   1.638   5.661   3.537  0.6693  0.2117 -0.1736
  147MOL    C1717829   1.786   5.579   3.717 -0.3198  0.0109  0.8322
  147MOL    H1817830   1.879   5.605   3.766 -0.3449  0.8034  0.4762
  147MOL    H1917831   1.818   5.504   3.645 -1.2213  1.3323 -0.9854
  147MOL    C2017832   1.681   5.513   3.813  0.1744 -0.6672 -0.4107
  147MOL    F2117833   1.582   5.475   3.733  0.2757 -0.7079 -0.0277
  147MOL    F2217834   1.732   5.398   3.853  0.2569  0.4286 -0.7155
  147MOL    C2317835   1.611   5.587   3.919  0.0443 -0.3608  0.0201
  147MOL    H2417836   1.522   5.540   3.961 -1.0254  1.2267 -0.4039
  147MOL    H2517837   1.570   5.675   3.869  2.5185  1.2101  0.6608
  147MOL    C2617838   1.699   5.649   4.028 -0.2103  0.8838  0.4222
  147MOL    F2717839   1.795   5.722   3.969  0.1167  0.3997 -0.2186
  147MOL    F2817840   1.632   5.736   4.105 -0.3927 -0.0373 -0.9538
  147MOL    C2917841   1.779   5.550   4.117 -0.4868 -0.2679  0.0042
  147MOL    H3017842   1.854   5.600   4.177 -1.6927  0.6109  0.7932
  147MOL    H3117843   1.847   5.486   4.061  0.6447  2.1943 -1.5190
  147MOL    C3217844   1.697   5.466   4.222  0.7689 -0.5007 -0.7614
  147MOL    F3317845   1.615   5.393   4.155 -0.3961 -0.7381  0.2985
  147MOL    F3417846   1.794   5.394   4.282  0.5799  0.1180 -0.6635
  147MOL    C3517847   1.610   5.538   4.324  0.8425 -0.3670 -0.1767
  147MOL    H3617848   1.555   5.465   4.384  2.1725 -2.0323 -0.9367
  147MOL    H3717849   1.528   5.600   4.287  1.0732 -0.9474 -1.6922
  147MOL    C3817850   1.685   5.628   4.429 -0.1374  0.9730 -0.0262
  147MOL    F3917851   1.775   5.555   4.499  0.3293 -0.4213 -0.2633
  147MOL    F4017852   1.754   5.714   4.351 -0.1706  0.2782  0.1350
  147MOL    C4117853   1.591   5.714   4.515  0.1042  0.2433 -0.1184
  147MOL    H4217854   1.516   5.751   4.445  0.4585  1.3019  0.0505
  147MOL    H4317855   1.639   5.806   4.549 -1.8376  1.4363 -0.5182
  147MOL    C4417856   1.523   5.642   4.631  0.3330 -0.0204  0.4226
  147MOL    F4517857   1.457   5.530   4.595 -0.6377 -0.2808 -0.4367
  147MOL    F4617858   1.618   5.596   4.715  0.4545  0.0807  0.3475
  147MOL    C4717859   1.430   5.738   4.710 -0.5047 -0.5917 -0.4947
  147MOL    H4817860   1.359   5.767   4.632  0.3776 -0.4754 -1.2582
  147MOL    H4917861   1.476   5.830   4.747 -1.2696  1.3341 -4.1515
  147MOL    C5017862   1.342   5.671   4.819 -0.4242  1.1084  0.1758
  147MOL    F5117863   1.263   5.772   4.861  0.3685 -0.0804 -0.3560
  147MOL    F5217864   1.258   5.582   4.766 -0.4024  0.3385 -0.2461
  147MOL    C5317865   1.416   5.605   4.936  0.7644  0.1912 -0.2372
  147MOL    H5417866   1.484   5.680   4.977  0.6177  0.3572 -0.2975
  147MOL    H5517867   1.483   5.525   4.906 -2.1884 -1.4232 -2.8552
  147MOL    C5617868   1.336   5.561   5.061 -0.5295  0.5435 -0.1046
  147MOL    F5717869   1.423   5.543   5.158 -0.6540 -0.0124 -0.6574
  147MOL    F5817870   1.254   5.651   5.098 -0.0348  0.2289 -0.4201
  147MOL    C5917871   1.263   5.430   5.034 -0.0285 -0.8666 -0.5834
  147MOL    H6017872   1.334   5.356   4.998  1.0302 -1.1716  2.0413
  147MOL    H6117873   1.196   5.454   4.951  0.6941  0.0141 -0.9131
  147MOL    C6217874   1.191   5.372   5.154 -0.3482 -0.1946  0.3983
  147MOL    F6317875   1.278   5.357   5.262  0.1072  0.2328 -0.3624
  147MOL    F6417876   1.106   5.470   5.185 -0.1474  0.2710  0.1667
  147MOL    C6517877   1.104   5.251   5.133  0.5944  0.3612  0.1023
  147MOL    H6617878   1.167   5.162   5.143  1.0419  0.5850 -0.6695
  147MOL    H6717879   1.077   5.241   5.028  2.1141  2.3075 -0.5036
  147MOL    C6817880   0.982   5.231   5.232 -0.0291  0.0543  0.4401
  147MOL    F6917881   1.020   5.232   5.358  0.7562 -0.1755 -0.3193
  147MOL    F7017882   0.903   5.339   5.226  0.6220 -0.3349 -0.0208
  147MOL    C7117883   0.890   5.109   5.210 -0.3824 -0.1645 -0.1777
  147MOL    H7217884   0.802   5.124   5.271  0.9673  0.3065  1.7113
  147MOL    H7317885   0.947   5.023   5.246 -1.0942  0.5966  2.8579
  147MOL    C7417886   0.831   5.081   5.067  0.2289  0.7640 -0.6050
  147MOL    F7517887   0.767   5.198   5.040  0.4882  0.3523 -0.7072
  147MOL    F7617888   0.930   5.066   4.978  0.6272  0.2204  0.2579
  147MOL    C7717889   0.743   4.951   5.054 -0.1772 -0.4730 -0.0739
  147MOL    H7817890   0.668   4.937   5.131 -1.1715  0.8313 -0.7796
  147MOL    H7917891   0.808   4.869   5.083  2.1920  1.3684 -0.0073
  147MOL    C8017892   0.669   4.929   4.917  0.4819 -0.5860  0.8431
  147MOL    F8117893   0.606   4.813   4.927  0.3599  0.4506  0.5645
  147MOL    F8217894   0.588   5.036   4.905  0.6190 -0.3833  0.0374
  147MOL    C8317895   0.751   4.917   4.785  0.4828 -0.7354  0.5476
  147MOL    H8417896   0.813   4.828   4.797  1.6171  0.0878  0.8700
  147MOL    H8517897   0.822   4.998   4.774 -0.3832 -0.1453 -0.8852
  147MOL    C8617898   0.676   4.896   4.650  0.2171  0.9036  0.4016
  147MOL    F8717899   0.764   4.919   4.554  0.3109  0.2150  0.2133
  147MOL    F8817900   0.625   4.776   4.633 -0.7165 -0.4114  0.2024
  147MOL    C8917901   0.564   5.000   4.633  0.2894  0.0690  0.2067
  147MOL    H9017902   0.596   5.097   4.672 -0.5573 -0.0765  1.2939
  147MOL    H9117903   0.486   4.969   4.703  0.0167 -2.3914 -1.1412
  147MOL    C9217904   0.506   5.008   4.492 -1.3405  0.4229  0.3404
  147MOL    F9317905   0.602   5.026   4.396  0.2869  0.4528 -0.3240
  147MOL    F9417906   0.447   4.890   4.471  0.1878  0.2079  0.2009
  147MOL    C9517907   0.401   5.122   4.468  0.2202  0.1417  0.0698
  147MOL    H9617908   0.470   5.202   4.496  1.0263 -0.7948  0.8287
  147MOL    H9717909   0.327   5.119   4.548  0.0748 -1.3364 -0.1130
  147MOL    C9817910   0.322   5.136   4.334 -0.4912 -0.2105  0.6891
  147MOL    F9917911   0.409   5.113   4.239 -0.1175  0.4605  0.3056
  147MOL   F10017912   0.222   5.048   4.327  0.2491 -0.7933 -0.1581
  147MOL   C10117913   0.267   5.283   4.302 -0.3196 -0.0422 -0.5492
  147MOL   H10217914   0.245   5.281   4.196 -0.1399 -1.7192 -0.5728
  147MOL   H10317915   0.352   5.351   4.306  0.1515 -0.5554 -1.7673
  147MOL   C10417916   0.148   5.324   4.377  0.0273  0.1346 -0.1589
  147MOL   F10517917   0.046   5.238   4.364 -0.0928 -0.0528  0.2509
  147MOL   F10617918   0.188   5.333   4.508  0.2226 -0.7219 -0.1017
  147MOL   C10717919   0.090   5.460   4.342 -0.0255 -0.3590  1.1040
  147MOL   H10817920   0.028   5.482   4.428 -1.8052 -2.2521  0.3241
  147MOL   H10917921   0.023   5.447   4.257  0.3356  1.3298  0.5431
  147MOL   C11017922   0.201   5.568   4.309  0.3804 -0.5617  0.4188
  147MOL   F11117923   0.290   5.574   4.410  0.8335  0.3961  0.4426
  147MOL   F11217924   0.254   5.568   4.186  0.2666  0.1990  0.3921
  147MOL   C11317925   0.146   5.714   4.313 -0.9336  0.3578  0.8882
  147MOL   H11417926   0.090   5.732   4.222  0.8108 -2.3710 -0.8055
  147MOL   H11517927   0.227   5.786   4.311 -0.0845 -0.6066  0.3636
  147MOL   C11617928   0.053   5.749   4.432  0.9476  0.8075 -0.1949
  147MOL   F11717929   8.284   5.694   4.411  0.4858  0.9877  0.4845
  147MOL   F11817930   0.082   5.703   4.555  1.2095  0.0701 -0.6065
  147MOL   C11917931   0.025   5.895   4.448 -0.4951 -0.4679 -0.1683
  147MOL   H12017932   8.311   5.919   4.533 -0.2493 -0.9867  0.1706
  147MOL   H12117933   8.324   5.924   4.357  2.9750 -2.3772 -2.8610
  147MOL   H12217934   0.118   5.952   4.452 -0.2177 -0.9438  0.3656
  148MOL     C117935   6.401   4.882   4.298  0.0456  0.8810  0.3345
  148MOL     F217936   6.495   4.802   4.245  0.3977 -0.2051  0.0136
  148MOL     F317937   6.434   5.006   4.251  0.1455  0.3068  0.1036
  148MOL     C417938   6.403   4.866   4.446  0.1406  0.0121  0.0879
  148MOL     H517939   6.490   4.919   4.485  1.5261 -0.7664 -1.8625
  148MOL     H617940   6.415   4.760   4.470  1.3348  0.0049 -0.4938
  148MOL     H717941   6.310   4.855   4.244  0.2990  0.7180 -0.0105
  148MOL     C817942   6.283   4.927   4.515  0.0441 -0.5628 -0.3132
  148MOL     F917943   6.180   4.863   4.463 -0.0159 -0.6749  0.0004
  148MOL    F1017944   6.288   4.895   4.645 -0.2225  0.1446  0.3012
  148MOL    C1117945   6.264   5.084   4.505  0.4909  0.1015 -0.3572
  148MOL    H1217946   6.299   5.116   4.407  0.0040  0.8188 -0.3014
  148MOL    H1317947   6.331   5.129   4.578  0.4034  3.8593 -2.4799
  148MOL    C1417948   6.131   5.120   4.569  0.0778 -0.1416  0.3823
  148MOL    F1517949   6.038   5.057   4.504  0.0484  0.4326  0.3515
  148MOL    F1617950   6.136   5.090   4.699 -0.3432 -0.1808  0.0288
  148MOL    C1717951   6.103   5.267   4.557 -0.1212  0.4338 -0.4491
  148MOL    H1817952   6.120   5.301   4.455  3.9853 -1.8293 -0.6292
  148MOL    H1917953   6.181   5.328   4.604 -1.2035  0.4180  1.3810
  148MOL    C2017954   5.971   5.310   4.627 -0.2144 -0.2996 -0.5864
  148MOL    F2117955   5.971   5.265   4.751  0.6701 -0.3053 -0.0217
  148MOL    F2217956   5.974   5.441   4.631  0.0054 -0.1233 -0.0795
  148MOL    C2317957   5.836   5.268   4.559  1.0817  0.2618 -0.6067
  148MOL    H2417958   5.832   5.160   4.545 -0.3621  0.2861 -0.3829
  148MOL    H2517959   5.832   5.301   4.455  0.7629  0.6299 -0.4781
  148MOL    C2617960   5.698   5.305   4.623  0.4154  0.0142 -0.7237
  148MOL    F2717961   5.695   5.443   4.647  0.3175 -0.4422  0.3843
  148MOL    F2817962   5.595   5.265   4.545  0.0482 -0.0225 -0.2293
  148MOL    C2917963   5.672   5.228   4.751 -1.0559 -0.4330  0.8248
  148MOL    H3017964   5.756   5.247   4.818  0.1689  2.4019 -1.4322
  148MOL    H3117965   5.684   5.120   4.743 -3.0368 -0.5995 -0.1098
  148MOL    C3217966   5.547   5.250   4.820 -0.1052 -0.9679 -0.1852
  148MOL    F3317967   5.450   5.191   4.747  0.0314  0.3960  0.0862
  148MOL    F3417968   5.560   5.180   4.931  0.2526  0.0887 -0.0067
  148MOL    C3517969   5.513   5.400   4.856 -0.4937  0.1517  0.0401
  148MOL    H3617970   5.482   5.443   4.761  0.7638 -0.2004 -0.5482
  148MOL    H3717971   5.608   5.447   4.882  0.4489 -0.8922 -1.4824
  148MOL    C3817972   5.400   5.430   4.959 -0.2403  0.0942  0.4876
  148MOL    F3917973   5.460   5.416   5.079 -0.0220 -0.5443 -0.0809
  148MOL    F4017974   5.373   5.560   4.945 -0.2510  0.1943 -0.1559
  148MOL    C4117975   5.272   5.342   4.941  0.3405 -0.4429  0.4789
  148MOL    H4217976   5.302   5.239   4.957 -1.0430 -0.9466 -0.0417
  148MOL    H4317977   5.258   5.351   4.834  2.5008  3.2593  0.4139
  148MOL    C4417978   5.150   5.389   5.025 -0.3233  0.1564 -0.1142
  148MOL    F4517979   5.100   5.493   4.966  0.0384  0.2941 -0.0755
  148MOL    F4617980   5.055   5.293   5.031  0.3384 -0.1353  0.6034
  148MOL    C4717981   5.181   5.424   5.170 -0.1950  0.0849 -0.2651
  148MOL    H4817982   5.221   5.525   5.179  1.3255 -0.4024 -1.3706
  148MOL    H4917983   5.261   5.362   5.209 -0.1280 -0.1668 -0.8015
  148MOL    C5017984   5.060   5.417   5.275  1.3392 -0.1716  0.8498
  148MOL    F5117985   4.946   5.465   5.221  0.0393  0.6016  0.4109
  148MOL    F5217986   5.043   5.287   5.308 -0.4650 -0.0873 -0.0072
  148MOL    C5317987   5.093   5.485   5.405  0.5271  0.8155 -0.0707
  148MOL    H5417988   5.131   5.587   5.397  1.1144  0.7447  1.6110
  148MOL    H5517989   5.180   5.431   5.444 -0.4429 -0.8247 -0.1573
  148MOL    C5617990   4.977   5.491   5.506 -0.0668  0.0157 -0.7990
  148MOL    F5717991   4.873   5.563   5.458 -0.1216  1.0474  0.5679
  148MOL    F5817992   4.927   5.368   5.524  0.3327  0.0205 -0.3478
  148MOL    C5917993   4.997   5.552   5.652  0.2377 -0.8745 -0.1537
  148MOL    H6017994   5.071   5.493   5.706  0.2474  1.4946  2.5734
  148MOL    H6117995   4.897   5.545   5.695 -0.6008  3.7817 -1.0128
  148MOL    C6217996   5.052   5.694   5.646 -0.6433  0.2399 -0.8385
  148MOL    F6317997   5.171   5.695   5.592 -0.2244  0.6416 -0.2191
  148MOL    F6417998   4.958   5.756   5.567 -0.5644  0.3546 -0.1086
  148MOL    C6517999   5.056   5.757   5.782 -0.3241 -0.6636  0.1030
  148MOL    H6618000   4.953   5.761   5.818  0.0194  0.7697  0.9823
  148MOL    H6718001   5.095   5.858   5.766 -1.0873 -0.4874 -0.7286
  148MOL    C6818002   5.143   5.676   5.889 -0.1843 -0.8913  0.6614
  148MOL    F6918003   5.080   5.561   5.916  0.3281  0.3291  0.2087
  148MOL    F7018004   5.262   5.643   5.828 -0.2067 -0.7947  0.4160
  148MOL    C7118005   5.154   5.743   6.026  0.6298  0.2060  0.4907
  148MOL    H7218006   5.201   5.667   6.088  1.9702  0.4127 -0.2755
  148MOL    H7318007   5.063   5.784   6.071 -0.9611 -1.1115 -1.4307
  148MOL    C7418008   5.254   5.872   6.031 -0.6974  0.3480  0.2397
  148MOL    F7518009   5.223   5.953   5.932 -0.1129 -0.1368 -0.5230
  148MOL    F7618010   5.235   5.950   6.139 -0.3945 -0.3966 -0.0454
  148MOL    C7718011   5.410   5.830   6.024  0.2053 -0.9063 -0.1372
  148MOL    H7818012   5.436   5.786   5.928  2.6859  1.0707 -0.4384
  148MOL    H7918013   5.418   5.753   6.101  0.4005 -1.5209 -0.7621
  148MOL    C8018014   5.512   5.934   6.072  0.6017 -0.1882  0.0730
  148MOL    F8118015   5.514   6.036   5.989 -0.0842  0.4324  0.8314
  148MOL    F8218016   5.489   5.988   6.187 -0.3477  0.1875  0.0056
  148MOL    C8318017   5.653   5.869   6.076  0.1522  0.0532 -0.3272
  148MOL    H8418018   5.675   5.837   5.974 -0.7493 -3.4051  0.4878
  148MOL    H8518019   5.649   5.775   6.132 -1.2869  0.0130 -0.4820
  148MOL    C8618020   5.770   5.936   6.149  0.5746  0.5336 -0.8040
  148MOL    F8718021   5.737   5.953   6.283  0.4336 -0.3615  0.3309
  148MOL    F8818022   5.873   5.850   6.142  0.4840  0.0106  0.3670
  148MOL    C8918023   5.786   6.075   6.083  0.0592 -0.2975 -0.2064
  148MOL    H9018024   5.697   6.135   6.098  0.6365  1.1383 -2.2822
  148MOL    H9118025   5.785   6.063   5.975  0.1345  0.7205 -0.3293
  148MOL    C9218026   5.906   6.162   6.129  0.4885  0.5174 -0.6913
  148MOL    F9318027   5.904   6.182   6.264  0.1325 -0.1487  0.9877
  148MOL    F9418028   6.014   6.086   6.105 -0.1705 -0.4434 -0.2476
  148MOL    C9518029   5.912   6.295   6.060  0.3429  0.5780  0.0580
  148MOL    H9618030   5.822   6.355   6.075  0.7409  1.8075 -2.1610
  148MOL    H9718031   5.911   6.287   5.951 -3.6547 -0.8194  0.1177
  148MOL    C9818032   6.033   6.387   6.087 -0.3450  0.3254  0.4774
  148MOL    F9918033   6.144   6.324   6.064 -0.3671 -0.3782 -0.5110
  148MOL   F10018034   6.026   6.493   6.002 -0.3625 -0.1951  0.3726
  148MOL   C10118035   6.053   6.441   6.234 -0.1490  0.3196 -0.0848
  148MOL   H10218036   6.148   6.492   6.244 -0.1705  0.0596  1.5890
  148MOL   H10318037   6.053   6.351   6.296 -1.2320  0.0075 -0.5353
  148MOL   C10418038   5.954   6.556   6.283 -0.2066  0.3157 -0.5500
  148MOL   F10518039   5.832   6.492   6.284 -0.3104 -0.3421  0.5861
  148MOL   F10618040   5.993   6.575   6.409  0.4377  0.1428  0.0656
  148MOL   C10718041   5.957   6.690   6.203  0.8077  0.1562  0.8457
  148MOL   H10818042   5.917   6.681   6.103 -0.4277  0.7599  1.2816
  148MOL   H10918043   6.062   6.714   6.185  0.1579  0.7243 -2.4461
  148MOL   C11018044   5.894   6.820   6.266  0.3756  0.4111 -0.5469
  148MOL   F11118045   5.967   6.868   6.365 -0.1734 -0.3045 -0.0188
  148MOL   F11218046   5.898   6.911   6.169 -0.5261  0.0192  0.3165
  148MOL   C11318047   5.746   6.788   6.312 -0.1544  0.3593  0.2572
  148MOL   H11418048   5.760   6.706   6.382  0.1452  0.0444 -0.1680
  148MOL   H11518049   5.696   6.742   6.226  0.8414 -2.2321  1.0104
  148MOL   C11618050   5.668   6.909   6.372  0.6081 -0.5687 -0.0455
  148MOL   F11718051   5.556   6.865   6.425 -0.4726 -0.2064 -0.0533
  148MOL   F11818052   5.741   6.963   6.472 -0.2133  0.1602  0.0658
  148MOL   C11918053   5.633   7.023   6.275  0.0534 -0.1294 -0.0718
  148MOL   H12018054   5.573   7.100   6.322 -0.8791 -1.0020  0.1651
  148MOL   H12118055   5.589   7.002   6.177  0.0798 -3.0921  0.4996
  148MOL   H12218056   5.724   7.075   6.243 -0.8900 -1.1176 -4.7647
  149MOL     C118057   0.606   5.362   0.142  0.1107  0.1509 -0.0077
  149MOL     F218058   0.659   5.456   0.217  0.4278 -0.2076 -0.6762
  149MOL     F318059   0.680   5.344   0.030 -0.2688 -0.1395  0.0282
  149MOL     C418060   0.461   5.388   0.100  0.4170  0.6937  0.1498
  149MOL     H518061   0.433   5.321   0.018 -0.5568  1.6015 -0.2789
  149MOL     H618062   0.462   5.488   0.058  2.9660  1.2900  1.5232
  149MOL     H718063   0.619   5.263   0.187  1.0757  1.9954  3.9753
  149MOL     C818064   0.347   5.395   0.206 -0.0327 -0.3151  0.4174
  149MOL     F918065   0.343   5.294   0.285 -0.9267 -0.0051 -0.1222
  149MOL    F1018066   0.359   5.504   0.285 -0.0131  0.0427 -0.1135
  149MOL    C1118067   0.203   5.392   0.146  0.2848  0.2656 -0.5072
  149MOL    H1218068   0.140   5.376   0.233  4.0974 -0.7588  2.1665
  149MOL    H1318069   0.177   5.300   0.093  0.6172 -0.0800 -0.0740
  149MOL    C1418070   0.147   5.514   0.069 -0.3199 -0.1219  0.3352
  149MOL    F1518071   0.227   5.517   8.310 -0.6426 -0.0728  0.3138
  149MOL    F1618072   0.023   5.492   0.030  0.7961  0.1409  0.6802
  149MOL    C1718073   0.149   5.654   0.138  0.3567  0.4473  0.4501
  149MOL    H1818074   0.101   5.719   0.064 -0.6956  0.2022  0.9036
  149MOL    H1918075   0.252   5.685   0.154 -0.3535  2.0826  2.0809
  149MOL    C2018076   0.065   5.660   0.270  0.7372  0.0058 -0.1414
  149MOL    F2118077   8.290   5.622   0.241  0.2720  0.1212 -0.1828
  149MOL    F2218078   0.110   5.567   0.355  0.2781  0.1937 -0.3306
  149MOL    C2318079   0.052   5.800   0.330 -0.2332  1.0610 -0.2790
  149MOL    H2418080   8.331   5.800   0.413  1.9492 -0.9462  1.6669
  149MOL    H2518081   0.000   5.853   0.250  1.0929  1.7226 -0.7085
  149MOL    C2618082   0.175   5.876   0.371  0.0852  0.2132  0.4380
  149MOL    F2718083   0.256   5.784   0.423  0.0291  0.2753 -0.0051
  149MOL    F2818084   0.251   5.928   0.274 -0.4253  0.1292  0.6913
  149MOL    C2918085   0.158   5.984   0.483 -0.3507 -0.2660  0.1175
  149MOL    H3018086   0.096   5.929   0.553  0.1156  0.1066  0.8292
  149MOL    H3118087   0.089   6.057   0.440  2.1153  0.1020 -3.4526
  149MOL    C3218088   0.286   6.061   0.533 -0.3716  0.3195 -0.2353
  149MOL    F3318089   0.327   6.145   0.444  0.0032  0.1163  0.4183
  149MOL    F3418090   0.248   6.127   0.645 -0.0734  0.0744  0.0597
  149MOL    C3518091   0.410   5.974   0.568 -0.2520  0.3616 -0.5786
  149MOL    H3618092   0.505   6.027   0.561  0.0152  0.1229  0.9710
  149MOL    H3718093   0.427   5.900   0.490 -0.3674 -0.2146 -0.0592
  149MOL    C3818094   0.409   5.893   0.698 -0.8475  0.1101  0.4879
  149MOL    F3918095   0.284   5.854   0.729 -0.4351  0.0323  0.1898
  149MOL    F4018096   0.489   5.786   0.677  0.2068  0.0227  0.5717
  149MOL    C4118097   0.453   5.963   0.825  0.2150  0.1957  0.6407
  149MOL    H4218098   0.394   6.054   0.827  1.3139  0.9387 -0.1294
  149MOL    H4318099   0.557   5.993   0.819 -0.0852  0.8327 -1.7579
  149MOL    C4418100   0.441   5.885   0.960 -0.3395  0.2341 -0.7912
  149MOL    F4518101   0.313   5.865   1.003 -0.0201 -0.0622 -0.6033
  149MOL    F4618102   0.507   5.768   0.956  0.0825 -0.2001 -0.0975
  149MOL    C4718103   0.491   5.980   1.076 -0.0789  0.3937  0.0408
  149MOL    H4818104   0.427   6.067   1.091  2.6589  2.4170  0.4271
  149MOL    H4918105   0.585   6.030   1.052  0.5650 -1.0688 -0.5731
  149MOL    C5018106   0.511   5.909   1.216  0.1732 -0.0087 -0.1615
  149MOL    F5118107   0.402   5.846   1.251 -0.7925 -0.4175 -0.0620
  149MOL    F5218108   0.610   5.815   1.188  0.1059 -0.3534 -0.0459
  149MOL    C5318109   0.567   6.003   1.329  0.1230 -0.3032 -0.2619
  149MOL    H5418110   0.637   6.075   1.288  0.7927 -1.3630 -0.9977
  149MOL    H5518111   0.627   5.939   1.394  1.4753  0.3601 -0.8362
  149MOL    C5618112   0.454   6.074   1.406 -0.4633  0.1801 -0.7544
  149MOL    F5718113   0.512   6.180   1.461 -0.4379 -0.0244 -0.0090
  149MOL    F5818114   0.366   6.120   1.315 -0.2306 -0.5313  0.0649
  149MOL    C5918115   0.388   5.981   1.510 -0.4939 -0.3477 -0.7490
  149MOL    H6018116   0.457   5.918   1.567 -1.5137  0.0067  0.9079
  149MOL    H6118117   0.320   5.919   1.452 -2.0479 -0.8650  1.5649
  149MOL    C6218118   0.307   6.046   1.619  0.5138  0.4721  0.1041
  149MOL    F6318119   0.267   5.961   1.715 -0.0903 -0.3016 -0.2609
  149MOL    F6418120   0.378   6.133   1.682 -0.3851  0.3129 -0.2009
  149MOL    C6518121   0.180   6.108   1.561  0.1870  0.0994  0.1682
  149MOL    H6618122   0.137   6.025   1.505  0.1185 -1.7570  2.8633
  149MOL    H6718123   0.208   6.183   1.487 -1.6161  0.3538 -0.2699
  149MOL    C6818124   0.083   6.166   1.653  0.3155  0.0663 -0.6166
  149MOL    F6918125   8.325   6.188   1.581  0.2065  0.1828  0.1656
  149MOL    F7018126   0.050   6.086   1.747  0.1090 -0.1078 -0.6199
  149MOL    C7118127   0.123   6.305   1.714  0.0854  0.3274  0.8815
  149MOL    H7218128   0.195   6.311   1.796  2.2647 -0.9214 -0.8809
  149MOL    H7318129   0.029   6.334   1.761 -0.2920  1.2552 -0.4292
  149MOL    C7418130   0.162   6.416   1.617  0.0072 -0.2543  0.2583
  149MOL    F7518131   0.278   6.385   1.545  0.8514 -0.2608 -0.0489
  149MOL    F7618132   0.065   6.436   1.531  0.2576  0.0622 -0.2588
  149MOL    C7718133   0.197   6.544   1.688  0.0418  0.0993  0.3910
  149MOL    H7818134   0.245   6.610   1.616  0.5796 -0.9462 -0.2015
  149MOL    H7918135   0.272   6.512   1.759 -0.7240 -1.8745  0.3328
  149MOL    C8018136   0.081   6.617   1.749 -0.7412 -0.0527 -0.2400
  149MOL    F8118137   8.325   6.627   1.673  0.3634  0.6078 -0.2292
  149MOL    F8218138   0.034   6.550   1.855 -0.0081 -0.5944  0.5897
  149MOL    C8318139   0.124   6.756   1.810  0.6355 -0.1468  0.1133
  149MOL    H8418140   0.173   6.820   1.737 -0.0613 -1.9361 -1.9758
  149MOL    H8518141   0.200   6.735   1.885  0.2683 -0.9056  0.2730
  149MOL    C8618142   0.012   6.842   1.876 -0.0986  0.2233  0.3613
  149MOL    F8718143   8.319   6.778   1.985  0.2446 -0.1406  1.0151
  149MOL    F8818144   0.082   6.949   1.904  0.2389 -0.0212 -0.3183
  149MOL    C8918145   8.246   6.893   1.789  0.0401 -0.6491 -0.4757
  149MOL    H9018146   8.176   6.810   1.779 -1.4456  0.2774  1.8108
  149MOL    H9118147   8.289   6.920   1.693  1.7183  0.1606  0.4665
  149MOL    C9218148   8.176   7.019   1.843 -0.1085 -0.2701  0.6436
  149MOL    F9318149   8.257   7.126   1.839  0.2005  0.1995  0.2716
  149MOL    F9418150   8.076   7.047   1.756 -0.1624  0.1224  0.1239
  149MOL    C9518151   8.130   7.009   1.986  0.0628  0.1606  0.5080
  149MOL    H9618152   8.213   6.996   2.055 -1.1751  0.7354  2.1371
  149MOL    H9718153   8.063   6.924   1.998 -0.6455  0.7245  0.5930
  149MOL    C9818154   8.052   7.132   2.041  1.1490 -0.1750 -0.4087
  149MOL    F9918155   8.138   7.235   2.040  0.7705 -0.1672  0.2926
  149MOL   F10018156   7.943   7.159   1.978  0.7673 -0.3479  0.3388
  149MOL   C10118157   8.007   7.118   2.184 -0.2783  0.1399 -0.4419
  149MOL   H10218158   7.963   7.214   2.210 -0.5895 -0.2709  0.5582
  149MOL   H10318159   8.087   7.092   2.253  0.9435  1.1802 -1.4182
  149MOL   C10418160   7.899   7.007   2.214 -0.0211 -0.3913 -0.0325
  149MOL   F10518161   7.802   7.017   2.127  0.4793 -0.2997 -0.2907
  149MOL   F10618162   7.951   6.882   2.211  0.2790  0.0376  0.0538
  149MOL   C10718163   7.841   7.036   2.354 -0.1263  0.1249 -0.0354
  149MOL   H10818164   7.753   6.972   2.358 -0.1113  0.0277 -1.1008
  149MOL   H10918165   7.804   7.139   2.352  0.3073  0.2763 -0.2451
  149MOL   C11018166   7.915   6.997   2.484 -0.2637 -0.2019 -0.2035
  149MOL   F11118167   7.946   6.867   2.484 -0.1887 -0.3287  0.0477
  149MOL   F11218168   8.032   7.071   2.478 -0.0600 -0.0138  0.5567
  149MOL   C11318169   7.838   7.045   2.612  0.0688  0.1839  0.0596
  149MOL   H11418170   7.743   6.993   2.608  1.1939 -1.9501  0.5514
  149MOL   H11518171   7.816   7.151   2.598 -0.3332 -0.0073 -0.7858
  149MOL   C11618172   7.901   7.015   2.754 -0.3532 -0.3982 -0.1707
  149MOL   F11718173   7.819   7.046   2.850 -0.4517  0.0664  0.3805
  149MOL   F11818174   7.922   6.884   2.758 -0.0079  0.4104  0.1999
  149MOL   C11918175   8.024   7.108   2.775 -0.5398  0.1119  0.7319
  149MOL   H12018176   8.103   7.102   2.701  0.6460 -1.9637  2.1217
  149MOL   H12118177   8.079   7.091   2.867 -1.9881 -2.5954  1.1594
  149MOL   H12218178   7.985   7.209   2.790  3.1185  1.4693  1.6256
  150MOL     C118179   2.195   2.297   2.307 -0.1480 -0.5224  0.1272
  150MOL     F218180   2.158   2.319   2.435 -0.1671 -0.1429 -0.1689
  150MOL     F318181   2.099   2.227   2.244  0.1086  0.1051  0.2503
  150MOL     C418182   2.331   2.241   2.292 -0.2660 -0.0250 -0.3438
  150MOL     H518183   2.356   2.253   2.186 -0.6746 -1.1312 -0.5757
  150MOL     H618184   2.330   2.137   2.323  2.1648 -0.2247 -0.8436
  150MOL     H718185   2.192   2.401   2.273 -0.0189 -0.4493  0.3341
  150MOL     C818186   2.434   2.321   2.382 -0.0124 -0.2681  0.3979
  150MOL     F918187   2.416   2.449   2.339 -0.2908 -0.2312 -0.3883
  150MOL    F1018188   2.401   2.323   2.506  0.1910  0.2480  0.3029
  150MOL    C1118189   2.582   2.267   2.368 -0.7494  0.4456 -0.1364
  150MOL    H1218190   2.627   2.280   2.270  1.6654  0.8560  0.9872
  150MOL    H1318191   2.580   2.159   2.387 -0.9975 -0.0589 -2.8714
  150MOL    C1418192   2.692   2.328   2.460  0.2440 -0.1701 -0.0872
  150MOL    F1518193   2.807   2.279   2.419 -0.4907 -0.0004 -0.1874
  150MOL    F1618194   2.704   2.458   2.429 -0.0154 -0.0988  0.2905
  150MOL    C1718195   2.684   2.320   2.608  0.2667 -0.1221  0.8179
  150MOL    H1818196   2.601   2.390   2.626  0.0536 -0.2160  0.2094
  150MOL    H1918197   2.772   2.367   2.651  1.3217 -0.3021 -1.0941
  150MOL    C2018198   2.664   2.183   2.661  0.7558 -0.1520 -0.3998
  150MOL    F2118199   2.558   2.119   2.618 -0.0049  0.1257  0.2680
  150MOL    F2218200   2.775   2.112   2.625  0.1634 -0.0411 -0.1255
  150MOL    C2318201   2.672   2.174   2.817 -0.5392  0.0982 -0.3514
  150MOL    H2418202   2.610   2.258   2.850  0.0134  2.0980 -4.0711
  150MOL    H2518203   2.775   2.191   2.848  0.3884 -3.1488 -1.4278
  150MOL    C2618204   2.622   2.044   2.877 -0.1351 -0.3854 -0.3055
  150MOL    F2718205   2.689   1.946   2.816 -0.4639 -0.4762 -0.1191
  150MOL    F2818206   2.657   2.042   3.002  0.0800  0.0284 -0.1480
  150MOL    C2918207   2.473   2.004   2.869 -0.0749  0.1052  0.2528
  150MOL    H3018208   2.459   1.914   2.929  0.3238  1.5451  2.5859
  150MOL    H3118209   2.434   1.978   2.771  0.2751 -3.7037  1.0491
  150MOL    C3218210   2.381   2.106   2.939 -0.7196 -0.1189 -0.3037
  150MOL    F3318211   2.444   2.119   3.065  0.4018 -0.4570 -0.2714
  150MOL    F3418212   2.389   2.223   2.877 -0.2377 -0.1529  0.3564
  150MOL    C3518213   2.236   2.048   2.938  0.2166 -0.5967 -0.8275
  150MOL    H3618214   2.225   1.944   2.967 -1.2269 -0.4574 -0.8192
  150MOL    H3718215   2.197   2.061   2.837 -2.1221  1.8656  0.3095
  150MOL    C3818216   2.139   2.115   3.039  0.2563  0.3486  0.5048
  150MOL    F3918217   2.013   2.067   3.022  0.4821  0.1834  0.2879
  150MOL    F4018218   2.182   2.079   3.158  0.4545 -0.1645 -0.1343
  150MOL    C4118219   2.142   2.264   3.045  0.1078  0.1913  0.1396
  150MOL    H4218220   2.249   2.280   3.060 -0.3460  0.6205  3.3570
  150MOL    H4318221   2.104   2.304   3.139  0.2470 -1.6422  1.0065
  150MOL    C4418222   2.070   2.340   2.930  0.0174 -0.1903 -0.7726
  150MOL    F4518223   2.111   2.294   2.809  0.0591 -0.2081 -0.8892
  150MOL    F4618224   1.946   2.314   2.936 -0.0396  0.1729  0.4373
  150MOL    C4718225   2.097   2.499   2.934 -0.1404  0.0397 -0.7889
  150MOL    H4818226   2.205   2.513   2.925 -0.0007 -1.7297 -2.2924
  150MOL    H4918227   2.067   2.538   3.030 -1.8741 -3.4291  0.1510
  150MOL    C5018228   2.021   2.575   2.834 -0.1282  0.0982  0.5755
  150MOL    F5118229   2.060   2.705   2.824  0.1201 -0.3075  0.2026
  150MOL    F5218230   2.035   2.528   2.709  0.4074  0.0099  0.1355
  150MOL    C5318231   1.868   2.573   2.856  0.2973 -0.1733  0.0047
  150MOL    H5418232   1.844   2.554   2.961 -0.2411  0.3567 -0.0201
  150MOL    H5518233   1.832   2.475   2.824 -2.3750  0.1125  1.9138
  150MOL    C5618234   1.762   2.669   2.790  0.2190 -1.1630 -0.5803
  150MOL    F5718235   1.637   2.633   2.818 -0.4753 -0.6706  0.1341
  150MOL    F5818236   1.784   2.785   2.844  0.6959 -0.2907  0.1316
  150MOL    C5918237   1.775   2.695   2.641  0.2035 -0.1704  0.1209
  150MOL    H6018238   1.796   2.598   2.595 -0.2075  0.5590 -1.6741
  150MOL    H6118239   1.866   2.752   2.625 -0.5885  0.9525 -0.4740
  150MOL    C6218240   1.653   2.776   2.569  0.6452 -0.5048 -0.9298
  150MOL    F6318241   1.538   2.701   2.597 -0.1169  0.3152 -0.5224
  150MOL    F6418242   1.650   2.906   2.616  0.2418  0.1492  0.0802
  150MOL    C6518243   1.689   2.777   2.422 -0.4013 -0.1526  0.0417
  150MOL    H6618244   1.688   2.679   2.374  2.5700  0.0901 -0.5841
  150MOL    H6718245   1.794   2.805   2.420 -0.0576 -1.4337  0.0668
  150MOL    C6818246   1.608   2.879   2.332  0.4244  0.3547 -0.0939
  150MOL    F6918247   1.478   2.855   2.351  0.4946 -0.1051 -0.1529
  150MOL    F7018248   1.630   3.006   2.368 -0.1044 -0.1331 -0.1337
  150MOL    C7118249   1.622   2.859   2.179 -0.0958 -0.5165 -0.2099
  150MOL    H7218250   1.546   2.916   2.126  0.5739 -1.0748 -1.7859
  150MOL    H7318251   1.607   2.755   2.150 -1.1802 -0.5707  0.4883
  150MOL    C7418252   1.756   2.894   2.127 -0.1720  0.3977  0.0795
  150MOL    F7518253   1.768   3.020   2.165  0.0388 -0.0335 -0.2302
  150MOL    F7618254   1.857   2.824   2.188  0.2012  0.9252  0.1237
  150MOL    C7718255   1.780   2.881   1.973  1.1891  0.2190  0.3569
  150MOL    H7818256   1.785   2.776   1.945 -0.4928 -0.0034  0.8155
  150MOL    H7918257   1.872   2.934   1.950  1.0918 -0.5904 -2.0450
  150MOL    C8018258   1.663   2.932   1.885 -0.1111  0.6552 -0.0900
  150MOL    F8118259   1.542   2.871   1.915  0.6638  0.4182  0.3404
  150MOL    F8218260   1.646   3.064   1.899  0.3896 -0.0836  0.0385
  150MOL    C8318261   1.687   2.913   1.733  0.0827 -0.5493 -0.1365
  150MOL    H8418262   1.603   2.953   1.675  0.7686 -0.7235 -1.2734
  150MOL    H8518263   1.683   2.806   1.713  0.8899 -0.4272 -0.9895
  150MOL    C8618264   1.822   2.970   1.668 -0.3130 -0.1897 -0.1929
  150MOL    F8718265   1.808   3.098   1.678  0.4367  0.1632 -0.1288
  150MOL    F8818266   1.926   2.938   1.738  0.2080 -0.1088 -0.1314
  150MOL    C8918267   1.843   2.913   1.525  0.3531 -0.4045  0.0254
  150MOL    H9018268   1.765   2.951   1.458  0.8127 -3.0786 -2.1326
  150MOL    H9118269   1.835   2.805   1.525  0.9472 -0.4485  0.1565
  150MOL    C9218270   1.973   2.939   1.453 -0.3303 -0.2338  0.0944
  150MOL    F9318271   2.067   2.850   1.494 -0.1196 -0.0379 -0.4926
  150MOL    F9418272   1.968   2.917   1.325  0.3450 -0.4746  0.1920
  150MOL    C9518273   2.026   3.079   1.477 -0.0444  0.4769 -0.0205
  150MOL    H9618274   2.031   3.091   1.585  0.2674  1.6630 -0.1636
  150MOL    H9718275   1.946   3.143   1.440 -1.1148 -2.2363 -2.6890
  150MOL    C9818276   2.170   3.121   1.413 -0.0829 -0.2083 -1.1015
  150MOL    F9918277   2.202   3.239   1.456  0.0998  0.3516  0.0060
  150MOL   F10018278   2.267   3.039   1.448 -0.2288  0.4785  0.4878
  150MOL   C10118279   2.177   3.131   1.258  0.7048 -0.0931  0.1888
  150MOL   H10218280   2.094   3.196   1.231  2.9721  1.7867 -2.4204
  150MOL   H10318281   2.147   3.038   1.210  1.1712 -0.1935  0.0871
  150MOL   C10418282   2.301   3.183   1.195 -0.2252 -0.5886  0.6568
  150MOL   F10518283   2.396   3.102   1.234 -0.1758 -0.0583  0.4768
  150MOL   F10618284   2.273   3.164   1.063 -0.6777 -0.1747  0.1666
  150MOL   C10718285   2.332   3.320   1.237  0.3911 -0.5583 -0.0382
  150MOL   H10818286   2.375   3.329   1.337  3.0827 -3.2637 -0.8719
  150MOL   H10918287   2.246   3.386   1.246  0.5958 -0.1631 -0.9320
  150MOL   C11018288   2.442   3.375   1.142 -0.1100  0.1460 -0.5478
  150MOL   F11118289   2.384   3.379   1.019 -0.0084 -0.3364 -0.3209
  150MOL   F11218290   2.469   3.495   1.189  0.1940  0.2238 -0.4629
  150MOL   C11318291   2.573   3.299   1.142  0.1275 -0.4572  0.3325
  150MOL   H11418292   2.546   3.216   1.077  0.0319  0.0343 -0.2641
  150MOL   H11518293   2.594   3.247   1.235 -1.2869 -2.2389 -0.3207
  150MOL   C11618294   2.691   3.375   1.085  1.0625 -0.1403 -0.7411
  150MOL   F11718295   2.741   3.463   1.173  0.3169  0.0923 -0.2648
  150MOL   F11818296   2.790   3.294   1.060 -0.0122 -0.0116  0.5622
  150MOL   C11918297   2.670   3.454   0.958 -0.1577 -0.1723 -0.2145
  150MOL   H12018298   2.614   3.547   0.971  2.2656  0.9864  2.4414
  150MOL   H12118299   2.621   3.401   0.877 -2.5016  0.5013  0.7166
  150MOL   H12218300   2.765   3.492   0.920  0.4463 -0.9923  0.4596
  151MOL     C118301   1.416   3.163   5.280 -0.1650  0.2149 -0.3197
  151MOL     F218302   1.444   3.034   5.306 -0.0281 -0.2353 -0.1174
  151MOL     F318303   1.374   3.222   5.393 -0.0038  0.1084  0.5479
  151MOL     C418304   1.311   3.181   5.166 -0.0390  0.1340  0.3601
  151MOL     H518305   1.207   3.166   5.192  0.4515 -2.7492  0.8085
  151MOL     H618306   1.336   3.125   5.076 -0.7853 -0.3691  0.4721
  151MOL     H718307   1.516   3.186   5.244 -0.2060  1.8012  0.5133
  151MOL     C818308   1.309   3.328   5.117  0.3671  0.5487 -0.1984
  151MOL     F918309   1.272   3.392   5.225 -0.2738  0.0687  0.6928
  151MOL    F1018310   1.435   3.364   5.088 -0.3319  0.3571  0.3783
  151MOL    C1118311   1.204   3.352   5.001 -0.5535  0.1068 -0.1579
  151MOL    H1218312   1.108   3.311   5.034 -0.6438  0.2588 -0.2356
  151MOL    H1318313   1.229   3.292   4.914 -0.1617  0.9582 -0.6307
  151MOL    C1418314   1.190   3.494   4.942 -0.2015  0.0261  0.2593
  151MOL    F1518315   1.126   3.471   4.828 -0.1026 -0.3129  0.2721
  151MOL    F1618316   1.118   3.581   5.018 -0.4388 -0.4298  0.4415
  151MOL    C1718317   1.318   3.569   4.920 -0.1893 -0.0364 -0.1988
  151MOL    H1818318   1.392   3.503   4.875 -1.0212 -1.3200  0.3073
  151MOL    H1918319   1.366   3.588   5.016  0.5025 -2.7379  0.0244
  151MOL    C2018320   1.309   3.693   4.823 -0.1860  0.7413  0.5384
  151MOL    F2118321   1.430   3.727   4.793 -0.3918 -0.1190  0.4287
  151MOL    F2218322   1.249   3.651   4.713  0.6777  0.2474  0.2739
  151MOL    C2318323   1.228   3.801   4.872  0.1442 -0.1661 -0.0102
  151MOL    H2418324   1.272   3.823   4.969  0.5919  3.2984 -0.9125
  151MOL    H2518325   1.129   3.768   4.904 -0.6065  1.3669 -0.6716
  151MOL    C2618326   1.209   3.931   4.797 -0.3358  0.4269  0.0640
  151MOL    F2718327   1.131   4.004   4.873 -0.6151 -0.3897  0.4341
  151MOL    F2818328   1.328   3.997   4.796 -0.0902 -0.8021 -0.3141
  151MOL    C2918329   1.151   3.920   4.655 -0.9720  0.2899  0.0654
  151MOL    H3018330   1.067   3.851   4.651 -0.8222  0.0841  0.3871
  151MOL    H3118331   1.229   3.878   4.591 -2.4812  1.9466 -2.9970
  151MOL    C3218332   1.114   4.054   4.585  0.5313 -1.4742 -0.6860
  151MOL    F3318333   1.009   4.124   4.644  0.1038  0.5119  0.3241
  151MOL    F3418334   1.216   4.132   4.576  0.2169 -0.3464 -0.2362
  151MOL    C3518335   1.050   4.039   4.447 -0.3036 -0.1068  0.2748
  151MOL    H3618336   1.036   4.139   4.407 -1.2049 -0.4384 -0.2532
  151MOL    H3718337   0.951   3.998   4.467 -0.8372  1.1004  0.1558
  151MOL    C3818338   1.116   3.952   4.337 -0.3523  0.4136 -0.6062
  151MOL    F3918339   1.247   3.982   4.331 -0.1248  0.4653 -0.0482
  151MOL    F4018340   1.119   3.821   4.369  0.4111 -0.1345  0.3104
  151MOL    C4118341   1.062   3.960   4.194  0.2021 -0.7198  0.6310
  151MOL    H4218342   1.088   3.870   4.138  3.3036  0.8558 -0.6080
  151MOL    H4318343   1.122   4.031   4.136 -1.3370  0.6626  0.7014
  151MOL    C4418344   0.912   3.990   4.167  0.0811 -0.2996 -0.9459
  151MOL    F4518345   0.837   3.913   4.255  0.0890 -0.4130  0.3362
  151MOL    F4618346   0.890   4.116   4.195 -0.3943  0.2159 -0.3795
  151MOL    C4718347   0.861   3.946   4.024  0.0068 -0.0251  0.0769
  151MOL    H4818348   0.894   3.844   4.004  2.8316  0.8782 -0.1261
  151MOL    H4918349   0.906   4.010   3.948  1.3826 -0.9243  0.1147
  151MOL    C5018350   0.710   3.962   4.003  0.2051 -0.9670 -0.1113
  151MOL    F5118351   0.688   3.977   3.880 -0.2901  0.4770  0.2218
  151MOL    F5218352   0.662   3.838   4.021 -0.2155  0.1541 -0.2146
  151MOL    C5318353   0.637   4.088   4.067  0.5097  0.0752 -0.2686
  151MOL    H5418354   0.674   4.181   4.024  0.6171 -0.9406 -2.4326
  151MOL    H5518355   0.665   4.092   4.172  2.1809  1.5875 -0.7477
  151MOL    C5618356   0.482   4.088   4.059 -0.0683 -0.6782 -0.3102
  151MOL    F5718357   0.442   4.117   3.936  0.1503 -0.1257 -0.0062
  151MOL    F5818358   0.431   3.972   4.090 -0.1268 -0.1481 -0.1907
  151MOL    C5918359   0.421   4.192   4.164  0.1215  0.5732 -0.3058
  151MOL    H6018360   0.465   4.291   4.156  2.0101  0.0830  2.9711
  151MOL    H6118361   0.463   4.168   4.262  1.0867 -0.1924 -0.9045
  151MOL    C6218362   0.264   4.203   4.167  0.2006 -0.9348  1.1868
  151MOL    F6318363   0.219   4.202   4.039 -0.0772 -0.0466 -0.1776
  151MOL    F6418364   0.222   4.099   4.227 -0.0010  0.3095  0.5310
  151MOL    C6518365   0.210   4.327   4.239  0.1470 -0.0999  0.3126
  151MOL    H6618366   0.261   4.417   4.205 -0.8436  1.0703  1.8728
  151MOL    H6718367   0.254   4.318   4.338  1.9120 -0.4658 -0.4902
  151MOL    C6818368   0.059   4.358   4.262 -0.2301  0.1826  0.1522
  151MOL    F6918369   0.008   4.262   4.336  0.5979 -0.0176  0.1892
  151MOL    F7018370   0.063   4.473   4.339  0.3366 -0.4192 -0.3524
  151MOL    C7118371   8.323   4.363   4.134  0.0261  0.5676  0.8303
  151MOL    H7218372   8.328   4.273   4.073 -1.2194  1.2759 -0.3438
  151MOL    H7318373   0.012   4.440   4.068 -0.0111 -1.0070 -1.0805
  151MOL    C7418374   8.179   4.410   4.154  0.4551 -0.1165 -0.0447
  151MOL    F7518375   8.126   4.337   4.253 -0.1667 -0.1994 -0.2241
  151MOL    F7618376   8.183   4.538   4.189 -0.2503  0.5032 -0.1596
  151MOL    C7718377   8.088   4.391   4.030 -0.0848  0.4589  0.5277
  151MOL    H7818378   7.993   4.437   4.055 -0.3512  0.5113 -0.5358
  151MOL    H7918379   8.073   4.283   4.026 -1.4143  0.6357  0.8515
  151MOL    C8018380   8.141   4.450   3.899 -0.3846  0.1263 -0.4742
  151MOL    F8118381   8.267   4.400   3.868  0.1776  0.2502  0.1619
  151MOL    F8218382   8.051   4.428   3.807  0.2821  0.2916 -0.4283
  151MOL    C8318383   8.150   4.601   3.904  0.2927 -0.2591 -0.0228
  151MOL    H8418384   8.234   4.624   3.970  0.3810  1.4522 -0.6900
  151MOL    H8518385   8.054   4.643   3.933 -0.1780 -0.8232 -0.7467
  151MOL    C8618386   8.187   4.682   3.776 -0.6039  0.0568 -0.7302
  151MOL    F8718387   8.304   4.638   3.729  0.0051  0.1984  0.0189
  151MOL    F8818388   8.098   4.654   3.677  0.6303  0.8444  0.3084
  151MOL    C8918389   8.188   4.830   3.802  0.0858  0.2846 -0.4169
  151MOL    H9018390   8.088   4.857   3.838  0.1021  0.7005 -0.6746
  151MOL    H9118391   8.177   4.870   3.701  0.0565 -0.1369 -0.5828
  151MOL    C9218392   8.294   4.892   3.894  0.2071  0.1233  0.0596
  151MOL    F9318393   8.270   4.852   4.020  0.2619  0.5187  0.1707
  151MOL    F9418394   0.063   4.851   3.846  0.1647  0.3620 -0.1911
  151MOL    C9518395   8.277   5.046   3.899  0.2423  0.2267 -0.0828
  151MOL    H9618396   8.326   5.083   3.989 -0.0665 -1.5617  0.8370
  151MOL    H9718397   8.171   5.069   3.912  0.6176  0.8196  2.1166
  151MOL    C9818398   0.003   5.131   3.791 -0.1210 -1.0295  0.7195
  151MOL    F9918399   0.138   5.113   3.793  0.3832 -0.0390  0.5613
  151MOL   F10018400   8.315   5.079   3.677  0.1656 -0.0855  0.3102
  151MOL   C10118401   8.304   5.281   3.797 -0.6290  0.2858  0.0577
  151MOL   H10218402   0.017   5.334   3.868  1.4161 -1.5368 -0.3523
  151MOL   H10318403   8.202   5.272   3.835 -1.0199 -0.2341 -1.0754
  151MOL   C10418404   8.309   5.356   3.659  0.5287 -0.7396 -0.1043
  151MOL   F10518405   8.221   5.315   3.563  0.4773  0.1700  0.5511
  151MOL   F10618406   8.261   5.483   3.675 -0.3901  0.3753 -0.2355
  151MOL   C10718407   0.103   5.364   3.592 -0.0264 -0.4235  0.1749
  151MOL   H10818408   0.127   5.259   3.577  0.4857 -0.3298  0.3261
  151MOL   H10918409   0.173   5.398   3.669 -0.3600  0.7314 -0.0237
  151MOL   C11018410   0.118   5.473   3.482 -0.4614 -0.4987 -0.4734
  151MOL   F11118411   0.008   5.457   3.407  0.1526 -0.1333 -0.3097
  151MOL   F11218412   0.120   5.589   3.550  0.4519 -0.1746 -0.1440
  151MOL   C11318413   0.258   5.457   3.418  0.4332  0.2778 -0.5125
  151MOL   H11418414   0.271   5.351   3.397 -1.3920  0.2026 -1.4192
  151MOL   H11518415   0.339   5.475   3.488  1.2865 -2.6238 -0.6734
  151MOL   C11618416   0.279   5.538   3.288 -0.6257  0.3256 -0.5107
  151MOL   F11718417   0.179   5.540   3.211  0.5579 -0.2231  0.0761
  151MOL   F11818418   0.306   5.665   3.325  0.2896  0.0629 -0.1741
  151MOL   C11918419   0.398   5.488   3.200 -0.3159 -0.3253  0.2959
  151MOL   H12018420   0.418   5.545   3.110  0.6651 -0.3635  0.4797
  151MOL   H12118421   0.370   5.391   3.158 -1.1816  0.4755 -1.0087
  151MOL   H12218422   0.489   5.497   3.260  1.4349  2.0123 -2.5905
  152MOL     C118423   0.662   6.020   4.261 -0.0872 -0.0084  0.1019
  152MOL     F218424   0.673   5.888   4.274  0.0457 -0.1983 -0.4599
  152MOL     F318425   0.536   6.054   4.283 -0.0707 -0.0312 -0.3284
  152MOL     C418426   0.699   6.066   4.123  0.5416 -0.8004 -0.3898
  152MOL     H518427   0.707   6.175   4.129  1.1616 -0.8932  0.5196
  152MOL     H618428   0.619   6.042   4.052 -0.0300 -3.7100  1.1883
  152MOL     H718429   0.727   6.063   4.337  2.3800  0.8050 -2.3666
  152MOL     C818430   0.841   6.020   4.079 -0.0707  0.5674 -0.3240
  152MOL     F918431   0.933   6.061   4.164  0.0086  0.1543  0.0222
  152MOL    F1018432   0.856   5.882   4.074 -0.2233 -0.0361  0.0842
  152MOL    C1118433   0.862   6.059   3.935 -0.3574 -0.8584  0.0257
  152MOL    H1218434   0.795   5.998   3.874 -0.5224  0.1411 -0.8022
  152MOL    H1318435   0.958   6.029   3.894  0.6999 -0.6053  2.2261
  152MOL    C1418436   0.859   6.215   3.912 -0.0224  0.0309  0.0839
  152MOL    F1518437   0.736   6.270   3.921  0.3486 -0.2884  0.5933
  152MOL    F1618438   0.930   6.271   4.008  1.0590  0.2931  0.1873
  152MOL    C1718439   0.917   6.271   3.783  0.0272  0.2505 -0.4768
  152MOL    H1818440   1.019   6.235   3.773 -0.1182 -0.4364  0.4780
  152MOL    H1918441   0.924   6.380   3.781 -1.3365  0.3548 -0.5535
  152MOL    C2018442   0.837   6.236   3.652  0.2174 -0.3424 -0.9440
  152MOL    F2118443   0.821   6.110   3.626  0.6601  0.3447 -0.1148
  152MOL    F2218444   0.710   6.274   3.672 -0.0391  0.4431  0.4449
  152MOL    C2318445   0.886   6.310   3.522 -0.3514  0.3955 -0.0864
  152MOL    H2418446   0.805   6.315   3.449  0.3188 -1.5178 -1.0058
  152MOL    H2518447   0.962   6.254   3.468  0.8789  0.9900  1.0312
  152MOL    C2618448   0.937   6.457   3.539  0.6999  0.1887 -0.5971
  152MOL    F2718449   0.841   6.523   3.608  0.1606 -0.0662  0.0472
  152MOL    F2818450   1.052   6.464   3.612 -0.6137  0.1925 -0.1178
  152MOL    C2918451   0.967   6.519   3.391  0.0028  0.5160  0.1116
  152MOL    H3018452   0.999   6.619   3.418 -2.2682  1.9244 -2.1207
  152MOL    H3118453   0.872   6.541   3.341  0.4327  0.1291 -0.9011
  152MOL    C3218454   1.069   6.438   3.310  0.2211  0.4968 -0.5603
  152MOL    F3318455   1.163   6.388   3.390 -0.3319 -0.4244 -0.2699
  152MOL    F3418456   1.016   6.331   3.249 -0.0399 -0.0456  0.3754
  152MOL    C3518457   1.121   6.533   3.194 -0.5206 -0.1060  0.0929
  152MOL    H3618458   1.035   6.571   3.140  0.1492 -1.9624 -2.3717
  152MOL    H3718459   1.178   6.473   3.122  1.1306  0.9680  0.4798
  152MOL    C3818460   1.236   6.632   3.228 -0.6143  0.1883 -0.2196
  152MOL    F3918461   1.202   6.702   3.332 -0.4653  0.4120 -0.2598
  152MOL    F4018462   1.338   6.561   3.270 -0.3333  0.0400 -0.1847
  152MOL    C4118463   1.259   6.742   3.125 -0.0140  0.0387  0.1293
  152MOL    H4218464   1.168   6.802   3.117 -1.0001 -1.4607 -0.0634
  152MOL    H4318465   1.271   6.695   3.027  0.0239 -0.3125  0.3016
  152MOL    C4418466   1.379   6.833   3.152 -0.3805  0.4679  0.5281
  152MOL    F4518467   1.491   6.766   3.140 -0.1785 -0.0478  0.1439
  152MOL    F4618468   1.380   6.907   3.037 -0.4316  0.0886  0.3819
  152MOL    C4718469   1.376   6.909   3.286 -0.2422 -0.2019 -0.4146
  152MOL    H4818470   1.395   6.827   3.356  0.9697  1.0354  0.7680
  152MOL    H4918471   1.278   6.952   3.303 -0.3802 -0.7525  0.2150
  152MOL    C5018472   1.493   7.011   3.306  0.4215 -0.3572  0.1898
  152MOL    F5118473   1.617   6.958   3.302  0.6000  0.0603  0.1581
  152MOL    F5218474   1.488   7.103   3.210 -0.1255  0.1466 -0.4038
  152MOL    C5318475   1.492   7.099   3.428 -0.4127 -0.2466 -0.0871
  152MOL    H5418476   1.403   7.161   3.424  1.5863  2.8343  1.1729
  152MOL    H5518477   1.571   7.174   3.429 -0.2574 -0.4128  0.0891
  152MOL    C5618478   1.487   7.023   3.564  0.3413  0.1975 -0.2052
  152MOL    F5718479   1.481   7.120   3.648  0.2782  0.1803  0.7089
  152MOL    F5818480   1.376   6.950   3.577 -0.4748 -0.2868 -0.0047
  152MOL    C5918481   1.607   6.936   3.584 -0.4073 -0.4550  0.8964
  152MOL    H6018482   1.692   7.000   3.558  0.5013 -1.3091  1.6959
  152MOL    H6118483   1.612   6.848   3.520 -0.6157 -1.1779  1.8629
  152MOL    C6218484   1.636   6.896   3.725  0.7474 -0.1361 -0.4587
  152MOL    F6318485   1.648   7.002   3.805  0.0749  0.4211 -0.2600
  152MOL    F6418486   1.541   6.814   3.758  0.4039  0.1403 -0.0570
  152MOL    C6518487   1.769   6.818   3.737 -0.3602  0.6180 -0.1400
  152MOL    H6618488   1.757   6.723   3.684 -2.9725  0.5454  0.5154
  152MOL    H6718489   1.794   6.806   3.843 -0.1974 -0.1332 -0.2577
  152MOL    C6818490   1.884   6.883   3.667  0.1657 -0.4626  0.0935
  152MOL    F6918491   1.873   6.867   3.536 -0.1659 -0.3802  0.8999
  152MOL    F7018492   1.885   7.019   3.691 -0.3097  0.0476  0.3679
  152MOL    C7118493   2.025   6.828   3.703 -0.6739 -0.1886 -1.2989
  152MOL    H7218494   2.056   6.868   3.799 -1.3685 -0.8102 -0.8132
  152MOL    H7318495   2.099   6.872   3.636  0.5658 -0.3880 -0.0817
  152MOL    C7418496   2.052   6.674   3.691 -0.3438  0.2484 -0.2100
  152MOL    F7518497   1.973   6.598   3.774  0.1519 -1.0204 -0.2241
  152MOL    F7618498   2.023   6.631   3.570 -0.4416  0.0639 -0.2386
  152MOL    C7718499   2.194   6.643   3.723  0.0406 -0.2032  0.2125
  152MOL    H7818500   2.205   6.670   3.828  0.6212  0.6782 -0.0727
  152MOL    H7918501   2.256   6.712   3.665  0.2559  0.0285  0.7137
  152MOL    C8018502   2.247   6.501   3.709 -0.6033 -0.5428  0.2601
  152MOL    F8118503   2.378   6.514   3.744  0.6633 -0.2030 -0.0022
  152MOL    F8218504   2.181   6.435   3.804 -0.2166 -0.1562  0.3812
  152MOL    C8318505   2.224   6.427   3.577  0.1669 -0.1915  0.1213
  152MOL    H8418506   2.275   6.483   3.498 -0.9296  1.0854  0.2966
  152MOL    H8518507   2.116   6.426   3.558  0.0616  0.0443  0.7050
  152MOL    C8618508   2.271   6.280   3.585 -0.1672  0.1995 -0.4256
  152MOL    F8718509   2.191   6.203   3.666 -0.3676 -0.5148 -0.5399
  152MOL    F8818510   2.253   6.234   3.459  0.1789 -0.4623  0.2384
  152MOL    C8918511   2.420   6.259   3.635  0.2147  0.4760 -0.3944
  152MOL    H9018512   2.424   6.269   3.743  0.3134 -1.2587 -0.2216
  152MOL    H9118513   2.486   6.336   3.597 -0.4158  0.8427 -0.7644
  152MOL    C9218514   2.487   6.120   3.599  0.1623 -0.5906 -0.0886
  152MOL    F9318515   2.504   6.101   3.468  0.3625 -0.8472 -0.4143
  152MOL    F9418516   2.614   6.129   3.652  0.4350 -0.4417 -0.0476
  152MOL    C9518517   2.413   5.998   3.668 -0.9926 -0.2997  1.2848
  152MOL    H9618518   2.311   5.991   3.631  0.0764 -1.2102 -1.6629
  152MOL    H9718519   2.410   6.025   3.773  2.4380 -0.0687  1.3945
  152MOL    C9818520   2.484   5.864   3.650 -0.3157 -0.7538  0.2080
  152MOL    F9918521   2.605   5.862   3.694  0.3598  0.0195 -0.1542
  152MOL   F10018522   2.409   5.770   3.716  0.0260  0.7952  0.0941
  152MOL   C10118523   2.501   5.808   3.502 -0.4040  0.0886 -0.2921
  152MOL   H10218524   2.536   5.706   3.517  2.4179  1.1956  1.0271
  152MOL   H10318525   2.568   5.867   3.441  1.5440 -0.2532  1.4613
  152MOL   C10418526   2.377   5.785   3.425  0.4503  0.4841 -0.3449
  152MOL   F10518527   2.282   5.727   3.495  0.5399 -0.2335  0.0941
  152MOL   F10618528   2.319   5.901   3.387 -0.1312 -0.2355 -0.0033
  152MOL   C10718529   2.397   5.704   3.296 -0.0588 -0.0770 -0.2162
  152MOL   H10818530   2.298   5.692   3.253 -0.8894  1.1124  1.3324
  152MOL   H10918531   2.440   5.608   3.323 -0.6701 -0.4546 -0.5771
  152MOL   C11018532   2.479   5.758   3.181 -0.3495 -0.0322 -0.6911
  152MOL   F11118533   2.421   5.867   3.133 -0.4502 -0.2953 -0.2884
  152MOL   F11218534   2.597   5.805   3.225  0.0623 -0.1302 -0.0370
  152MOL   C11318535   2.495   5.662   3.062  0.5026  0.4936 -0.4228
  152MOL   H11418536   2.557   5.578   3.094  0.5879  1.6432  2.5711
  152MOL   H11518537   2.549   5.723   2.990  0.1851 -0.3173 -1.3691
  152MOL   C11618538   2.366   5.603   3.002 -0.8269 -0.0548  0.3003
  152MOL   F11718539   2.314   5.521   3.094  0.6427 -0.0684 -0.5077
  152MOL   F11818540   2.279   5.707   2.970  0.5504 -0.0704 -0.1633
  152MOL   C11918541   2.406   5.516   2.884 -0.1392 -0.2415  0.0757
  152MOL   H12018542   2.445   5.588   2.811  0.1273 -1.1054 -0.6333
  152MOL   H12118543   2.315   5.475   2.839 -0.6086 -2.4376  2.8885
  152MOL   H12218544   2.478   5.436   2.896 -0.4035 -0.6232 -0.8563
  153MOL     C118545   6.519   3.341   6.472  0.0590  0.2294  0.5086
  153MOL     F218546   6.514   3.320   6.339 -0.2867 -0.4642  0.5653
  153MOL     F318547   6.429   3.273   6.539 -0.1653 -0.1881  0.4756
  153MOL     C418548   6.507   3.489   6.491 -0.3109 -0.3148  0.1688
  153MOL     H518549   6.546   3.509   6.591  0.1066  1.0435 -0.2454
  153MOL     H618550   6.406   3.528   6.497 -0.0286  0.7660 -1.6944
  153MOL     H718551   6.619   3.314   6.507  0.7425  2.3596  0.2945
  153MOL     C818552   6.586   3.582   6.398  0.0552 -0.5694  0.3987
  153MOL     F918553   6.565   3.704   6.439  0.2194 -0.3348  0.1169
  153MOL    F1018554   6.714   3.548   6.408 -0.2486 -0.4145  0.0555
  153MOL    C1118555   6.542   3.568   6.255  0.0516  0.2579 -0.2611
  153MOL    H1218556   6.438   3.535   6.253 -0.0210  0.5171 -0.6947
  153MOL    H1318557   6.607   3.496   6.206 -1.3693 -0.6035 -0.8883
  153MOL    C1418558   6.545   3.692   6.162 -0.0333  0.1170  0.0009
  153MOL    F1518559   6.512   3.650   6.044  0.5189  0.0774  0.2554
  153MOL    F1618560   6.446   3.774   6.204 -0.2324  0.0057  0.3221
  153MOL    C1718561   6.687   3.763   6.145 -0.0329 -0.3393  0.5707
  153MOL    H1818562   6.772   3.701   6.173  0.8258  0.7817  0.4599
  153MOL    H1918563   6.700   3.841   6.219  1.0993  0.8116 -0.8104
  153MOL    C2018564   6.737   3.818   6.005  0.2693  0.4451 -0.4480
  153MOL    F2118565   6.858   3.880   6.032  0.1428  0.3729 -0.0330
  153MOL    F2218566   6.752   3.711   5.929  0.1463  0.1499 -0.6837
  153MOL    C2318567   6.648   3.919   5.935  0.3899 -0.1521  0.1039
  153MOL    H2418568   6.649   4.004   6.003 -2.2152  0.4684 -0.5688
  153MOL    H2518569   6.544   3.888   5.919  1.1790 -1.8499 -1.9330
  153MOL    C2618570   6.704   3.979   5.803 -0.2247 -0.1707  0.6673
  153MOL    F2718571   6.651   4.097   5.762  0.5799 -0.0244  0.2309
  153MOL    F2818572   6.830   4.010   5.824 -0.5155  0.2599 -0.0055
  153MOL    C2918573   6.709   3.884   5.679  0.0730 -0.1687  0.6837
  153MOL    H3018574   6.765   3.794   5.703 -1.3768 -1.8367 -1.9332
  153MOL    H3118575   6.758   3.930   5.593 -0.7284 -0.1666  0.2230
  153MOL    C3218576   6.581   3.820   5.624  0.1920  0.3233  0.4149
  153MOL    F3318577   6.545   3.732   5.716 -0.1563  0.0914 -0.0258
  153MOL    F3418578   6.484   3.910   5.620 -0.3683 -0.2815  0.5506
  153MOL    C3518579   6.591   3.751   5.486  0.5473  0.1636  0.0016
  153MOL    H3618580   6.599   3.824   5.406 -1.8378 -0.5560 -0.9087
  153MOL    H3718581   6.498   3.698   5.465 -0.9009  3.0342 -1.1215
  153MOL    C3818582   6.706   3.648   5.488  0.2536  0.4664  0.7821
  153MOL    F3918583   6.824   3.704   5.500  0.5415  0.3954  0.0332
  153MOL    F4018584   6.684   3.557   5.587  0.2419  0.2273  0.3905
  153MOL    C4118585   6.715   3.564   5.359  0.2728 -0.1494  0.3247
  153MOL    H4218586   6.617   3.515   5.352  0.5916 -0.7056 -0.2485
  153MOL    H4318587   6.782   3.484   5.392 -0.7839 -0.9518  0.5868
  153MOL    C4418588   6.772   3.634   5.235 -0.4199  0.0640  0.6156
  153MOL    F4518589   6.713   3.757   5.218 -0.2940 -0.3506 -0.0583
  153MOL    F4618590   6.902   3.644   5.251 -0.4134 -0.2362 -0.6395
  153MOL    C4718591   6.748   3.553   5.107  0.3769 -0.1499  0.0374
  153MOL    H4818592   6.641   3.553   5.088  0.5096 -0.7083 -0.7801
  153MOL    H4918593   6.781   3.450   5.125 -0.6665 -0.0311  2.9234
  153MOL    C5018594   6.807   3.611   4.978 -0.5076 -1.0973 -0.2460
  153MOL    F5118595   6.751   3.536   4.886  0.1279 -0.1749 -0.0591
  153MOL    F5218596   6.734   3.728   4.961 -0.1004  0.0863  0.5021
  153MOL    C5318597   6.967   3.636   4.974  0.1455  0.3524  0.0211
  153MOL    H5418598   7.023   3.560   5.029  0.7403  1.4343  0.9379
  153MOL    H5518599   6.987   3.728   5.029 -1.9702  0.7050  0.2534
  153MOL    C5618600   7.044   3.631   4.839  0.2757  0.0615  0.5590
  153MOL    F5718601   6.990   3.727   4.765 -0.1964 -0.2187 -0.2633
  153MOL    F5818602   7.169   3.659   4.852 -0.0620  0.2816  0.2225
  153MOL    C5918603   7.038   3.495   4.768 -0.0063 -0.6509  0.1044
  153MOL    H6018604   6.933   3.474   4.747  0.3365 -0.4526 -1.9343
  153MOL    H6118605   7.071   3.417   4.837  2.5745  0.4869  0.1890
  153MOL    C6218606   7.132   3.471   4.648 -0.1135 -0.3652  0.5521
  153MOL    F6318607   7.260   3.481   4.666  0.2322  0.1648 -0.4718
  153MOL    F6418608   7.112   3.343   4.610  0.4317  0.6111  0.3155
  153MOL    C6518609   7.113   3.567   4.532 -0.2080 -1.1526 -0.2258
  153MOL    H6618610   7.180   3.532   4.454 -0.6721 -1.0606 -0.6663
  153MOL    H6718611   7.146   3.661   4.577  1.4601 -2.1929  0.7993
  153MOL    C6818612   6.967   3.577   4.465 -0.6377  0.0963 -0.1585
  153MOL    F6918613   6.884   3.642   4.549 -0.1361  0.2666  0.1140
  153MOL    F7018614   6.977   3.652   4.360  0.1803 -0.1656  0.6277
  153MOL    C7118615   6.898   3.449   4.428  0.5605  0.1125 -0.3444
  153MOL    H7218616   6.800   3.476   4.389 -1.3033 -1.2862  3.1050
  153MOL    H7318617   6.884   3.395   4.522 -2.5841  0.5013 -0.5298
  153MOL    C7418618   6.962   3.359   4.320 -0.5313 -0.1544 -0.3005
  153MOL    F7518619   6.962   3.443   4.206  0.4608  0.9026 -0.3708
  153MOL    F7618620   7.085   3.327   4.361  0.2216  0.1398  0.0384
  153MOL    C7718621   6.888   3.226   4.276 -0.4511  0.3336 -0.1401
  153MOL    H7818622   6.870   3.156   4.357  3.0502 -1.3615 -0.7328
  153MOL    H7918623   6.954   3.174   4.207  0.9178 -0.1113  1.4714
  153MOL    C8018624   6.752   3.259   4.214  0.2867  0.1516 -0.1856
  153MOL    F8118625   6.681   3.311   4.317 -0.4210  0.2747  0.1863
  153MOL    F8218626   6.748   3.345   4.108  0.3596  0.2924  0.1432
  153MOL    C8318627   6.669   3.131   4.181  0.3572 -0.9579  0.0779
  153MOL    H8418628   6.688   3.061   4.262 -0.1569  1.0457  1.9964
  153MOL    H8518629   6.706   3.089   4.087  1.5032 -0.3085  0.2326
  153MOL    C8618630   6.518   3.160   4.168  1.0834  0.1061 -0.4465
  153MOL    F8718631   6.467   3.042   4.149 -0.2513  0.2523 -0.1783
  153MOL    F8818632   6.456   3.202   4.276  0.6294  0.0350  0.3479
  153MOL    C8918633   6.476   3.250   4.052  0.2594 -0.0937  0.0801
  153MOL    H9018634   6.518   3.199   3.965  0.9773 -1.1870  1.0629
  153MOL    H9118635   6.526   3.346   4.066 -1.7103  1.0285 -0.2922
  153MOL    C9218636   6.321   3.273   4.054 -0.0796 -0.7569  1.0378
  153MOL    F9318637   6.264   3.152   4.059  0.0202 -0.5179 -0.0420
  153MOL    F9418638   6.284   3.346   4.156 -0.1586  0.5739 -0.0214
  153MOL    C9518639   6.258   3.338   3.934 -0.4629  0.4297 -1.0054
  153MOL    H9618640   6.279   3.263   3.857 -3.4657  0.3563 -1.8321
  153MOL    H9718641   6.313   3.430   3.915 -0.8700  0.4956 -1.9215
  153MOL    C9818642   6.110   3.370   3.924 -0.0783  0.2012 -0.6399
  153MOL    F9918643   6.037   3.269   3.958 -0.3993 -0.4608 -0.3726
  153MOL   F10018644   6.097   3.467   4.013  0.7364 -0.7655 -0.0140
  153MOL   C10118645   6.078   3.427   3.777  0.4626  0.1328  0.0514
  153MOL   H10218646   6.093   3.355   3.697 -3.2465 -0.3261 -0.3458
  153MOL   H10318647   6.142   3.512   3.752 -1.7815  1.3731 -1.7920
  153MOL   C10418648   5.929   3.467   3.764 -0.2112 -0.2308 -0.7663
  153MOL   F10518649   5.839   3.367   3.793 -0.3941 -0.0477 -0.3021
  153MOL   F10618650   5.892   3.557   3.861 -0.1175  0.0511  0.3283
  153MOL   C10718651   5.898   3.537   3.634  0.5112  0.4405 -0.5679
  153MOL   H10818652   5.934   3.640   3.636 -2.1651  1.4086 -0.3794
  153MOL   H10918653   5.790   3.550   3.629  0.7000  3.0667  1.1777
  153MOL   C11018654   5.946   3.476   3.503 -0.1773 -0.1970  0.4866
  153MOL   F11118655   6.076   3.491   3.477  0.4754 -0.3612 -0.1597
  153MOL   F11218656   5.914   3.350   3.509  0.0538 -0.0566  0.1496
  153MOL   C11318657   5.878   3.552   3.380  0.5978  0.0224 -0.4651
  153MOL   H11418658   5.918   3.653   3.376  0.9673  0.0188  2.4888
  153MOL   H11518659   5.771   3.570   3.389  0.8163  0.8440  0.5657
  153MOL   C11618660   5.905   3.488   3.241  0.8654  0.0795 -0.1112
  153MOL   F11718661   5.858   3.570   3.146  0.6226  0.1185 -0.1004
  153MOL   F11818662   6.040   3.481   3.243  0.6846 -0.4856 -0.0522
  153MOL   C11918663   5.829   3.352   3.227  0.6431 -0.5916  0.0454
  153MOL   H12018664   5.824   3.319   3.123  0.5310  0.5941 -0.3383
  153MOL   H12118665   5.726   3.357   3.261  0.5711 -1.8898  0.0424
  153MOL   H12218666   5.865   3.268   3.287  0.4462 -0.4337  0.3880
  154MOL     C118667   0.710   3.440   0.230  0.3059 -0.4569 -0.1911
  154MOL     F218668   0.840   3.435   0.196  0.1063  0.4973  0.1453
  154MOL     F318669   0.701   3.401   0.360 -0.0213 -0.3772  0.2869
  154MOL     C418670   0.625   3.337   0.147  0.0034 -0.0585 -0.4169
  154MOL     H518671   0.527   3.334   0.196  0.7943  0.2953  1.2075
  154MOL     H618672   0.661   3.234   0.155  0.1661 -0.0396 -0.9139
  154MOL     H718673   0.665   3.538   0.214 -2.3003 -1.3548  1.3399
  154MOL     C818674   0.605   3.380   0.000 -0.4693  0.9442 -0.0397
  154MOL     F918675   0.550   3.282   8.279 -0.4369 -0.1896 -0.4909
  154MOL    F1018676   0.523   3.487   0.006 -0.1314 -0.1141 -0.4941
  154MOL    C1118677   0.735   3.413   8.273  0.6228  0.1322  0.4613
  154MOL    H1218678   0.797   3.324   8.276 -0.0490 -0.3742 -0.4065
  154MOL    H1318679   0.793   3.482   8.335  4.0215 -1.9187 -0.3014
  154MOL    C1418680   0.722   3.460   8.121  0.5547  0.5686 -0.9202
  154MOL    F1518681   0.668   3.363   8.048  0.2464  0.3486  0.3826
  154MOL    F1618682   0.647   3.567   8.130  0.0226  0.2834  0.1985
  154MOL    C1718683   0.856   3.497   8.054  0.1790 -0.7972 -0.2620
  154MOL    H1818684   0.917   3.407   8.063  0.1095 -1.0506 -2.0053
  154MOL    H1918685   0.906   3.566   8.121 -1.4680  1.4893 -1.3135
  154MOL    C2018686   0.837   3.553   7.906 -0.8416 -0.3717  0.3997
  154MOL    F2118687   0.721   3.618   7.892  0.3997 -0.7771 -0.7616
  154MOL    F2218688   0.947   3.626   7.890  0.4489  0.2901  0.3205
  154MOL    C2318689   0.848   3.442   7.807  0.2654  0.2185 -1.0194
  154MOL    H2418690   0.780   3.365   7.845 -1.0713  0.1269 -3.4954
  154MOL    H2518691   0.950   3.407   7.793  0.8899  0.6349  2.1291
  154MOL    C2618692   0.786   3.466   7.661  0.1971 -0.4545 -0.6853
  154MOL    F2718693   0.814   3.353   7.594  0.1751 -0.0376 -0.4911
  154MOL    F2818694   0.653   3.475   7.675 -0.2532  0.6103 -0.2216
  154MOL    C2918695   0.847   3.595   7.591 -0.1748 -0.9113 -0.3257
  154MOL    H3018696   0.955   3.579   7.586  0.4661  2.5096  0.8788
  154MOL    H3118697   0.835   3.671   7.668  1.2449 -0.1618 -0.8306
  154MOL    C3218698   0.774   3.630   7.451 -0.0271  0.4639  0.1631
  154MOL    F3318699   0.785   3.530   7.362 -0.2731 -0.2672  0.2026
  154MOL    F3418700   0.646   3.637   7.475 -0.3651  0.2398 -0.2277
  154MOL    C3518701   0.821   3.764   7.389 -0.5210 -0.2602 -0.3781
  154MOL    H3618702   0.929   3.775   7.378 -0.7296  1.5995 -0.7673
  154MOL    H3718703   0.794   3.842   7.461  1.0321 -1.0770  1.1449
  154MOL    C3818704   0.743   3.799   7.256 -0.0053  0.8398  0.3397
  154MOL    F3918705   0.785   3.708   7.163 -0.3175 -0.1960 -0.2315
  154MOL    F4018706   0.614   3.788   7.271  0.6375  0.1074 -0.1064
  154MOL    C4118707   0.777   3.937   7.195 -0.4436 -0.4049  0.0816
  154MOL    H4218708   0.883   3.964   7.194 -0.6717  0.4706 -1.5174
  154MOL    H4318709   0.738   4.010   7.265 -1.0677 -0.3317 -0.3425
  154MOL    C4418710   0.732   3.983   7.052 -0.4934 -0.3258  0.8070
  154MOL    F4518711   0.750   4.116   7.041  0.5306  0.5276 -0.4676
  154MOL    F4618712   0.816   3.924   6.971 -0.2024 -0.1066 -0.3249
  154MOL    C4718713   0.592   3.940   7.031  0.0018 -0.1964 -0.0253
  154MOL    H4818714   0.536   3.965   7.122 -0.8542  1.9316 -1.1067
  154MOL    H4918715   0.581   3.832   7.036  1.3847 -0.3322  0.4583
  154MOL    C5018716   0.519   4.005   6.908  0.5487 -0.6848 -0.3608
  154MOL    F5118717   0.520   4.134   6.909 -0.2006 -0.2619 -0.1834
  154MOL    F5218718   0.580   3.973   6.794 -0.8380  0.2734 -0.3008
  154MOL    C5318719   0.377   3.955   6.894 -0.3181 -0.6139 -0.2116
  154MOL    H5418720   0.320   3.952   6.987 -1.2644  3.2931 -0.5766
  154MOL    H5518721   0.388   3.850   6.866  1.3503 -0.2995 -0.7426
  154MOL    C5618722   0.291   4.027   6.797 -0.4782  0.4928 -0.6470
  154MOL    F5718723   0.276   4.149   6.855  0.4713  0.2501  0.3851
  154MOL    F5818724   0.344   4.037   6.672 -0.0686  0.4173 -0.6899
  154MOL    C5918725   0.156   3.948   6.784 -0.0881 -1.2019  0.5319
  154MOL    H6018726   0.113   3.919   6.880 -2.1659  0.7390  0.2237
  154MOL    H6118727   0.167   3.853   6.733 -1.0687  0.2715 -2.5202
  154MOL    C6218728   0.044   4.014   6.708  0.7872  0.5365  0.9598
  154MOL    F6318729   8.291   3.937   6.723  0.3478  0.6650  0.6257
  154MOL    F6418730   0.008   4.125   6.779  0.2588  0.3087  0.2099
  154MOL    C6518731   0.070   4.045   6.558 -0.7328  0.1091 -0.4358
  154MOL    H6618732   0.097   3.949   6.513  0.8913  0.7996 -0.9587
  154MOL    H6718733   0.162   4.097   6.533  0.5576 -1.5317  0.7842
  154MOL    C6818734   8.300   4.103   6.487  0.0408  0.4674 -0.8162
  154MOL    F6918735   8.260   4.211   6.545 -0.1278 -0.2482 -0.2716
  154MOL    F7018736   8.344   4.120   6.358 -0.0197  0.0289 -0.1562
  154MOL    C7118737   8.169   4.017   6.477 -0.5530  0.1534 -0.9303
  154MOL    H7218738   8.090   4.075   6.429 -1.1937 -0.8642 -1.1308
  154MOL    H7318739   8.123   4.003   6.574  2.3763 -2.6645  0.1273
  154MOL    C7418740   8.179   3.886   6.401 -0.1163  0.1120  0.4297
  154MOL    F7518741   8.225   3.906   6.280 -0.1213 -0.1598  0.0411
  154MOL    F7618742   8.272   3.815   6.470  0.7744  0.0611 -0.0814
  154MOL    C7718743   8.044   3.802   6.384  0.3251  0.1147  0.0731
  154MOL    H7818744   8.072   3.704   6.344  0.3086 -0.2253  0.8702
  154MOL    H7918745   7.979   3.837   6.304 -0.1085  1.0194  0.8121
  154MOL    C8018746   7.955   3.798   6.521  0.0611 -0.2235 -0.0336
  154MOL    F8118747   8.040   3.795   6.626  0.0593  0.2817  0.6394
  154MOL    F8218748   7.894   3.915   6.525  0.3664 -0.2295  0.6682
  154MOL    C8318749   7.855   3.682   6.512  0.4227 -0.9444  0.1854
  154MOL    H8418750   7.907   3.587   6.523 -0.2025 -1.2387  0.5971
  154MOL    H8518751   7.812   3.689   6.412  1.5265  0.1959 -0.2281
  154MOL    C8618752   7.740   3.694   6.614  0.8396  0.1343  0.1189
  154MOL    F8718753   7.673   3.806   6.582  0.0054  0.1169 -0.7094
  154MOL    F8818754   7.654   3.597   6.575  0.2103  0.3145  0.0897
  154MOL    C8918755   7.772   3.690   6.765 -0.6581  0.3255  0.1462
  154MOL    H9018756   7.851   3.764   6.775 -1.0525  1.0707 -2.0730
  154MOL    H9118757   7.822   3.597   6.793  1.0612  1.3042  0.3820
  154MOL    C9218758   7.657   3.694   6.868 -0.2244 -0.5260  0.1341
  154MOL    F9318759   7.583   3.585   6.840  0.5108 -0.3082 -0.2440
  154MOL    F9418760   7.709   3.690   6.988 -0.3351 -0.1213 -0.0417
  154MOL    C9518761   7.566   3.820   6.864 -0.4973 -0.1447 -0.3970
  154MOL    H9618762   7.516   3.825   6.767  0.2314 -0.8775 -0.8213
  154MOL    H9718763   7.617   3.915   6.854 -0.6348 -0.0539 -0.2364
  154MOL    C9818764   7.467   3.838   6.980  0.7953 -0.2133 -0.1147
  154MOL    F9918765   7.398   3.726   6.979 -0.0695 -0.2601 -0.1401
  154MOL   F10018766   7.534   3.854   7.093 -0.0032  0.2339  0.4098
  154MOL   C10118767   7.365   3.954   6.963  0.3876 -0.4159 -0.1807
  154MOL   H10218768   7.318   3.949   6.865 -1.8732 -3.2419  0.9863
  154MOL   H10318769   7.418   4.047   6.940  0.5212 -0.2665  0.7028
  154MOL   C10418770   7.263   3.982   7.075 -0.8796 -0.1000  0.4395
  154MOL   F10518771   7.175   3.883   7.078  0.2592 -0.3126 -0.3524
  154MOL   F10618772   7.318   3.999   7.200  0.1235  0.3420  0.4308
  154MOL   C10718773   7.186   4.116   7.038  0.0097  0.9253  0.1464
  154MOL   H10818774   7.143   4.102   6.938 -0.1052 -1.2829  0.4941
  154MOL   H10918775   7.257   4.194   7.010 -0.0923 -0.0157 -2.9296
  154MOL   C11018776   7.083   4.165   7.138  0.3423 -0.5081 -0.0096
  154MOL   F11118777   7.146   4.185   7.253  0.0483  0.0792  0.1535
  154MOL   F11218778   7.042   4.283   7.094  0.6701  0.4598  0.1690
  154MOL   C11318779   6.958   4.069   7.135 -0.2248  0.2170 -0.0960
  154MOL   H11418780   6.988   3.973   7.177  1.3517  0.6229 -0.2691
  154MOL   H11518781   6.923   4.045   7.035  0.3349 -0.4008 -0.1496
  154MOL   C11618782   6.839   4.125   7.220 -0.4959 -0.7195 -0.3077
  154MOL   F11718783   6.797   4.240   7.162  0.0301  0.2042 -0.1256
  154MOL   F11818784   6.735   4.045   7.223  0.0420 -0.0200 -0.4355
  154MOL   C11918785   6.868   4.151   7.370  0.0653 -0.0465 -0.2670
  154MOL   H12018786   6.962   4.201   7.388  0.5998  0.1608 -3.4100
  154MOL   H12118787   6.859   4.059   7.429  0.7910  0.6571  0.9440
  154MOL   H12218788   6.792   4.217   7.412  0.4157 -0.5964  1.2434
  155MOL     C118789   6.418   3.420   4.809  0.4422 -0.4130  0.4041
  155MOL     F218790   6.471   3.301   4.830  0.4629 -0.0456 -0.0304
  155MOL     F318791   6.283   3.414   4.821  0.1519 -0.0763  0.3318
  155MOL     C418792   6.457   3.480   4.673  0.6931 -0.0750  0.8341
  155MOL     H518793   6.422   3.410   4.597  1.3159  0.4375  0.0726
  155MOL     H618794   6.565   3.493   4.668  0.4577  2.2486  1.0437
  155MOL     H718795   6.455   3.488   4.885  1.3005 -1.9619  1.4021
  155MOL     C818796   6.396   3.614   4.650 -0.3687  0.1479 -0.6687
  155MOL     F918797   6.262   3.599   4.654 -0.4109 -0.5059  0.0644
  155MOL    F1018798   6.425   3.698   4.752 -0.0938  0.1784 -0.2387
  155MOL    C1118799   6.444   3.688   4.519 -0.4110 -0.4319  0.2931
  155MOL    H1218800   6.545   3.726   4.533 -0.5215 -0.7454  2.0263
  155MOL    H1318801   6.384   3.778   4.502 -1.0371 -1.2894 -2.3408
  155MOL    C1418802   6.432   3.614   4.384  0.0528 -0.0333 -0.0135
  155MOL    F1518803   6.521   3.516   4.390  0.3664 -0.3960 -0.7549
  155MOL    F1618804   6.301   3.578   4.367  0.3941  0.1480 -0.3284
  155MOL    C1718805   6.469   3.697   4.261 -0.4617  0.0550  0.5344
  155MOL    H1818806   6.394   3.772   4.238 -0.9510 -0.6239 -0.0697
  155MOL    H1918807   6.474   3.624   4.181  1.1625 -0.3204  0.9495
  155MOL    C2018808   6.613   3.767   4.245  0.6767  0.6299  0.1609
  155MOL    F2118809   6.609   3.860   4.343  0.0101 -0.0776  0.4210
  155MOL    F2218810   6.705   3.682   4.277  0.1668 -0.5091 -0.0655
  155MOL    C2318811   6.655   3.849   4.115  0.1733 -0.3083 -0.0039
  155MOL    H2418812   6.752   3.896   4.131 -0.4030  0.7701  0.3851
  155MOL    H2518813   6.578   3.925   4.103  0.8688  0.6216  1.3411
  155MOL    C2618814   6.678   3.762   3.989 -0.2855 -0.4966 -0.4011
  155MOL    F2718815   6.574   3.676   3.964  0.3118 -0.0982  0.0864
  155MOL    F2818816   6.687   3.847   3.882  0.2647  0.2938 -0.1169
  155MOL    C2918817   6.815   3.679   3.995  0.1186 -0.0818 -0.4883
  155MOL    H3018818   6.816   3.623   4.088  1.2423 -0.7761 -0.9122
  155MOL    H3118819   6.900   3.747   3.999 -0.5099  0.7578 -1.1596
  155MOL    C3218820   6.821   3.582   3.876  0.2851 -0.5625 -0.6153
  155MOL    F3318821   6.735   3.483   3.878  0.3240 -0.4828  0.3032
  155MOL    F3418822   6.810   3.657   3.773  0.1432  0.0511  0.1947
  155MOL    C3518823   6.955   3.502   3.858  0.4705  0.1332  0.0511
  155MOL    H3618824   6.950   3.444   3.766  2.0419  0.3531 -0.1822
  155MOL    H3718825   6.960   3.424   3.934 -0.9787  1.2210  1.3176
  155MOL    C3818826   7.079   3.584   3.864 -0.4223  0.1033 -0.3856
  155MOL    F3918827   7.058   3.709   3.812  0.3878  0.1372  0.2783
  155MOL    F4018828   7.104   3.613   3.991 -0.7215 -0.6023  0.2599
  155MOL    C4118829   7.200   3.523   3.786  0.6119  0.2663 -0.5521
  155MOL    H4218830   7.275   3.601   3.787 -0.8951  1.7410 -0.4604
  155MOL    H4318831   7.181   3.498   3.681 -1.2800 -0.4952 -0.0508
  155MOL    C4418832   7.260   3.397   3.851  0.2466 -0.2303 -0.1964
  155MOL    F4518833   7.276   3.409   3.982  0.4324 -0.1329  0.1664
  155MOL    F4618834   7.183   3.289   3.815 -0.1992 -0.3175  0.4542
  155MOL    C4718835   7.405   3.354   3.808  0.2660  0.1457  0.2929
  155MOL    H4818836   7.390   3.313   3.708 -2.2982  1.9024 -0.0738
  155MOL    H4918837   7.427   3.266   3.870 -1.2345 -0.7307 -0.3859
  155MOL    C5018838   7.518   3.460   3.833 -0.5274  0.8435  0.8550
  155MOL    F5118839   7.513   3.570   3.761  0.1675 -0.0601  0.0737
  155MOL    F5218840   7.510   3.495   3.959 -0.0192  0.1031 -0.2022
  155MOL    C5318841   7.649   3.391   3.788  0.3071  0.2371  0.6428
  155MOL    H5418842   7.633   3.348   3.689  0.1642 -1.3525  1.3430
  155MOL    H5518843   7.676   3.310   3.855  1.1398  1.2659  1.5817
  155MOL    C5618844   7.774   3.478   3.795  0.1312 -0.8581  0.4691
  155MOL    F5718845   7.876   3.412   3.743 -0.4877 -0.2080 -0.2183
  155MOL    F5818846   7.770   3.584   3.722 -0.2164 -0.4836 -0.0590
  155MOL    C5918847   7.808   3.517   3.942 -0.2997  0.1486  0.3245
  155MOL    H6018848   7.735   3.591   3.972 -1.5832 -0.5548 -0.9858
  155MOL    H6118849   7.901   3.574   3.940  0.3563 -0.9181 -1.8214
  155MOL    C6218850   7.820   3.404   4.044  0.1067  0.0821  0.2114
  155MOL    F6318851   7.704   3.345   4.070  0.2321 -0.1800 -0.3720
  155MOL    F6418852   7.895   3.303   3.996 -0.0038 -0.0514 -0.1637
  155MOL    C6518853   7.871   3.447   4.189  0.1235 -0.1656  0.3842
  155MOL    H6618854   7.979   3.461   4.179  0.1052 -1.1053 -1.2782
  155MOL    H6718855   7.857   3.364   4.259 -0.7129  1.2428  1.9470
  155MOL    C6818856   7.803   3.578   4.244 -0.4360 -0.7411 -0.2323
  155MOL    F6918857   7.856   3.600   4.371  0.1242 -0.2471  0.0464
  155MOL    F7018858   7.845   3.677   4.172  0.2408  0.5131  0.0111
  155MOL    C7118859   7.647   3.580   4.256 -0.3797 -0.1242 -0.2012
  155MOL    H7218860   7.619   3.488   4.307 -1.3788  0.5197  0.4141
  155MOL    H7318861   7.604   3.568   4.156  4.0356  0.1435 -2.2939
  155MOL    C7418862   7.596   3.702   4.338 -0.7809 -0.7437 -0.0216
  155MOL    F7518863   7.635   3.698   4.468  0.5686  0.2423  0.2386
  155MOL    F7618864   7.652   3.814   4.287  0.4880 -0.2496  0.2295
  155MOL    C7718865   7.440   3.712   4.344  0.0730 -0.1156  0.0744
  155MOL    H7818866   7.393   3.625   4.391  1.3551 -0.5034  0.6602
  155MOL    H7918867   7.401   3.721   4.243 -0.7009 -1.4182  0.2305
  155MOL    C8018868   7.394   3.831   4.431  0.4171  0.0586 -0.2302
  155MOL    F8118869   7.434   3.943   4.371  0.4112  0.8969 -0.0561
  155MOL    F8218870   7.265   3.834   4.412 -0.1383 -0.2647 -0.3858
  155MOL    C8318871   7.423   3.819   4.582 -0.5520 -0.2418 -0.1463
  155MOL    H8418872   7.530   3.828   4.602 -0.6954 -0.9744  1.0133
  155MOL    H8518873   7.405   3.715   4.610 -2.5635 -0.2645 -1.4592
  155MOL    C8618874   7.339   3.922   4.671 -0.1968 -0.3621 -0.1187
  155MOL    F8718875   7.221   3.874   4.676  0.5860 -0.1455  0.3310
  155MOL    F8818876   7.383   3.905   4.795 -0.0273 -0.1972 -0.1447
  155MOL    C8918877   7.347   4.069   4.636 -0.0777 -0.6885 -0.0116
  155MOL    H9018878   7.300   4.090   4.540  1.2007  1.5142 -0.1944
  155MOL    H9118879   7.451   4.092   4.613 -1.2576  3.1048 -2.0348
  155MOL    C9218880   7.280   4.175   4.736  0.1938 -0.0740 -0.9605
  155MOL    F9318881   7.262   4.288   4.660 -0.4838 -0.0122  0.0631
  155MOL    F9418882   7.154   4.135   4.777 -0.2488 -0.1015 -0.0934
  155MOL    C9518883   7.374   4.212   4.854  0.0880  0.4986  0.0771
  155MOL    H9618884   7.440   4.291   4.818 -0.7544  0.3151 -1.9177
  155MOL    H9718885   7.426   4.122   4.886  0.6148  1.0159  0.7126
  155MOL    C9818886   7.302   4.269   4.973 -0.4953  0.1061  0.4215
  155MOL    F9918887   7.220   4.175   5.024  0.0359 -0.0561  0.2757
  155MOL   F10018888   7.398   4.298   5.065 -0.0702 -0.5126 -0.0190
  155MOL   C10118889   7.224   4.396   4.936 -0.2870  0.8239 -0.2329
  155MOL   H10218890   7.139   4.373   4.871 -0.4643 -0.1348  0.3281
  155MOL   H10318891   7.297   4.464   4.892  0.5061 -0.4268 -0.9274
  155MOL   C10418892   7.159   4.472   5.054  0.7539  0.1181  0.0878
  155MOL   F10518893   7.255   4.514   5.144 -0.3918  0.2347  0.4108
  155MOL   F10618894   7.111   4.592   5.017  0.3547  0.2635 -0.0617
  155MOL   C10718895   7.048   4.391   5.131  0.3623 -0.6795 -0.1364
  155MOL   H10818896   7.102   4.306   5.173 -0.0152 -2.0028 -2.2346
  155MOL   H10918897   6.972   4.345   5.068 -1.2689 -1.8019  2.5845
  155MOL   C11018898   6.969   4.462   5.235  0.0640  0.8407 -0.0869
  155MOL   F11118899   6.911   4.573   5.184 -0.2075  0.7314  0.8461
  155MOL   F11218900   6.878   4.367   5.271  0.0707 -0.8212  0.0727
  155MOL   C11318901   7.044   4.508   5.359 -0.4236 -0.3383 -1.0558
  155MOL   H11418902   7.074   4.613   5.361 -0.1789 -0.4242  0.9010
  155MOL   H11518903   7.131   4.443   5.351 -1.5568 -1.9950 -0.3211
  155MOL   C11618904   6.978   4.474   5.502 -0.1241 -0.9546  0.5402
  155MOL   F11718905   6.944   4.347   5.529  0.1043 -0.3955 -0.0307
  155MOL   F11818906   7.066   4.517   5.594 -0.3890 -0.5284 -0.1023
  155MOL   C11918907   6.846   4.548   5.522 -0.0087  0.3682 -0.0556
  155MOL   H12018908   6.854   4.657   5.523 -0.9471  0.4367  2.2702
  155MOL   H12118909   6.800   4.510   5.613 -0.3141  1.1574  0.1276
  155MOL   H12218910   6.772   4.517   5.447  0.3880 -2.2655  0.6052
  156MOL     C118911   7.303   8.138   7.099  0.5865  0.4187 -0.3104
  156MOL     F218912   7.365   8.205   7.194  0.1753 -0.5392  0.0835
  156MOL     F318913   7.354   8.182   6.982 -0.1158 -0.4179 -0.5091
  156MOL     C418914   7.155   8.150   7.085  0.3382 -0.0948  0.0821
  156MOL     H518915   7.131   8.126   6.982 -1.1298  1.5101  0.0178
  156MOL     H618916   7.134   8.257   7.084 -0.3548 -0.2216 -2.7735
  156MOL     H718917   7.335   8.034   7.102  2.1600  0.8741 -0.3564
  156MOL     C818918   7.067   8.082   7.192  0.1608  0.6092 -0.0312
  156MOL     F918919   7.117   7.956   7.206 -0.3451 -0.1059  0.0370
  156MOL    F1018920   7.091   8.138   7.304  0.1190  0.7263  0.4479
  156MOL    C1118921   6.910   8.083   7.174  0.1686  0.1377  0.4480
  156MOL    H1218922   6.876   8.180   7.139 -1.4486 -0.6760 -0.2813
  156MOL    H1318923   6.851   8.073   7.265 -0.1850 -1.1817  0.0863
  156MOL    C1418924   6.855   7.976   7.071  0.4370 -0.0986 -0.1936
  156MOL    F1518925   6.733   8.010   7.019  0.0397  0.1923 -0.1735
  156MOL    F1618926   6.934   7.970   6.967  0.2309 -0.2970  0.0097
  156MOL    C1718927   6.852   7.831   7.130  0.3280 -0.0620 -0.4124
  156MOL    H1818928   6.782   7.819   7.212 -0.2508 -0.5305 -0.9630
  156MOL    H1918929   6.947   7.813   7.179  1.0280 -0.5709 -1.9319
  156MOL    C2018930   6.829   7.705   7.043  0.2141 -0.3293 -0.0038
  156MOL    F2118931   6.931   7.701   6.958  0.1817 -0.3962 -0.0824
  156MOL    F2218932   6.841   7.596   7.110 -0.1123 -0.7114  0.1431
  156MOL    C2318933   6.692   7.698   6.974  0.9303  0.2425 -0.8349
  156MOL    H2418934   6.675   7.597   6.937  0.0125  0.6367 -1.5180
  156MOL    H2518935   6.687   7.771   6.893 -1.3452 -0.5123 -1.4131
  156MOL    C2618936   6.565   7.741   7.057  0.7400 -0.2773 -0.2094
  156MOL    F2718937   6.548   7.649   7.147  0.2695  0.0876  0.3519
  156MOL    F2818938   6.572   7.857   7.126  0.5550  0.5864  0.7177
  156MOL    C2918939   6.443   7.747   6.967 -0.4759 -0.1280  0.6293
  156MOL    H3018940   6.469   7.814   6.885 -2.9980  2.1841  1.6455
  156MOL    H3118941   6.377   7.807   7.030  0.8081 -0.8112  2.6927
  156MOL    C3218942   6.377   7.611   6.911  0.3515  0.2015  0.1820
  156MOL    F3318943   6.459   7.565   6.816  0.3298 -0.4109 -0.1261
  156MOL    F3418944   6.375   7.522   7.003 -0.5679  0.3267  0.1096
  156MOL    C3518945   6.227   7.620   6.861  0.4387  0.6991 -0.6284
  156MOL    H3618946   6.169   7.647   6.949 -1.7438 -1.7501 -1.2500
  156MOL    H3718947   6.200   7.516   6.841  1.2794  0.0403  1.5126
  156MOL    C3818948   6.215   7.711   6.740 -0.7399 -0.1012  0.2570
  156MOL    F3918949   6.255   7.838   6.773  0.1087 -0.1857 -0.8097
  156MOL    F4018950   6.290   7.663   6.643 -0.3095 -0.3234 -0.7585
  156MOL    C4118951   6.068   7.716   6.700  0.2112  0.3817 -0.3649
  156MOL    H4218952   6.024   7.762   6.788 -0.9714  1.5162 -1.5416
  156MOL    H4318953   6.034   7.612   6.692  0.1253  0.4353 -0.7257
  156MOL    C4418954   6.034   7.801   6.571 -0.0285 -0.4789 -0.5109
  156MOL    F4518955   6.054   7.936   6.596  0.5508  0.0418 -0.0865
  156MOL    F4618956   6.099   7.766   6.456 -0.3219 -0.2463 -0.0525
  156MOL    C4718957   5.884   7.784   6.541  0.1897 -0.3612  0.1889
  156MOL    H4818958   5.867   7.681   6.510  0.6401 -0.2873 -0.3181
  156MOL    H4918959   5.872   7.824   6.440 -0.4881  0.2882  0.5213
  156MOL    C5018960   5.765   7.833   6.636 -0.1203  0.0520  0.8364
  156MOL    F5118961   5.654   7.791   6.571 -0.0711  0.0093 -0.2690
  156MOL    F5218962   5.775   7.772   6.756 -0.2383  0.2947  0.1204
  156MOL    C5318963   5.758   7.988   6.641  0.4518 -0.2706  0.5095
  156MOL    H5418964   5.734   8.031   6.544  1.5426 -0.4701  0.1371
  156MOL    H5518965   5.850   8.029   6.684 -0.2195  1.7920  0.0260
  156MOL    C5618966   5.651   8.031   6.746 -0.7238 -0.1496 -0.0631
  156MOL    F5718967   5.683   7.989   6.870  0.2873 -0.1554  0.1100
  156MOL    F5818968   5.669   8.171   6.753  0.3889 -0.3466  0.0549
  156MOL    C5918969   5.506   8.006   6.713 -0.0694 -0.1786 -0.0774
  156MOL    H6018970   5.504   7.897   6.713 -1.5585 -0.1585 -0.0552
  156MOL    H6118971   5.495   8.032   6.608  3.3586  0.0198 -0.4553
  156MOL    C6218972   5.391   8.066   6.800 -0.6660  0.3747  0.6081
  156MOL    F6318973   5.399   8.008   6.923  0.0253 -0.3506  0.2008
  156MOL    F6418974   5.409   8.197   6.822 -0.5455 -0.4626  0.7471
  156MOL    C6518975   5.255   8.032   6.745 -0.1580 -0.2309 -0.0745
  156MOL    H6618976   5.238   7.924   6.747 -0.1934 -0.2200  0.1804
  156MOL    H6718977   5.246   8.054   6.639  1.8951 -1.0451 -0.4401
  156MOL    C6818978   5.135   8.086   6.830 -1.1748 -0.1360  0.1082
  156MOL    F6918979   5.154   8.031   6.951  0.2207 -0.6289  0.0506
  156MOL    F7018980   5.138   8.217   6.828  0.3364 -0.2100  0.0875
  156MOL    C7118981   4.996   8.045   6.783  0.3381 -0.0573  0.1226
  156MOL    H7218982   4.985   7.937   6.791 -1.6221  0.1995  1.4836
  156MOL    H7318983   4.989   8.062   6.676 -0.2958 -1.0249  0.0026
  156MOL    C7418984   4.873   8.123   6.846 -0.2647  0.0002  0.0433
  156MOL    F7518985   4.882   8.097   6.977  0.0398  0.1235  0.0521
  156MOL    F7618986   4.878   8.255   6.833  0.1850 -0.0367  0.1265
  156MOL    C7718987   4.731   8.075   6.798  0.2698  0.1243 -0.1770
  156MOL    H7818988   4.664   8.109   6.877 -1.6789  0.1632 -1.8348
  156MOL    H7918989   4.735   7.966   6.805 -1.6572 -0.1866 -3.1698
  156MOL    C8018990   4.695   8.121   6.654  0.2236 -0.1892  0.4092
  156MOL    F8118991   4.802   8.117   6.574 -0.2658 -0.2107 -0.6399
  156MOL    F8218992   4.618   8.023   6.610 -0.5488  0.3685 -0.2260
  156MOL    C8318993   4.629   8.252   6.649 -0.2221  0.2069 -0.0475
  156MOL    H8418994   4.678   8.328   6.710  0.8178 -0.2152 -0.3452
  156MOL    H8518995   4.531   8.246   6.696  0.3893  0.4084  1.2711
  156MOL    C8618996   4.633   8.315   6.506  0.3744 -0.8524 -0.4637
  156MOL    F8718997   4.569   0.085   6.515 -0.1736  0.0663  0.3819
  156MOL    F8818998   4.765   8.343   6.475  0.0954  0.4083 -0.0052
  156MOL    C8918999   4.578   8.234   6.392  0.2241  0.5240 -0.3980
  156MOL    H9019000   4.477   8.206   6.421  1.2201  0.3616  3.1086
  156MOL    H9119001   4.613   8.131   6.389 -0.6887  0.1242  1.8231
  156MOL    C9219002   4.577   8.291   6.251  0.0522 -0.2785 -1.0451
  156MOL    F9319003   4.529   8.206   6.166  0.5728  0.4922 -0.5029
  156MOL    F9419004   4.497   0.039   6.255  0.2497  0.3541  0.0118
  156MOL    C9519005   4.709   8.344   6.189 -0.5013 -0.0361 -0.1817
  156MOL    H9619006   4.785   8.273   6.223  0.1682  0.3131 -0.9192
  156MOL    H9719007   4.736   0.095   6.220  0.9873 -0.8881  1.3904
  156MOL    C9819008   4.696   0.014   6.034 -0.2277  0.5421  0.1802
  156MOL    F9919009   4.715   8.246   5.976 -0.0211  0.3342  0.6374
  156MOL   F10019010   4.574   0.054   6.005  0.0418  0.1294 -0.6540
  156MOL   C10119011   4.804   0.109   5.974  0.2446  0.0151  0.4096
  156MOL   H10219012   4.901   0.088   6.020 -0.1793 -0.9937  0.8515
  156MOL   H10319013   4.762   0.195   6.026  1.8820  2.1238 -1.6632
  156MOL   C10419014   4.811   0.113   5.823 -0.2985 -0.0936 -0.4408
  156MOL   F10519015   4.895   0.009   5.795 -0.0940 -0.5281 -0.0417
  156MOL   F10619016   4.689   0.081   5.772 -0.1270 -0.0896 -0.4632
  156MOL   C10719017   4.873   0.248   5.764  0.6718  0.9536  0.1133
  156MOL   H10819018   4.788   0.317   5.767  0.3643  0.6905 -2.1280
  156MOL   H10919019   4.901   0.225   5.662  0.7399  0.1633  0.3103
  156MOL   C11019020   4.994   0.331   5.828  0.5814 -0.5373  0.0921
  156MOL   F11119021   4.960   0.353   5.957 -0.0150 -0.4182 -0.1474
  156MOL   F11219022   5.099   0.251   5.818  0.0354 -0.1883 -0.4794
  156MOL   C11319023   5.023   0.471   5.761  0.2033  0.3679 -0.1290
  156MOL   H11419024   4.929   0.523   5.780 -0.4594  0.3587 -3.1143
  156MOL   H11519025   5.035   0.460   5.653 -0.7423 -1.7839 -0.0499
  156MOL   C11619026   5.149   0.547   5.822 -0.0412  0.9059  0.1388
  156MOL   F11719027   5.258   0.475   5.803  0.2255 -0.2245 -0.2336
  156MOL   F11819028   5.153   0.651   5.744 -0.3048 -0.0542 -0.3446
  156MOL   C11919029   5.139   0.599   5.967 -0.2423 -0.4281 -0.2833
  156MOL   H12019030   5.232   0.642   6.001  0.3434 -2.4529  0.7602
  156MOL   H12119031   5.117   0.523   6.042  1.0654 -0.0486  0.4790
  156MOL   H12219032   5.059   0.673   5.968 -0.6749 -0.8260 -2.2186
  157MOL     C119033   7.050   1.394   0.518 -0.2254  0.8275 -0.6136
  157MOL     F219034   7.152   1.314   0.503  0.3314 -0.3603  0.6304
  157MOL     F319035   6.935   1.322   0.514  0.4410 -0.2434  0.0366
  157MOL     C419036   7.055   1.508   0.427  0.2417  0.4379 -0.4767
  157MOL     H519037   6.954   1.550   0.425 -0.4179 -1.0687  0.2334
  157MOL     H619038   7.080   1.469   0.329  0.5523 -1.3006  0.2747
  157MOL     H719039   7.048   1.424   0.623  1.6104  1.7970 -0.8212
  157MOL     C819040   7.166   1.607   0.461 -0.0744 -0.1529  0.4519
  157MOL     F919041   7.172   1.633   0.589  0.2456  0.3908  0.3699
  157MOL    F1019042   7.276   1.541   0.423  0.2001 -0.5188 -0.0523
  157MOL    C1119043   7.154   1.735   0.383  0.5705  0.0967 -0.0840
  157MOL    H1219044   7.069   1.798   0.411  0.1685 -0.4047 -0.1741
  157MOL    H1319045   7.149   1.722   0.275 -0.0059 -1.0209  0.0679
  157MOL    C1419046   7.272   1.828   0.414 -0.1154 -0.4190  0.3375
  157MOL    F1519047   7.292   1.845   0.538 -0.2905  0.4247 -0.1641
  157MOL    F1619048   7.386   1.771   0.363  0.8052 -0.0508  0.1940
  157MOL    C1719049   7.267   1.968   0.356 -0.5620  0.3262 -0.2291
  157MOL    H1819050   7.362   2.021   0.368 -0.7472  0.0107  3.0958
  157MOL    H1919051   7.197   2.026   0.417 -1.1723 -1.3984  0.7448
  157MOL    C2019052   7.207   1.973   0.212 -0.0353  0.5312  0.1731
  157MOL    F2119053   7.274   1.887   0.130  0.1241 -0.1597 -0.4779
  157MOL    F2219054   7.075   1.945   0.219  0.2270  0.0607  0.2423
  157MOL    C2319055   7.208   2.108   0.147 -0.0123  0.2219 -0.1961
  157MOL    H2419056   7.121   2.164   0.181  1.1550  1.6512  0.4878
  157MOL    H2519057   7.170   2.087   0.047  1.6705  0.1108 -0.8276
  157MOL    C2619058   7.343   2.186   0.133 -0.3432 -0.0460  0.1534
  157MOL    F2719059   7.311   2.300   0.068 -0.3604 -0.5708 -0.4304
  157MOL    F2819060   7.397   2.220   0.252  0.1191 -0.1180 -0.8861
  157MOL    C2919061   7.459   2.120   0.065  0.4850 -0.4373  0.4640
  157MOL    H3019062   7.476   2.032   0.127 -2.0717 -0.7838  0.7109
  157MOL    H3119063   7.549   2.182   0.072  1.7451 -2.2101  0.4180
  157MOL    C3219064   7.440   2.093   8.261 -0.4567  0.6816 -0.0326
  157MOL    F3319065   7.346   2.008   8.244  0.2819 -0.5087  0.4420
  157MOL    F3419066   7.392   2.201   8.208 -0.1703 -0.0521  0.5165
  157MOL    C3519067   7.566   2.040   8.185  0.2789  0.1046  0.5001
  157MOL    H3619068   7.636   2.124   8.193 -0.8248  0.9108  1.8849
  157MOL    H3719069   7.535   2.034   8.081 -0.0734  0.2605  0.5976
  157MOL    C3819070   7.630   1.914   8.240  0.4307 -0.3907 -0.1945
  157MOL    F3919071   7.654   1.923   0.023 -0.0534  0.0603  0.7642
  157MOL    F4019072   7.541   1.816   8.228 -0.6434 -0.0591 -0.3200
  157MOL    C4119073   7.765   1.877   8.176 -0.7067  0.1894  0.5282
  157MOL    H4219074   7.812   1.800   8.237 -0.9451  1.7977  2.7957
  157MOL    H4319075   7.834   1.961   8.171  1.1262 -1.1740  2.3769
  157MOL    C4419076   7.758   1.806   8.034  0.6916 -0.9755 -0.3392
  157MOL    F4519077   7.674   1.706   8.027 -0.0588  0.0998  0.1805
  157MOL    F4619078   7.723   1.904   7.957  0.2482 -0.2471  0.3232
  157MOL    C4719079   7.898   1.756   7.997  0.7610  0.5290 -0.2899
  157MOL    H4819080   7.920   1.667   8.056 -0.7859  0.2108 -0.1521
  157MOL    H4919081   7.969   1.837   8.012  0.8168  0.9184 -2.4703
  157MOL    C5019082   7.919   1.709   7.849 -0.6451 -0.7396 -0.6378
  157MOL    F5119083   8.035   1.651   7.836  0.5425  0.1441  0.4411
  157MOL    F5219084   7.821   1.619   7.826  0.0161  0.1513  0.1880
  157MOL    C5319085   7.910   1.828   7.742  0.0537  0.2391  0.2157
  157MOL    H5419086   7.822   1.888   7.763 -1.8097 -1.4142 -2.5450
  157MOL    H5519087   7.903   1.785   7.642  2.0281  0.1550  0.1001
  157MOL    C5619088   8.036   1.923   7.736  0.1842  0.2453 -0.6455
  157MOL    F5719089   8.061   1.980   7.855 -0.0426 -0.3162 -0.3196
  157MOL    F5819090   8.146   1.852   7.717  0.0220  0.6031 -0.0554
  157MOL    C5919091   8.040   2.023   7.623  0.0110 -0.5854  0.1554
  157MOL    H6019092   8.054   1.965   7.532  1.1154  2.2545 -1.5450
  157MOL    H6119093   8.125   2.090   7.632 -0.9034  0.6730 -0.3752
  157MOL    C6219094   7.907   2.103   7.603  1.4158  0.1546 -0.2352
  157MOL    F6319095   7.805   2.025   7.566 -0.1322  0.0644  0.3064
  157MOL    F6419096   7.863   2.164   7.717  0.4032  0.2583  0.6024
  157MOL    C6519097   7.925   2.223   7.512  0.1563 -0.3673  0.1204
  157MOL    H6619098   8.012   2.286   7.531  0.4292 -0.5736 -0.4276
  157MOL    H6719099   7.840   2.288   7.530  0.5312  0.1423  0.0864
  157MOL    C6819100   7.934   2.217   7.351  0.5976  0.4320 -0.2527
  157MOL    F6919101   7.939   2.345   7.312  0.0949 -0.3608 -0.2544
  157MOL    F7019102   8.041   2.145   7.310 -0.2123 -0.1041 -0.3691
  157MOL    C7119103   7.804   2.138   7.294 -0.5405 -0.4629  0.1101
  157MOL    H7219104   7.717   2.179   7.344 -0.9896 -2.5609  1.0773
  157MOL    H7319105   7.813   2.031   7.315 -2.4194 -0.9426 -1.3814
  157MOL    C7419106   7.786   2.150   7.141 -0.2765 -0.0529  0.2490
  157MOL    F7519107   7.749   2.275   7.103 -0.4716  0.0103  0.0813
  157MOL    F7619108   7.896   2.103   7.083 -0.4601  0.5293  0.3800
  157MOL    C7719109   7.666   2.064   7.083  0.1948 -0.7607  0.7467
  157MOL    H7819110   7.669   2.069   6.974  2.3298 -1.8052  0.7291
  157MOL    H7919111   7.578   2.118   7.116 -1.0756 -0.1589 -3.3840
  157MOL    C8019112   7.650   1.915   7.127 -0.1847 -1.1090  0.4577
  157MOL    F8119113   7.611   1.900   7.253 -0.0134  0.8182  0.1003
  157MOL    F8219114   7.540   1.888   7.060 -0.9046  0.3739  0.2295
  157MOL    C8319115   7.776   1.839   7.088  0.1222 -0.2392 -0.0009
  157MOL    H8419116   7.857   1.876   7.151 -1.7951 -1.1316  3.1095
  157MOL    H8519117   7.811   1.857   6.987  1.3697  2.9000  0.9114
  157MOL    C8619118   7.764   1.687   7.101  0.1233 -1.0377 -0.2680
  157MOL    F8719119   7.886   1.634   7.096 -0.2410 -0.2743 -0.1963
  157MOL    F8819120   7.720   1.658   7.221 -0.3342 -0.3078  0.3081
  157MOL    C8919121   7.680   1.614   7.009  0.4201  1.0096  0.1728
  157MOL    H9019122   7.578   1.653   7.006  0.2699  0.6239  0.2568
  157MOL    H9119123   7.665   1.510   7.038  0.3312  0.9341 -0.1363
  157MOL    C9219124   7.724   1.615   6.860  0.0135  0.0963  0.5398
  157MOL    F9319125   7.695   1.738   6.822  0.1222 -0.2399 -0.4088
  157MOL    F9419126   7.854   1.597   6.845 -0.2194  0.1868 -0.6219
  157MOL    C9519127   7.641   1.514   6.778  0.4049  0.3947 -0.0007
  157MOL    H9619128   7.540   1.543   6.807 -0.0788 -1.6796  0.4326
  157MOL    H9719129   7.651   1.419   6.830 -2.4387 -0.4450 -0.8542
  157MOL    C9819130   7.662   1.500   6.629 -0.0186 -0.4846  0.4162
  157MOL    F9919131   7.585   1.399   6.609  0.4865 -0.2158  0.2586
  157MOL   F10019132   7.616   1.612   6.580 -0.0446 -0.0372  0.1562
  157MOL   C10119133   7.803   1.465   6.572 -0.1082 -0.0748 -0.4586
  157MOL   H10219134   7.856   1.385   6.624  0.0450 -0.2901 -0.9408
  157MOL   H10319135   7.863   1.552   6.595  1.4376 -0.9147 -1.2490
  157MOL   C10419136   7.814   1.436   6.419  0.1444  0.3864 -0.4370
  157MOL   F10519137   7.727   1.337   6.396  0.1190 -0.2931  0.1608
  157MOL   F10619138   7.787   1.545   6.349  0.0584 -0.3005  0.0524
  157MOL   C10719139   7.954   1.376   6.384 -0.2668  0.5433 -0.1226
  157MOL   H10819140   7.973   1.285   6.440 -0.1234 -0.3057 -1.5488
  157MOL   H10919141   8.032   1.449   6.407 -1.0515  1.0195  1.0644
  157MOL   C11019142   7.984   1.336   6.237  0.2000  0.5739 -0.5359
  157MOL   F11119143   7.877   1.280   6.185 -0.3330 -0.1141 -0.2469
  157MOL   F11219144   8.010   1.448   6.161  0.1209  0.3995  0.0596
  157MOL   C11319145   8.103   1.235   6.231 -0.7833  0.6651  0.1164
  157MOL   H11419146   8.116   1.209   6.126  1.3060 -1.1994  0.7990
  157MOL   H11519147   8.073   1.148   6.290 -2.2538  0.8528 -0.3210
  157MOL   C11619148   8.239   1.289   6.286  0.9570 -0.8060 -0.7255
  157MOL   F11719149   8.267   1.400   6.223 -0.1137  0.0994 -0.3292
  157MOL   F11819150   8.233   1.302   6.419  0.2167  0.1364  0.4904
  157MOL   C11919151   0.006   1.200   6.264  0.0993  0.9059 -0.0681
  157MOL   H12019152   0.098   1.255   6.283  1.1149  0.2018 -2.7047
  157MOL   H12119153   0.012   1.135   6.176 -2.2240  0.4090  0.1048
  157MOL   H12219154   8.349   1.127   6.345  1.6301  2.0104  1.0921
  158MOL     C119155   5.166   4.313   2.178 -0.2370 -0.0876 -0.0539
  158MOL     F219156   5.245   4.396   2.108 -0.0137  0.0261  0.2954
  158MOL     F319157   5.102   4.225   2.095 -0.0925  0.4797 -0.0186
  158MOL     C419158   5.070   4.389   2.269 -0.2068  0.4356 -0.1940
  158MOL     H519159   5.004   4.312   2.310 -0.6743  0.2310 -1.3174
  158MOL     H619160   5.024   4.454   2.195  2.4942 -0.2801 -2.6101
  158MOL     H719161   5.229   4.239   2.227  0.1798 -0.3842 -1.0216
  158MOL     C819162   5.143   4.462   2.380 -0.0801 -0.2702  0.0823
  158MOL     F919163   5.181   4.376   2.474  0.3230 -0.3588 -0.5695
  158MOL    F1019164   5.243   4.534   2.334  0.1050  0.3653  0.1689
  158MOL    C1119165   5.043   4.562   2.460  0.4652  0.0380 -0.8361
  158MOL    H1219166   5.085   4.575   2.560 -2.2468  1.8009  0.1268
  158MOL    H1319167   4.956   4.497   2.470  0.6286 -0.0368  0.1696
  158MOL    C1419168   5.013   4.700   2.398 -0.1873  0.1022  0.3282
  158MOL    F1519169   5.122   4.775   2.395 -0.2145  0.1813 -0.4286
  158MOL    F1619170   4.963   4.691   2.276 -0.3318  0.0073 -0.2290
  158MOL    C1719171   4.912   4.791   2.483  0.1534  0.6210  0.6195
  158MOL    H1819172   4.903   4.876   2.416 -0.6020  0.8487  1.0038
  158MOL    H1919173   4.957   4.818   2.578  0.2491 -1.3780  1.1758
  158MOL    C2019174   4.768   4.742   2.509  0.0697  0.1599  0.2561
  158MOL    F2119175   4.709   4.713   2.390  0.7000  0.3507  0.0195
  158MOL    F2219176   4.777   4.630   2.569 -0.3150  0.2465 -0.6379
  158MOL    C2319177   4.680   4.847   2.581  0.5393 -0.2295 -0.0643
  158MOL    H2419178   4.709   4.860   2.685  1.1388 -0.4187 -0.2096
  158MOL    H2519179   4.579   4.808   2.595  0.1236  1.2918  1.3468
  158MOL    C2619180   4.659   4.989   2.512 -0.0300  0.5545  0.0426
  158MOL    F2719181   4.583   5.057   2.600  0.2131 -0.0545  0.2446
  158MOL    F2819182   4.773   5.051   2.501 -0.0866  0.5506 -0.0407
  158MOL    C2919183   4.586   4.979   2.375 -0.4795 -0.2758 -0.4852
  158MOL    H3019184   4.506   4.906   2.382 -1.7695  0.9550 -2.0283
  158MOL    H3119185   4.657   4.942   2.302 -0.9396 -0.6987 -0.7197
  158MOL    C3219186   4.534   5.120   2.324 -0.5406 -0.3044  0.1944
  158MOL    F3319187   4.442   5.154   2.408  0.7305 -0.4974  0.7933
  158MOL    F3419188   4.640   5.198   2.326 -0.2598  0.3059  0.6158
  158MOL    C3519189   4.475   5.105   2.181  0.3144 -0.4265  0.0709
  158MOL    H3619190   4.401   5.025   2.182  0.6841 -0.9393 -4.1609
  158MOL    H3719191   4.550   5.071   2.109 -2.0381 -2.7913 -1.3357
  158MOL    C3819192   4.420   5.234   2.115 -0.4978 -0.0013 -0.2623
  158MOL    F3919193   4.528   5.319   2.120  0.4036  0.4438 -0.3950
  158MOL    F4019194   4.391   5.213   1.981  0.3771  0.0335  0.6796
  158MOL    C4119195   4.299   5.302   2.184 -0.2922 -0.1492  0.5765
  158MOL    H4219196   4.281   5.387   2.118  0.9838 -1.3992 -1.4235
  158MOL    H4319197   4.335   5.338   2.280  1.4402  0.8131 -0.4081
  158MOL    C4419198   4.176   5.208   2.190 -0.0058 -0.1163 -0.2978
  158MOL    F4519199   4.138   5.181   2.069  0.2433 -0.8021  0.1994
  158MOL    F4619200   4.204   5.100   2.261  0.1635  1.0236 -0.6502
  158MOL    C4719201   4.060   5.276   2.253 -0.0502  0.2599 -0.0343
  158MOL    H4819202   4.024   5.352   2.184 -0.6822 -0.1794 -0.1922
  158MOL    H4919203   4.094   5.321   2.346 -0.7069  0.8731 -0.0854
  158MOL    C5019204   3.939   5.180   2.281 -0.3250 -0.3802  0.1525
  158MOL    F5119205   3.906   5.106   2.176  0.8418 -0.8972  0.6005
  158MOL    F5219206   3.962   5.095   2.380 -0.4057 -0.0635  0.0414
  158MOL    C5319207   3.816   5.270   2.333  0.4945  0.7222 -0.0621
  158MOL    H5419208   3.851   5.347   2.402 -0.4927  1.5688 -0.4875
  158MOL    H5519209   3.753   5.196   2.383  0.3656  0.7674 -0.1548
  158MOL    C5619210   3.724   5.338   2.224  0.1903  0.2600  0.4943
  158MOL    F5719211   3.797   5.422   2.147  0.2420 -0.0275  0.3204
  158MOL    F5819212   3.669   5.248   2.145  0.1562 -0.4024 -0.7135
  158MOL    C5919213   3.606   5.405   2.287 -0.0271 -0.8873  0.2170
  158MOL    H6019214   3.565   5.330   2.355  1.8073 -0.7410  1.5301
  158MOL    H6119215   3.535   5.422   2.206  1.9431  1.8597 -1.0153
  158MOL    C6219216   3.627   5.534   2.362  0.3053 -0.1082 -0.2218
  158MOL    F6319217   3.516   5.562   2.430  0.3932  0.3128  0.5093
  158MOL    F6419218   3.723   5.529   2.459 -0.0766  0.4178 -0.3916
  158MOL    C6519219   3.673   5.652   2.282 -0.1583 -0.1373 -0.5798
  158MOL    H6619220   3.764   5.634   2.224  0.8546 -1.3505  1.3110
  158MOL    H6719221   3.696   5.727   2.359  0.9811 -0.2628 -0.7803
  158MOL    C6819222   3.569   5.717   2.181  0.3536 -0.0779  0.1336
  158MOL    F6919223   3.527   5.634   2.085  0.1484 -0.0082  0.1993
  158MOL    F7019224   3.468   5.755   2.261  0.3043  0.3056 -0.3780
  158MOL    C7119225   3.620   5.844   2.099 -0.4400 -0.2307 -0.1984
  158MOL    H7219226   3.541   5.869   2.029 -1.1423  1.0974  1.0546
  158MOL    H7319227   3.709   5.815   2.042  1.3719 -0.2365  2.5224
  158MOL    C7419228   3.656   5.971   2.177 -0.1769  1.1641 -0.7705
  158MOL    F7519229   3.542   6.019   2.226  0.2915 -0.6716 -0.1483
  158MOL    F7619230   3.737   5.932   2.274 -0.4462 -0.0442  0.3925
  158MOL    C7719231   3.731   6.073   2.088  0.3188  0.6202 -0.4008
  158MOL    H7819232   3.671   6.085   1.998  0.5468 -2.6555 -1.0398
  158MOL    H7919233   3.823   6.023   2.056 -0.5509 -0.8451 -0.6227
  158MOL    C8019234   3.780   6.202   2.156 -0.6051 -0.0042 -0.5349
  158MOL    F8119235   3.664   6.250   2.216 -0.5117  0.3752  0.0907
  158MOL    F8219236   3.866   6.177   2.256 -0.1641 -0.1834  0.1652
  158MOL    C8319237   3.835   6.313   2.063 -0.1781 -0.4706  0.3058
  158MOL    H8419238   3.853   6.407   2.115  0.5193 -0.6705  0.4337
  158MOL    H8519239   3.763   6.328   1.984  0.3458 -0.6834 -0.2173
  158MOL    C8619240   3.970   6.284   1.991 -0.1308 -0.4378 -0.6947
  158MOL    F8719241   3.964   6.165   1.932  0.1705  0.1125  0.2958
  158MOL    F8819242   3.988   6.381   1.897 -0.1900  0.5998 -0.0844
  158MOL    C8919243   4.083   6.285   2.093 -0.4956 -0.4747  0.2114
  158MOL    H9019244   4.068   6.228   2.185  0.0880 -0.5469  0.2601
  158MOL    H9119245   4.094   6.383   2.140 -0.3160  0.1253 -1.0602
  158MOL    C9219246   4.218   6.235   2.034  0.3106 -0.0550  1.0496
  158MOL    F9319247   4.306   6.256   2.133  0.3602  0.3514  0.4864
  158MOL    F9419248   4.211   6.103   2.005 -0.1087 -0.3829  0.4079
  158MOL    C9519249   4.277   6.303   1.909 -0.3101  0.1156 -0.0449
  158MOL    H9619250   4.283   6.411   1.914 -0.0116  0.0931  0.1394
  158MOL    H9719251   4.204   6.287   1.830  0.0318  1.6320 -0.6765
  158MOL    C9819252   4.416   6.254   1.867 -0.0701 -0.2050  0.3098
  158MOL    F9919253   4.428   6.120   1.855 -0.4392  0.0696 -0.2121
  158MOL   F10019254   4.449   6.310   1.750  0.0656 -0.1071  0.5439
  158MOL   C10119255   4.529   6.281   1.969  0.1269 -0.4632 -0.3627
  158MOL   H10219256   4.622   6.230   1.942 -0.2558 -2.4090  1.8764
  158MOL   H10319257   4.504   6.226   2.059  1.7627 -0.6069  0.0107
  158MOL   C10419258   4.572   6.427   2.005 -1.2678  0.4109 -0.5807
  158MOL   F10519259   4.578   6.495   1.892  0.5485  0.2316  0.5160
  158MOL   F10619260   4.478   6.467   2.093 -0.4671  0.1771  0.2251
  158MOL   C10719261   4.713   6.432   2.084  0.1345  0.1550  0.0690
  158MOL   H10819262   4.729   6.537   2.106 -0.1103  0.2615 -0.2639
  158MOL   H10919263   4.798   6.398   2.024  0.6378  1.1106  0.2309
  158MOL   C11019264   4.723   6.367   2.225  0.2968  0.8487  0.0033
  158MOL   F11119265   4.645   6.437   2.302 -0.5842 -0.1649  0.2889
  158MOL   F11219266   4.689   6.237   2.238  0.1132  0.1905  0.7246
  158MOL   C11319267   4.862   6.380   2.290 -1.0634 -0.1039  0.2463
  158MOL   H11419268   4.856   6.356   2.396  1.7905 -2.7642 -0.1327
  158MOL   H11519269   4.901   6.482   2.286  0.8748 -0.8551 -0.4863
  158MOL   C11619270   4.974   6.288   2.234 -0.2197 -0.2126  0.1245
  158MOL   F11719271   4.947   6.159   2.237  0.4010  0.1731  0.3410
  158MOL   F11819272   4.997   6.309   2.109  0.1787 -0.0893  0.7266
  158MOL   C11919273   5.108   6.300   2.314  0.4853 -0.2306  0.1828
  158MOL   H12019274   5.185   6.245   2.258 -0.2365 -3.0617  1.8675
  158MOL   H12119275   5.100   6.249   2.410  0.1435 -0.0609  0.2458
  158MOL   H12219276   5.137   6.405   2.324 -0.4742  0.3617 -2.6721
  159MOL     C119277   4.018   1.781   5.765  0.5877 -0.1752  0.3323
  159MOL     F219278   4.145   1.797   5.734 -1.0962  0.4363 -0.0405
  159MOL     F319279   3.994   1.830   5.890 -0.0429  0.0441 -0.1041
  159MOL     C419280   3.981   1.623   5.778  0.2679 -0.6525  0.1993
  159MOL     H519281   3.888   1.615   5.835 -0.3148  1.1814 -0.4687
  159MOL     H619282   4.058   1.579   5.842  1.1375  1.8866  0.9636
  159MOL     H719283   3.943   1.836   5.708  0.0737 -1.0527  0.1371
  159MOL     C819284   3.979   1.542   5.649 -0.0928  0.1981  0.1460
  159MOL     F919285   3.877   1.585   5.572 -0.5031  0.0454 -0.3948
  159MOL    F1019286   4.094   1.553   5.584  0.3319  0.4715 -0.0171
  159MOL    C1119287   3.959   1.391   5.675 -0.0967 -0.7116 -0.0610
  159MOL    H1219288   3.880   1.378   5.749 -1.3456  2.0083 -0.8728
  159MOL    H1319289   4.046   1.341   5.717 -0.8478 -1.8305  0.2148
  159MOL    C1419290   3.920   1.307   5.555  0.9246  0.0233  0.1754
  159MOL    F1519291   4.020   1.322   5.467  0.7417  0.1601 -0.3254
  159MOL    F1619292   3.914   1.186   5.592 -0.8008  0.3611  0.1868
  159MOL    C1719293   3.779   1.333   5.495  0.2051  0.0774  0.4418
  159MOL    H1819294   3.767   1.435   5.459 -1.8847 -0.0416  0.7132
  159MOL    H1919295   3.706   1.317   5.574 -1.5500  1.1022 -0.9192
  159MOL    C2019296   3.738   1.261   5.359  0.0058  0.2805  0.1010
  159MOL    F2119297   3.618   1.307   5.339  0.3291  0.2172  0.2547
  159MOL    F2219298   3.807   1.313   5.259 -0.0093  0.2698  0.2903
  159MOL    C2319299   3.739   1.111   5.352  0.0885 -0.0779  0.1533
  159MOL    H2419300   3.679   1.068   5.433 -2.3800  1.4223 -0.8288
  159MOL    H2519301   3.845   1.098   5.371  0.6713  3.4199 -0.4225
  159MOL    C2619302   3.690   1.045   5.217  0.1196  0.0795  0.7236
  159MOL    F2719303   3.561   1.073   5.206 -0.4098 -0.5329 -0.3420
  159MOL    F2819304   3.751   1.098   5.112  0.2342 -0.6017  0.0091
  159MOL    C2919305   3.713   0.895   5.200  0.6790 -0.2869  0.4027
  159MOL    H3019306   3.821   0.882   5.205  0.9418  2.1212  1.9099
  159MOL    H3119307   3.679   0.864   5.100 -1.5848 -1.0611  1.3664
  159MOL    C3219308   3.663   0.803   5.309 -0.6237  0.2137  0.5108
  159MOL    F3319309   3.691   0.679   5.270 -0.4252 -0.1099 -0.3252
  159MOL    F3419310   3.733   0.838   5.419  0.6735 -0.8871 -0.1124
  159MOL    C3519311   3.512   0.798   5.337 -0.0583  0.5098  0.2338
  159MOL    H3619312   3.480   0.897   5.369 -1.7074  0.0675  0.0248
  159MOL    H3719313   3.487   0.729   5.418  4.1375 -1.3469  0.0911
  159MOL    C3819314   3.420   0.752   5.222 -0.1358 -0.3781  0.2506
  159MOL    F3919315   3.417   0.841   5.120 -0.0556  0.4497 -0.0232
  159MOL    F4019316   3.465   0.637   5.173 -0.3692  0.1847  0.2290
  159MOL    C4119317   3.280   0.720   5.266 -0.2162  1.0271 -0.0291
  159MOL    H4219318   3.279   0.649   5.349  0.4002  0.5396 -0.4299
  159MOL    H4319319   3.233   0.667   5.183 -1.0923  0.3721  0.8685
  159MOL    C4419320   3.189   0.841   5.304  0.1848 -0.0581 -0.7696
  159MOL    F4519321   3.232   0.890   5.415  0.3298 -0.3779  0.1151
  159MOL    F4619322   3.186   0.936   5.208  0.4144  0.1082 -0.0254
  159MOL    C4719323   3.036   0.801   5.337 -0.3005 -0.1949 -0.5044
  159MOL    H4819324   3.029   0.718   5.407  1.9411  0.0923  0.1162
  159MOL    H4919325   3.005   0.760   5.241 -2.4415  0.3146 -0.0453
  159MOL    C5019326   2.933   0.907   5.391 -0.4766 -0.8552 -0.0265
  159MOL    F5119327   2.946   1.001   5.295  0.7228  0.3239  0.1391
  159MOL    F5219328   2.809   0.862   5.386  0.1979 -0.1781  0.2800
  159MOL    C5319329   2.969   0.964   5.524  0.3084  0.6234  0.1590
  159MOL    H5419330   3.066   1.011   5.513  0.1755  1.2986  1.7732
  159MOL    H5519331   2.981   0.882   5.595  0.1406 -0.7237 -1.3346
  159MOL    C5619332   2.863   1.064   5.577  0.1275 -0.2729  0.4033
  159MOL    F5719333   2.771   0.991   5.634 -0.4688  0.1071 -0.2495
  159MOL    F5819334   2.930   1.120   5.678  0.0494 -0.1431  0.4518
  159MOL    C5919335   2.805   1.167   5.471 -0.0386  0.2148 -0.4000
  159MOL    H6019336   2.750   1.113   5.394  0.2615 -1.3208  0.4507
  159MOL    H6119337   2.889   1.225   5.430 -0.0138  0.4487 -0.0214
  159MOL    C6219338   2.716   1.276   5.532  0.6417 -0.3515 -0.2668
  159MOL    F6319339   2.806   1.352   5.601 -0.1446  0.6380  0.2472
  159MOL    F6419340   2.664   1.344   5.436  0.1245  0.3403  0.1511
  159MOL    C6519341   2.609   1.219   5.634  0.4775 -0.0763  0.0135
  159MOL    H6619342   2.664   1.196   5.725  2.3888 -2.1209 -1.6162
  159MOL    H6719343   2.567   1.124   5.598 -1.0773 -0.2860  2.2655
  159MOL    C6819344   2.505   1.318   5.683 -0.6722  0.5841  0.3321
  159MOL    F6919345   2.573   1.424   5.734  1.5179 -0.2032 -0.1970
  159MOL    F7019346   2.439   1.361   5.581  0.0367  0.0766 -0.0894
  159MOL    C7119347   2.411   1.260   5.789  0.7765 -0.1768 -0.1263
  159MOL    H7219348   2.467   1.237   5.879  2.6130 -0.6457 -1.3806
  159MOL    H7319349   2.372   1.163   5.757  0.6641 -0.0242 -0.4586
  159MOL    C7419350   2.295   1.360   5.819  0.8916  0.6817 -0.8804
  159MOL    F7519351   2.364   1.470   5.855 -0.3268  0.5849 -0.0186
  159MOL    F7619352   2.218   1.380   5.715 -0.0660 -0.2871  0.3246
  159MOL    C7719353   2.210   1.310   5.942 -0.0226 -0.0972  0.3050
  159MOL    H7819354   2.271   1.299   6.032  1.2985  0.1408 -0.5400
  159MOL    H7919355   2.180   1.206   5.924  0.7347 -0.1695 -0.6266
  159MOL    C8019356   2.084   1.396   5.973 -0.4371  0.3419 -0.2602
  159MOL    F8119357   2.119   1.527   5.972 -0.0355  0.0219 -0.0217
  159MOL    F8219358   1.998   1.377   5.872  0.2210  0.3969 -0.3182
  159MOL    C8319359   2.004   1.370   6.112 -0.3219 -0.2456  0.3758
  159MOL    H8419360   1.908   1.420   6.109  0.6214  1.6142  0.4245
  159MOL    H8519361   2.049   1.429   6.192 -1.8871  2.1037 -0.4380
  159MOL    C8619362   2.000   1.217   6.147 -0.3347  0.9669  0.0899
  159MOL    F8719363   1.954   1.143   6.045 -0.0331  0.8882 -0.1584
  159MOL    F8819364   2.116   1.166   6.183 -0.3965 -0.4647  0.3901
  159MOL    C8919365   1.892   1.183   6.253 -0.4418  0.0442 -0.2399
  159MOL    H9019366   1.877   1.076   6.265  0.8504 -0.2301 -0.9365
  159MOL    H9119367   1.796   1.222   6.220  0.1843  2.3592  0.5643
  159MOL    C9219368   1.913   1.236   6.400 -0.3399 -0.0444  0.3970
  159MOL    F9319369   1.920   1.370   6.407 -0.1535 -0.1443  0.0254
  159MOL    F9419370   1.798   1.203   6.450  0.1506 -0.4547  0.0907
  159MOL    C9519371   2.024   1.161   6.477 -0.0887  0.1875  0.8366
  159MOL    H9619372   2.122   1.200   6.450 -0.4904 -0.6884 -2.1309
  159MOL    H9719373   2.009   1.057   6.448  1.5775  0.0477  0.4115
  159MOL    C9819374   2.015   1.179   6.626  0.5226 -0.7673  0.1111
  159MOL    F9919375   1.905   1.103   6.660 -0.0640 -0.3635 -0.2709
  159MOL   F10019376   2.131   1.118   6.665  0.2417  0.0165 -0.0259
  159MOL   C10119377   1.982   1.322   6.684 -0.2755  0.3275  0.3924
  159MOL   H10219378   1.887   1.356   6.643 -0.6226 -0.0176  0.9001
  159MOL   H10319379   2.055   1.394   6.648  1.5266 -2.1075 -1.0249
  159MOL   C10419380   1.979   1.325   6.841 -0.0989 -0.0945 -0.0406
  159MOL   F10519381   2.106   1.296   6.877  0.3720 -0.5759 -0.0514
  159MOL   F10619382   1.954   1.452   6.867 -0.1226 -0.3907 -0.1706
  159MOL   C10719383   1.874   1.233   6.902  0.0631 -0.0954  0.1565
  159MOL   H10819384   1.903   1.128   6.890 -2.4935 -1.0950  2.1019
  159MOL   H10919385   1.785   1.240   6.841  0.8137  0.7821 -0.8421
  159MOL   C11019386   1.833   1.265   7.047  0.8325 -0.2118  0.4743
  159MOL   F11119387   1.938   1.263   7.125  0.1445 -0.1918  0.3081
  159MOL   F11219388   1.776   1.386   7.043 -0.0300 -0.3214  0.8421
  159MOL   C11319389   1.723   1.169   7.103  0.2110 -0.6283 -0.5894
  159MOL   H11419390   1.643   1.158   7.029 -0.3625 -0.6497  0.0337
  159MOL   H11519391   1.683   1.201   7.199  1.6278 -2.7123  0.7216
  159MOL   C11619392   1.764   1.023   7.142 -0.2328  0.1739  0.4546
  159MOL   F11719393   1.819   0.958   7.039 -0.0293 -0.2236  0.2756
  159MOL   F11819394   1.857   1.029   7.227 -0.3250 -0.1800  0.2296
  159MOL   C11919395   1.639   0.945   7.197 -1.0429 -0.7547 -0.3800
  159MOL   H12019396   1.581   1.017   7.255 -0.2494  0.2310 -0.7890
  159MOL   H12119397   1.665   0.848   7.239 -3.7452 -1.1745  0.4009
  159MOL   H12219398   1.576   0.933   7.109 -1.2341 -0.3372 -0.2986
  160MOL     C119399   2.333   7.257   0.111  0.0444 -0.3338  0.2556
  160MOL     F219400   2.361   7.328   8.347 -0.3416 -0.4286  0.4056
  160MOL     F319401   2.316   7.134   0.072  0.0961 -0.1141  0.0635
  160MOL     C419402   2.209   7.316   0.182 -0.1976 -0.5294 -0.2567
  160MOL     H519403   2.191   7.248   0.265  0.5302  0.6932  0.9195
  160MOL     H619404   2.125   7.319   0.112 -0.1249  0.8921 -0.2999
  160MOL     H719405   2.415   7.267   0.183 -0.7150  1.9623  0.8558
  160MOL     C819406   2.246   7.458   0.234  0.5445  0.4850 -0.1383
  160MOL     F919407   2.343   7.435   0.328 -0.5443 -0.1790 -0.3000
  160MOL    F1019408   2.309   7.531   0.141 -0.8057 -0.0998  0.3739
  160MOL    C1119409   2.128   7.540   0.293 -0.4274  0.3762  0.7998
  160MOL    H1219410   2.177   7.631   0.330  1.2381  0.5724 -1.7789
  160MOL    H1319411   2.093   7.496   0.386  0.6195  2.5169  2.2651
  160MOL    C1419412   2.018   7.563   0.183  0.0025  0.0601  0.6034
  160MOL    F1519413   2.061   7.627   0.069  0.0592  0.1933  0.4560
  160MOL    F1619414   1.964   7.454   0.136 -0.5939  0.3441  0.0724
  160MOL    C1719415   1.890   7.638   0.241 -0.2828 -0.1635  0.4253
  160MOL    H1819416   1.829   7.650   0.152  1.1215 -0.7275 -0.6346
  160MOL    H1919417   1.927   7.738   0.265  0.6528 -0.6310  0.9909
  160MOL    C2019418   1.811   7.569   0.356  0.5316  0.6722 -0.3699
  160MOL    F2119419   1.756   7.457   0.312 -0.5341 -0.4117 -0.2101
  160MOL    F2219420   1.894   7.556   0.460  0.4792 -0.1156 -0.0586
  160MOL    C2319421   1.686   7.650   0.409 -0.5943 -0.0369  0.3504
  160MOL    H2419422   1.602   7.663   0.340  0.3593 -1.8969 -1.1928
  160MOL    H2519423   1.726   7.750   0.426  1.5203 -0.6324 -0.9874
  160MOL    C2619424   1.615   7.609   0.539 -0.2333 -0.6492  0.2574
  160MOL    F2719425   1.581   7.480   0.531  0.0912  0.1360 -0.0175
  160MOL    F2819426   1.706   7.629   0.633  0.3559 -0.5347 -0.1801
  160MOL    C2919427   1.492   7.703   0.564  0.0513  0.1442 -0.7545
  160MOL    H3019428   1.522   7.807   0.564 -1.0577  0.4817 -1.7070
  160MOL    H3119429   1.461   7.681   0.666  1.1657  0.3639 -0.3646
  160MOL    C3219430   1.362   7.679   0.480 -0.2979 -0.1682 -0.2609
  160MOL    F3319431   1.277   7.769   0.526  0.6883  1.0999 -0.5230
  160MOL    F3419432   1.385   7.711   0.351  0.3905  0.5075 -0.1032
  160MOL    C3519433   1.301   7.536   0.485  0.7839  0.7912  0.6981
  160MOL    H3619434   1.337   7.492   0.578 -0.6101  0.7232  1.2079
  160MOL    H3719435   1.349   7.480   0.404 -1.0394  2.8750 -1.8846
  160MOL    C3819436   1.147   7.516   0.469 -0.4507  0.4707  0.1223
  160MOL    F3919437   1.128   7.384   0.492 -0.0971  0.2999  0.1348
  160MOL    F4019438   1.076   7.588   0.557  0.6661 -0.0208 -0.0071
  160MOL    C4119439   1.103   7.547   0.329  0.1050  0.2154  1.1495
  160MOL    H4219440   1.148   7.472   0.265  0.4200  1.5148 -0.1630
  160MOL    H4319441   1.149   7.636   0.287 -0.0390 -0.3584 -0.2276
  160MOL    C4419442   0.954   7.527   0.288 -0.2803  0.5418 -0.7865
  160MOL    F4519443   0.937   7.552   0.157 -0.3842 -0.1717 -0.2821
  160MOL    F4619444   0.924   7.398   0.314 -0.2882 -0.5302 -0.6444
  160MOL    C4719445   0.854   7.609   0.363  0.1481 -0.5347  0.4538
  160MOL    H4819446   0.867   7.586   0.469 -2.5826  2.0221  1.3908
  160MOL    H4919447   0.756   7.565   0.346 -0.5264  0.5464  1.4454
  160MOL    C5019448   0.861   7.759   0.335 -0.5380 -0.9271  0.2907
  160MOL    F5119449   0.980   7.803   0.371  0.2050 -0.4941  0.3712
  160MOL    F5219450   0.824   7.766   0.200 -0.0360  0.1248  0.0281
  160MOL    C5319451   0.752   7.826   0.421 -0.0968  0.0383 -0.0783
  160MOL    H5419452   0.773   7.815   0.527 -1.6288  0.6453  0.3023
  160MOL    H5519453   0.655   7.776   0.413 -0.3162  0.6467 -1.4053
  160MOL    C5619454   0.732   7.984   0.393 -0.0080 -0.6802  1.0577
  160MOL    F5719455   0.849   8.038   0.381  0.1188 -0.2838  0.1864
  160MOL    F5819456   0.670   8.009   0.282  0.1227 -0.3494  0.1500
  160MOL    C5919457   0.677   8.062   0.510 -0.3255 -0.2377  0.6078
  160MOL    H6019458   0.675   8.166   0.478 -0.6755 -0.8238 -1.3370
  160MOL    H6119459   0.745   8.044   0.594 -2.1441 -1.9172  1.7553
  160MOL    C6219460   0.537   8.020   0.560 -1.1753 -0.0016  0.1940
  160MOL    F6319461   0.445   8.042   0.458 -0.0613 -0.4910  0.1307
  160MOL    F6419462   0.526   7.892   0.606 -0.1286  0.1504 -0.3597
  160MOL    C6519463   0.492   8.112   0.674 -0.4187  0.0394  0.1679
  160MOL    H6619464   0.492   8.215   0.638 -2.0119  0.5889  1.7038
  160MOL    H6719465   0.579   8.127   0.739 -0.7117  0.6213  0.4284
  160MOL    C6819466   0.364   8.078   0.755 -0.2203  0.2630 -0.7635
  160MOL    F6919467   0.363   7.959   0.801 -0.1214 -0.1556  0.2132
  160MOL    F7019468   0.358   8.156   0.867  0.2465 -0.4045 -0.2195
  160MOL    C7119469   0.232   8.106   0.682 -0.3788  0.9100 -0.0301
  160MOL    H7219470   0.230   8.042   0.594 -0.2416 -0.7897  1.1791
  160MOL    H7319471   0.239   8.208   0.645  0.5563  1.0378  0.4803
  160MOL    C7419472   0.097   8.085   0.760 -0.0472 -0.1381 -0.4009
  160MOL    F7519473   0.085   7.963   0.816 -0.3339  0.3376 -0.2396
  160MOL    F7619474   0.094   8.171   0.864  0.1108 -0.2011  0.4061
  160MOL    C7719475   8.328   8.118   0.664 -0.1423 -0.1633  0.2146
  160MOL    H7819476   8.329   8.037   0.591  0.2676 -1.6146  1.7892
  160MOL    H7919477   0.006   8.211   0.615 -0.9416 -0.0326  0.0062
  160MOL    C8019478   8.186   8.149   0.720 -0.6167  0.1075  0.3571
  160MOL    F8119479   8.179   8.271   0.776  0.0427 -0.2130 -0.2782
  160MOL    F8219480   8.117   8.152   0.609  0.1753  0.0634 -0.3595
  160MOL    C8319481   8.135   8.051   0.829  0.5574 -0.6533  0.2982
  160MOL    H8419482   8.202   8.039   0.914  1.1507 -0.2628 -0.1088
  160MOL    H8519483   8.141   7.953   0.781  2.4143  0.0931 -1.0344
  160MOL    C8619484   7.989   8.066   0.874  0.1158 -0.7539  0.6956
  160MOL    F8719485   7.959   8.189   0.906  0.0448 -0.0848  0.2978
  160MOL    F8819486   7.910   8.032   0.770  0.2073 -0.2413  0.3556
  160MOL    C8919487   7.943   7.979   1.001  0.2208  0.2355 -0.0567
  160MOL    H9019488   7.976   7.878   0.977  1.5045  0.8491 -0.9665
  160MOL    H9119489   7.837   7.971   0.978  0.5791  0.6539 -1.9870
  160MOL    C9219490   7.976   8.029   1.145 -0.2468 -0.8379  0.1464
  160MOL    F9319491   8.105   8.033   1.164 -0.0687 -0.1927 -0.1091
  160MOL    F9419492   7.934   8.157   1.159  0.0357 -0.2780 -0.4904
  160MOL    C9519493   7.893   7.951   1.251  0.8775  0.1634 -0.5933
  160MOL    H9619494   7.788   7.974   1.233  0.5309 -0.8642  0.0757
  160MOL    H9719495   7.917   7.992   1.349 -1.7010  1.7799 -0.6068
  160MOL    C9819496   7.923   7.796   1.250 -0.0795  0.0938  0.7155
  160MOL    F9919497   7.882   7.728   1.138  0.0303 -0.0019  0.3139
  160MOL   F10019498   8.054   7.768   1.252 -0.2477  0.0619 -0.5582
  160MOL   C10119499   7.858   7.732   1.381  0.3037 -0.0647  0.1381
  160MOL   H10219500   7.912   7.773   1.467  1.4607  1.5246 -1.3237
  160MOL   H10319501   7.888   7.628   1.378  0.0331 -0.1777  1.0474
  160MOL   C10419502   7.705   7.759   1.408 -0.0217 -0.2372 -0.1440
  160MOL   F10519503   7.688   7.886   1.455  0.2067 -0.2401 -0.1460
  160MOL   F10619504   7.637   7.730   1.302 -0.5246  1.1284 -0.0500
  160MOL   C10719505   7.663   7.668   1.524 -0.0599  0.4038  0.1043
  160MOL   H10819506   7.709   7.714   1.611 -0.6083  1.1082  0.0233
  160MOL   H10919507   7.698   7.565   1.527 -0.5309  0.2686  0.8932
  160MOL   C11019508   7.509   7.652   1.533  0.1254  0.5601 -0.6575
  160MOL   F11119509   7.454   7.774   1.511  0.0732  0.3309  0.3443
  160MOL   F11219510   7.473   7.561   1.439  0.0259  0.1291  0.2149
  160MOL   C11319511   7.466   7.606   1.679 -0.6605 -0.3616  0.5988
  160MOL   H11419512   7.500   7.665   1.763  0.9273  0.8286 -0.8702
  160MOL   H11519513   7.503   7.506   1.704 -0.4512 -0.4385 -0.0073
  160MOL   C11619514   7.313   7.599   1.696  0.1325 -0.6001 -0.0462
  160MOL   F11719515   7.257   7.716   1.668 -0.1705 -0.4134 -0.6636
  160MOL   F11819516   7.256   7.516   1.610 -0.1826 -0.2367  0.1474
  160MOL   C11919517   7.275   7.561   1.840 -0.5453  0.1450  0.6327
  160MOL   H12019518   7.309   7.461   1.866  0.7102  0.0384 -1.3190
  160MOL   H12119519   7.169   7.558   1.867 -0.1138 -1.9495  2.2450
  160MOL   H12219520   7.341   7.619   1.904  0.2421 -1.8708  1.6969
  161MOL     C119521   4.361   5.523   3.459  0.4715  0.0572 -0.7484
  161MOL     F219522   4.295   5.464   3.356 -0.0039  0.7439  0.2654
  161MOL     F319523   4.323   5.651   3.453 -0.0966  0.5232 -0.1283
  161MOL     C419524   4.514   5.510   3.439 -0.0851  0.1917 -0.0934
  161MOL     H519525   4.545   5.579   3.360  1.0510 -2.1539 -1.7355
  161MOL     H619526   4.521   5.410   3.397  0.7303  1.0352 -2.0645
  161MOL     H719527   4.321   5.484   3.553  0.4212  0.7887 -0.4622
  161MOL     C819528   4.599   5.535   3.569 -0.2790  0.3660 -0.5761
  161MOL     F919529   4.569   5.657   3.618  0.2183 -0.6751 -0.2363
  161MOL    F1019530   4.555   5.442   3.660 -0.1320 -0.4633  0.5239
  161MOL    C1119531   4.749   5.523   3.547  0.2286  0.0149 -0.1260
  161MOL    H1219532   4.774   5.582   3.459  3.2400  1.8400  1.8494
  161MOL    H1319533   4.770   5.422   3.511  1.8995 -0.0793  1.0952
  161MOL    C1419534   4.846   5.572   3.650 -0.9015  0.1428  0.0220
  161MOL    F1519535   4.966   5.547   3.601  0.4622 -0.1397  0.4587
  161MOL    F1619536   4.822   5.704   3.663  0.5197  0.5098  0.4791
  161MOL    C1719537   4.824   5.505   3.784 -0.3130 -0.3498 -0.5874
  161MOL    H1819538   4.814   5.396   3.780  0.3127 -0.4937  1.1128
  161MOL    H1919539   4.732   5.539   3.832  1.2067  1.5844  1.0863
  161MOL    C2019540   4.924   5.540   3.891 -0.3338  0.3534  0.5677
  161MOL    F2119541   4.913   5.673   3.915  0.3484  0.2987  0.2342
  161MOL    F2219542   4.877   5.471   3.992 -0.0618  0.3849 -0.4214
  161MOL    C2319543   5.065   5.488   3.871 -0.4790  0.2240 -0.2837
  161MOL    H2419544   5.118   5.543   3.793  0.9646 -2.6569 -1.4374
  161MOL    H2519545   5.054   5.392   3.820 -0.9839  0.6204 -0.9298
  161MOL    C2619546   5.160   5.483   3.994  0.3570  0.2114 -0.1653
  161MOL    F2719547   5.119   5.394   4.083 -0.3678  0.2927  0.0159
  161MOL    F2819548   5.280   5.445   3.944 -0.4649 -0.2015  0.4801
  161MOL    C2919549   5.173   5.622   4.071  0.2368 -0.5793 -0.2571
  161MOL    H3019550   5.075   5.652   4.108  0.4592 -1.2641  0.9012
  161MOL    H3119551   5.201   5.699   4.000  0.6923 -1.0296 -0.5709
  161MOL    C3219552   5.276   5.634   4.188  0.0310  0.5885 -0.3148
  161MOL    F3319553   5.397   5.659   4.139  0.1262  0.1206 -0.3037
  161MOL    F3419554   5.244   5.750   4.248 -0.2148  0.1133 -0.2040
  161MOL    C3519555   5.266   5.516   4.290  0.0378  0.0481  0.3154
  161MOL    H3619556   5.303   5.425   4.243 -1.4801  0.0161 -0.8586
  161MOL    H3719557   5.159   5.509   4.309  0.1576  1.3623  1.5884
  161MOL    C3819558   5.348   5.524   4.417 -0.5785  0.0895 -0.1598
  161MOL    F3919559   5.319   5.411   4.488  0.5978 -0.5275 -0.7521
  161MOL    F4019560   5.481   5.530   4.380  0.2627 -0.2978 -0.1014
  161MOL    C4119561   5.336   5.653   4.497  0.8664  0.5538 -0.2981
  161MOL    H4219562   5.352   5.739   4.433 -1.2494  0.4027 -1.0443
  161MOL    H4319563   5.421   5.665   4.564  1.6497  0.2514 -1.2230
  161MOL    C4419564   5.212   5.676   4.583  0.2245 -0.0250  0.5675
  161MOL    F4519565   5.111   5.661   4.496  0.1257  0.0899  0.4037
  161MOL    F4619566   5.209   5.575   4.670  0.1205 -0.1289 -0.3667
  161MOL    C4719567   5.195   5.813   4.658 -0.0002 -0.2050  0.4755
  161MOL    H4819568   5.151   5.889   4.594  1.0181  0.3024  0.3701
  161MOL    H4919569   5.291   5.841   4.702  0.7491  0.9377 -1.8081
  161MOL    C5019570   5.096   5.809   4.783  0.1065 -0.0403  0.1354
  161MOL    F5119571   5.166   5.748   4.883  0.2564  0.2191 -0.0846
  161MOL    F5219572   5.087   5.937   4.810  0.4614  0.0204 -0.8519
  161MOL    C5319573   4.960   5.751   4.762 -0.8878  0.1330 -0.1998
  161MOL    H5419574   4.983   5.645   4.750 -0.1126  0.5336 -2.4391
  161MOL    H5519575   4.932   5.799   4.668  3.1587  1.8800 -0.5939
  161MOL    C5619576   4.853   5.779   4.872  0.6313 -0.2763 -0.3793
  161MOL    F5719577   4.882   5.709   4.982 -0.0241 -0.7331  0.7491
  161MOL    F5819578   4.846   5.910   4.897 -0.4626 -0.2471  0.4934
  161MOL    C5919579   4.702   5.741   4.831 -0.0267 -0.2582  0.6410
  161MOL    H6019580   4.667   5.814   4.757 -1.7104 -1.6251  0.0480
  161MOL    H6119581   4.639   5.752   4.919 -0.6159 -0.7832  0.2900
  161MOL    C6219582   4.680   5.597   4.761 -0.0008  0.5622  0.2136
  161MOL    F6319583   4.551   5.587   4.734 -0.0896  0.5419 -0.0717
  161MOL    F6419584   4.750   5.603   4.642  0.4883  0.0740  0.2399
  161MOL    C6519585   4.724   5.475   4.848 -0.0642 -0.0801  0.6076
  161MOL    H6619586   4.693   5.478   4.952 -0.8987 -1.2918  0.4079
  161MOL    H6719587   4.832   5.472   4.861  0.0339  2.6972  0.7695
  161MOL    C6819588   4.690   5.340   4.766  0.3563 -0.5377 -0.6297
  161MOL    F6919589   4.564   5.328   4.728 -0.2919 -0.0129 -0.5642
  161MOL    F7019590   4.775   5.342   4.664 -0.0356 -0.3521  0.3749
  161MOL    C7119591   4.731   5.228   4.857  0.2295  0.8693 -0.0265
  161MOL    H7219592   4.666   5.236   4.944  0.0288 -0.7859 -0.0013
  161MOL    H7319593   4.834   5.251   4.884  1.2795 -3.0594 -0.3831
  161MOL    C7419594   4.741   5.087   4.792  0.4407 -0.5902 -1.0181
  161MOL    F7519595   4.628   5.070   4.718  0.1882 -0.4883  0.8741
  161MOL    F7619596   4.848   5.080   4.710 -0.1761  0.4711 -0.0263
  161MOL    C7719597   4.744   4.976   4.900  0.0385  0.2964 -0.3497
  161MOL    H7819598   4.726   4.879   4.855  0.0578  0.8182 -1.5107
  161MOL    H7919599   4.663   4.985   4.972 -0.8508 -2.5525 -0.9383
  161MOL    C8019600   4.878   4.961   4.978  0.5306 -0.1735  0.2477
  161MOL    F8119601   4.979   4.950   4.891 -0.3471 -0.7540  0.2224
  161MOL    F8219602   4.908   5.067   5.049 -0.7043 -0.2874  0.4939
  161MOL    C8319603   4.890   4.833   5.076  0.3869 -0.1619 -0.2534
  161MOL    H8419604   4.996   4.819   5.098  0.2305  0.0814  0.6610
  161MOL    H8519605   4.860   4.748   5.014 -0.6081 -0.2914  0.3976
  161MOL    C8619606   4.806   4.833   5.211 -0.0647  0.0464  0.1768
  161MOL    F8719607   4.681   4.850   5.182  0.3464  0.4232  0.0499
  161MOL    F8819608   4.818   4.715   5.265 -0.0589 -0.1755 -0.6574
  161MOL    C8919609   4.859   4.929   5.322 -0.0651 -0.1272 -0.3106
  161MOL    H9019610   4.850   5.028   5.277  2.5533  1.0074  1.5342
  161MOL    H9119611   4.967   4.929   5.334  0.1761 -1.3017 -2.3379
  161MOL    C9219612   4.769   4.947   5.451 -0.8407 -0.3372 -0.1610
  161MOL    F9319613   4.655   4.998   5.408 -0.0369 -1.0354 -0.0886
  161MOL    F9419614   4.747   4.831   5.510  0.4108  0.0370 -0.0160
  161MOL    C9519615   4.830   5.059   5.538  0.5987  0.4778 -0.9233
  161MOL    H9619616   4.750   5.113   5.587  1.3723  1.0722 -0.3044
  161MOL    H9719617   4.874   5.130   5.469 -1.1561 -0.5606 -3.1744
  161MOL    C9819618   4.933   5.016   5.643  0.4013 -0.2110 -0.4475
  161MOL    F9919619   5.023   4.941   5.578 -0.0629 -0.1805 -0.0804
  161MOL   F10019620   5.002   5.119   5.678  0.3004 -0.3258 -0.3962
  161MOL   C10119621   4.888   4.937   5.765  0.8153 -0.1676 -0.4260
  161MOL   H10219622   4.867   4.834   5.736  0.7007 -0.1166 -0.5274
  161MOL   H10319623   4.790   4.974   5.798  1.2192 -0.3750  1.0653
  161MOL   C10419624   4.993   4.934   5.885  0.5910  0.1249  0.3773
  161MOL   F10519625   5.109   4.892   5.837 -0.2891 -0.2563 -0.1277
  161MOL   F10619626   5.022   5.058   5.933 -0.3358 -0.1973  0.0851
  161MOL   C10719627   4.947   4.850   6.008 -0.4339  0.2709 -0.5839
  161MOL   H10819628   4.945   4.744   5.984  1.2547 -0.3655  1.9077
  161MOL   H10919629   4.848   4.885   6.038 -0.5152  0.4133 -1.0250
  161MOL   C11019630   5.033   4.864   6.135  0.2551  0.3574 -0.0512
  161MOL   F11119631   4.997   4.769   6.215 -0.7332 -0.6346  0.0356
  161MOL   F11219632   5.160   4.847   6.101  0.1960  0.5200 -0.3934
  161MOL   C11319633   5.017   4.996   6.209 -0.4086  0.0167 -0.1996
  161MOL   H11419634   4.918   5.037   6.230  0.2744  2.3785 -1.4094
  161MOL   H11519635   5.066   5.076   6.153 -0.2637 -0.0622 -0.1837
  161MOL   C11619636   5.091   5.004   6.346  0.2859 -0.1435 -0.0543
  161MOL   F11719637   5.035   4.920   6.434  0.1619 -1.1742  0.4103
  161MOL   F11819638   5.220   4.969   6.330 -0.2378  0.4479  0.1991
  161MOL   C11919639   5.089   5.146   6.413 -0.0863  0.1555  0.2466
  161MOL   H12019640   5.126   5.138   6.515  1.9341 -2.9140 -0.6858
  161MOL   H12119641   4.985   5.179   6.419  0.6491  3.3260 -2.7369
  161MOL   H12219642   5.147   5.219   6.357  0.0765  1.3101  1.8753
  162MOL     C119643   3.611   1.319   1.693 -0.6190 -0.3243 -0.1453
  162MOL     F219644   3.547   1.284   1.807 -0.2497  0.1529 -0.0350
  162MOL     F319645   3.559   1.441   1.648 -0.1172 -0.1462 -0.0043
  162MOL     C419646   3.616   1.211   1.580 -0.3070 -0.2644  0.4022
  162MOL     H519647   3.659   1.118   1.617 -0.7099 -0.5592  0.1266
  162MOL     H619648   3.683   1.248   1.503 -1.6806 -2.3178 -1.8414
  162MOL     H719649   3.714   1.339   1.724 -0.4980 -0.3281 -0.5396
  162MOL     C819650   3.481   1.168   1.522  0.0320  0.3016  0.2504
  162MOL     F919651   3.403   1.274   1.504  0.1712 -0.5286  0.0703
  162MOL    F1019652   3.507   1.109   1.407 -0.6063  0.0012 -0.2057
  162MOL    C1119653   3.395   1.063   1.603 -0.5034  0.3950  0.4854
  162MOL    H1219654   3.359   1.106   1.697  1.9453  1.6680  0.8995
  162MOL    H1319655   3.457   0.989   1.653 -0.6980  1.3368  2.1542
  162MOL    C1419656   3.273   1.004   1.535  0.0558  0.4431  0.3436
  162MOL    F1519657   3.208   1.107   1.487  0.4234  0.3698 -0.4549
  162MOL    F1619658   3.309   0.926   1.429 -0.1392  0.1368  0.3784
  162MOL    C1719659   3.176   0.932   1.628  0.4712  0.4591  0.1509
  162MOL    H1819660   3.117   1.004   1.685 -3.3149 -2.5380  0.2562
  162MOL    H1919661   3.230   0.873   1.702  0.1349  0.0864  0.0999
  162MOL    C2019662   3.053   0.854   1.571 -0.3387 -0.2726  0.5873
  162MOL    F2119663   2.977   0.926   1.483 -0.1326 -0.0616 -0.6843
  162MOL    F2219664   3.107   0.756   1.495 -0.5866 -0.0456 -0.2183
  162MOL    C2319665   2.964   0.801   1.684  0.1521 -0.1578 -0.5229
  162MOL    H2419666   3.009   0.724   1.746  0.0837 -0.2229 -0.5528
  162MOL    H2519667   2.889   0.740   1.633  1.5486 -2.6750  0.3831
  162MOL    C2619668   2.900   0.907   1.776 -0.0061 -1.0018 -0.3800
  162MOL    F2719669   2.996   0.967   1.855 -0.0399  0.1347 -0.1589
  162MOL    F2819670   2.850   1.009   1.700  0.6297 -0.3163  0.0659
  162MOL    C2919671   2.784   0.856   1.860  0.3634  0.4722  0.4519
  162MOL    H3019672   2.812   0.759   1.902 -0.8187  0.5206  1.3829
  162MOL    H3119673   2.698   0.844   1.795  0.6527  2.4179 -0.3078
  162MOL    C3219674   2.737   0.940   1.975  0.2066 -1.1628 -0.1939
  162MOL    F3319675   2.835   0.946   2.064 -0.0093  0.6490  0.3570
  162MOL    F3419676   2.733   1.069   1.940 -0.1759 -0.2652 -0.5018
  162MOL    C3519677   2.602   0.897   2.043  0.0146 -0.1417  0.1580
  162MOL    H3619678   2.515   0.912   1.979  0.3421  1.1000 -0.0169
  162MOL    H3719679   2.581   0.955   2.133 -0.8852  0.7436 -0.6143
  162MOL    C3819680   2.594   0.752   2.085  0.2900  0.2715  0.4004
  162MOL    F3919681   2.588   0.672   1.981 -0.2529 -0.2558 -0.2580
  162MOL    F4019682   2.700   0.725   2.165 -0.1153  0.7674 -0.0965
  162MOL    C4119683   2.481   0.707   2.174 -0.1698 -0.5299 -0.8614
  162MOL    H4219684   2.501   0.604   2.203 -0.7385 -0.2206  0.6737
  162MOL    H4319685   2.385   0.712   2.122 -0.8490  1.9575  0.5731
  162MOL    C4419686   2.459   0.789   2.311 -0.4495  0.2990  0.1520
  162MOL    F4519687   2.570   0.807   2.389  0.0024  0.1280 -0.3955
  162MOL    F4619688   2.411   0.911   2.275  0.1764 -0.2800 -0.7141
  162MOL    C4719689   2.351   0.742   2.409 -0.5752  0.4084  0.2633
  162MOL    H4819690   2.261   0.721   2.352 -1.1368  0.1113  1.2542
  162MOL    H4919691   2.316   0.815   2.482 -2.8032 -0.0545 -0.3145
  162MOL    C5019692   2.393   0.612   2.483 -0.0087  0.0172 -0.2752
  162MOL    F5119693   2.419   0.509   2.404  0.2896 -0.0744  0.6362
  162MOL    F5219694   2.501   0.642   2.553 -0.1290  1.3035 -0.2919
  162MOL    C5319695   2.277   0.562   2.575  0.3992  0.1714  0.4005
  162MOL    H5419696   2.194   0.554   2.504  1.0755  1.1410 -0.5096
  162MOL    H5519697   2.244   0.634   2.650 -0.8941  0.5582 -0.5115
  162MOL    C5619698   2.293   0.425   2.657 -0.3922  0.1176 -0.1033
  162MOL    F5719699   2.170   0.410   2.708  0.0694 -0.1507  0.5261
  162MOL    F5819700   2.319   0.329   2.567 -0.2437  0.0516  0.4630
  162MOL    C5919701   2.394   0.446   2.768 -0.5193 -0.0352 -0.5335
  162MOL    H6019702   2.347   0.513   2.840 -1.5244  2.2339 -3.1840
  162MOL    H6119703   2.481   0.500   2.731 -1.5265  3.3467  1.7679
  162MOL    C6219704   2.446   0.315   2.832  0.9929 -0.6548  0.5481
  162MOL    F6319705   2.502   0.237   2.732  0.0565  0.0924 -0.5503
  162MOL    F6419706   2.536   0.351   2.932 -0.1079  0.4112  0.1632
  162MOL    C6519707   2.318   0.243   2.894 -0.4965  0.0186 -0.0963
  162MOL    H6619708   2.239   0.229   2.820  0.7648 -0.6577 -1.3259
  162MOL    H6719709   2.269   0.308   2.967 -2.8662 -0.7987 -0.8938
  162MOL    C6819710   2.348   0.115   2.981  0.7857  0.4780  0.6327
  162MOL    F6919711   2.447   0.148   3.059  0.2376  0.5025  0.4479
  162MOL    F7019712   2.236   0.090   3.047 -0.1190 -0.0193  0.1651
  162MOL    C7119713   2.383   8.339   2.892  0.3432 -0.0220 -0.3681
  162MOL    H7219714   2.463   0.031   2.831  0.3389 -0.5184 -0.7176
  162MOL    H7319715   2.304   8.316   2.821  0.1163 -0.8253  0.1398
  162MOL    C7419716   2.450   8.216   2.959 -0.6430 -0.0088 -0.5327
  162MOL    F7519717   2.451   8.117   2.871 -0.4630  0.0540 -0.3053
  162MOL    F7619718   2.576   8.242   2.989  0.2675 -0.0807  0.1916
  162MOL    C7719719   2.382   8.162   3.089 -0.7279 -0.1845 -0.7702
  162MOL    H7819720   2.275   8.149   3.073 -0.7586 -0.9504  0.0409
  162MOL    H7919721   2.388   8.243   3.162  0.9408  0.6404 -1.7765
  162MOL    C8019722   2.445   8.040   3.154  0.3881 -0.8976  0.2638
  162MOL    F8119723   2.370   8.009   3.259 -0.3306 -0.4883  0.3879
  162MOL    F8219724   2.439   7.941   3.068  0.5075 -0.0301  0.2133
  162MOL    C8319725   2.596   8.056   3.194 -0.0334 -0.1398 -0.1219
  162MOL    H8419726   2.621   8.141   3.257 -1.5528 -0.3041  0.7226
  162MOL    H8519727   2.660   8.055   3.105  0.2493  0.2727  0.0711
  162MOL    C8619728   2.648   7.946   3.282  0.3372 -0.2588  0.7773
  162MOL    F8719729   2.571   7.937   3.390 -0.1105 -0.2864  0.5054
  162MOL    F8819730   2.638   7.844   3.209 -0.0267  0.4148  0.4693
  162MOL    C8919731   2.797   7.964   3.322 -0.3408 -0.0818  0.4912
  162MOL    H9019732   2.809   8.062   3.368  0.2168  0.6669 -1.2201
  162MOL    H9119733   2.868   7.993   3.245 -0.6863  0.3328  0.3246
  162MOL    C9219734   2.859   7.853   3.414  0.0853  0.3758 -0.6182
  162MOL    F9319735   2.965   7.920   3.465 -0.4540  0.5234  0.4544
  162MOL    F9419736   2.779   7.825   3.515  0.1276 -0.5370 -0.5353
  162MOL    C9519737   2.890   7.713   3.341  0.0047  0.7569 -0.6196
  162MOL    H9619738   2.916   7.731   3.237 -0.8097 -0.3416 -1.0323
  162MOL    H9719739   2.790   7.670   3.338  0.0708  0.6866 -1.9143
  162MOL    C9819740   2.998   7.629   3.407 -0.0662  0.0448  0.1950
  162MOL    F9919741   3.013   7.510   3.336 -0.4684  0.2558 -0.0992
  162MOL   F10019742   3.120   7.696   3.407  0.1631  0.1941 -0.4389
  162MOL   C10119743   2.966   7.596   3.553  0.2514 -0.6230  0.1183
  162MOL   H10219744   2.858   7.590   3.560  0.3933 -2.3092  0.9091
  162MOL   H10319745   3.006   7.680   3.610 -0.4216  0.5335 -1.0775
  162MOL   C10419746   3.031   7.467   3.603 -0.1812 -0.3964 -1.0909
  162MOL   F10519747   3.157   7.456   3.566 -0.6789 -0.1509 -0.4449
  162MOL   F10619748   3.024   7.478   3.730 -0.2395  0.2071  0.4966
  162MOL   C10719749   2.953   7.342   3.565  0.3730 -0.0674 -0.2647
  162MOL   H10819750   2.925   7.336   3.460  1.7259  0.9879 -0.6871
  162MOL   H10919751   2.857   7.343   3.617  1.0886 -3.0876  1.2623
  162MOL   C11019752   3.032   7.208   3.583 -0.1703 -0.0304  0.3198
  162MOL   F11119753   3.111   7.200   3.478 -0.1858  0.5549  0.4775
  162MOL   F11219754   3.108   7.220   3.692 -0.4445 -0.7538 -0.0869
  162MOL   C11319755   2.938   7.086   3.602 -0.3934  0.0673  0.0121
  162MOL   H11419756   2.883   7.074   3.509 -0.4705 -0.6604  0.1485
  162MOL   H11519757   2.859   7.120   3.669  0.0180 -0.1003  0.5890
  162MOL   C11619758   3.010   6.956   3.638 -0.1750 -0.7256 -0.2397
  162MOL   F11719759   3.050   6.966   3.755 -0.0288  0.4172 -0.2538
  162MOL   F11819760   2.919   6.852   3.635  0.6906  0.5032 -0.1086
  162MOL   C11919761   3.128   6.918   3.549 -0.0481 -0.3393  0.6229
  162MOL   H12019762   3.168   6.824   3.587 -0.9431 -0.2639  1.8075
  162MOL   H12119763   3.201   6.999   3.554 -0.5382 -0.0329  3.8333
  162MOL   H12219764   3.092   6.906   3.447 -1.6036 -0.0410  1.1236
  163MOL     C119765   4.591   3.502   3.412  0.2328 -0.1897  0.1985
  163MOL     F219766   4.619   3.463   3.288  0.0224  0.3452 -0.4806
  163MOL     F319767   4.499   3.418   3.463 -0.4995 -0.2238  0.0051
  163MOL     C419768   4.557   3.652   3.418 -0.0994  0.2324 -0.6966
  163MOL     H519769   4.516   3.684   3.514  0.4850  0.7882 -0.6297
  163MOL     H619770   4.483   3.675   3.342  1.9124 -0.7095 -2.9996
  163MOL     H719771   4.677   3.473   3.472 -0.7718 -0.8485  1.3304
  163MOL     C819772   4.683   3.737   3.382 -0.2619  0.0067  0.3561
  163MOL     F919773   4.797   3.725   3.460  0.1801 -0.2130 -0.3004
  163MOL    F1019774   4.716   3.700   3.255 -0.6245  0.2850 -0.5264
  163MOL    C1119775   4.644   3.889   3.391  0.8893 -0.3402  0.1105
  163MOL    H1219776   4.735   3.944   3.366  1.8463 -0.2612  3.4570
  163MOL    H1319777   4.643   3.923   3.495 -0.9936  0.6340 -0.2096
  163MOL    C1419778   4.502   3.927   3.325  0.2669 -0.7418  0.2845
  163MOL    F1519779   4.504   3.866   3.203  0.3458 -0.0415  0.6153
  163MOL    F1619780   4.392   3.896   3.386 -0.0513  0.4565  0.1861
  163MOL    C1719781   4.473   4.076   3.285  0.0786  0.5882 -0.2136
  163MOL    H1819782   4.375   4.087   3.239 -0.7921  0.5335  1.5716
  163MOL    H1919783   4.541   4.107   3.206  0.8163 -1.0154 -0.2368
  163MOL    C2019784   4.491   4.176   3.403 -0.2385  0.1147  0.3240
  163MOL    F2119785   4.614   4.143   3.448  0.1010  0.0135  0.0422
  163MOL    F2219786   4.496   4.300   3.355  0.1633  0.3576 -0.4463
  163MOL    C2319787   4.382   4.169   3.512 -0.2475  0.1966  0.5275
  163MOL    H2419788   4.376   4.072   3.562 -0.0313  0.4516  1.0561
  163MOL    H2519789   4.299   4.186   3.444 -0.7036  0.8835  1.2542
  163MOL    C2619790   4.381   4.289   3.611  0.0342  0.0140  0.2484
  163MOL    F2719791   4.361   4.405   3.561  0.4682 -0.0531  0.2377
  163MOL    F2819792   4.267   4.276   3.681 -0.3825  0.4427  0.5171
  163MOL    C2919793   4.514   4.287   3.697  0.2716 -0.5509  0.0655
  163MOL    H3019794   4.607   4.303   3.641  1.0349  0.8079  1.6761
  163MOL    H3119795   4.519   4.183   3.729 -1.3892 -0.5918  0.2117
  163MOL    C3219796   4.509   4.369   3.827  0.2241  0.0098  0.5145
  163MOL    F3319797   4.397   4.351   3.907 -0.4772 -0.0345 -0.0030
  163MOL    F3419798   4.611   4.325   3.898  0.1526 -0.1610 -0.3308
  163MOL    C3519799   4.514   4.530   3.810 -0.5104  0.3876  0.1451
  163MOL    H3619800   4.496   4.583   3.904 -1.5677 -1.5885  1.0744
  163MOL    H3719801   4.430   4.563   3.749  0.5510  0.8232 -1.1062
  163MOL    C3819802   4.636   4.594   3.749  0.4405 -0.1126 -0.1442
  163MOL    F3919803   4.735   4.538   3.822 -0.3198  0.2586 -0.3314
  163MOL    F4019804   4.662   4.553   3.626  0.1616  0.7810 -0.0669
  163MOL    C4119805   4.639   4.747   3.763  0.6930  0.5416 -0.4461
  163MOL    H4219806   4.599   4.784   3.857  0.4141 -0.5462 -0.1288
  163MOL    H4319807   4.560   4.772   3.692  0.1397  0.8469  0.2716
  163MOL    C4419808   4.768   4.833   3.728 -0.0834 -0.7495 -0.1679
  163MOL    F4519809   4.831   4.831   3.840  0.3067  0.3347 -0.6066
  163MOL    F4619810   4.833   4.774   3.630  0.4413  0.0738  0.2466
  163MOL    C4719811   4.736   4.982   3.685 -0.0331 -0.0352  1.3169
  163MOL    H4819812   4.691   5.037   3.768 -1.4581  0.2036  0.3984
  163MOL    H4919813   4.652   4.986   3.616  0.7230  1.4171  0.4581
  163MOL    C5019814   4.852   5.068   3.627 -0.6012 -0.1146  0.5804
  163MOL    F5119815   4.868   5.032   3.501  0.4079 -0.1330  0.1598
  163MOL    F5219816   4.811   5.196   3.631 -0.0626 -0.5384  0.4258
  163MOL    C5319817   4.987   5.047   3.706 -0.2131 -0.5918  0.1014
  163MOL    H5419818   5.014   4.942   3.709  1.9437 -0.0346  0.9247
  163MOL    H5519819   4.981   5.080   3.810  0.1048 -0.2207  0.0025
  163MOL    C5619820   5.118   5.128   3.661  0.0037  0.8228 -0.3334
  163MOL    F5719821   5.084   5.257   3.637 -0.5723 -0.0142  0.3193
  163MOL    F5819822   5.212   5.124   3.756 -0.3088  0.4718  0.5039
  163MOL    C5919823   5.177   5.080   3.520 -0.4384 -0.2002  0.1149
  163MOL    H6019824   5.238   5.162   3.483 -0.9728 -0.0807 -0.5201
  163MOL    H6119825   5.088   5.076   3.456  0.5265 -1.9834 -1.1887
  163MOL    C6219826   5.246   4.941   3.524 -0.1437 -0.7032 -0.2590
  163MOL    F6319827   5.343   4.947   3.617  0.2894 -0.0440  0.2708
  163MOL    F6419828   5.166   4.838   3.551 -0.0431  0.5334  0.1481
  163MOL    C6519829   5.319   4.904   3.392 -0.1991  0.4152  0.2732
  163MOL    H6619830   5.392   4.827   3.418  0.3760  1.1198  0.7524
  163MOL    H6719831   5.376   4.993   3.367  0.7168 -0.2092  0.0972
  163MOL    C6819832   5.244   4.854   3.274  0.1117 -0.3172 -0.5982
  163MOL    F6919833   5.180   4.742   3.307 -0.4338 -0.2240 -0.1697
  163MOL    F7019834   5.144   4.937   3.254  0.0828 -0.1751 -0.6863
  163MOL    C7119835   5.336   4.833   3.149  0.2797  0.6352  0.9592
  163MOL    H7219836   5.391   4.741   3.166 -0.1202 -0.0855 -1.4256
  163MOL    H7319837   5.409   4.913   3.137 -0.7901  1.5710  0.5067
  163MOL    C7419838   5.252   4.822   3.020  0.2472  0.2676 -0.4618
  163MOL    F7519839   5.183   4.709   3.021 -0.6507 -0.2936 -0.3010
  163MOL    F7619840   5.173   4.924   2.999  0.2843  0.0308 -0.4452
  163MOL    C7719841   5.349   4.819   2.898 -0.4215  0.7771  0.3791
  163MOL    H7819842   5.414   4.734   2.914 -0.1069  1.2526  1.7299
  163MOL    H7919843   5.405   4.912   2.895 -1.6297  1.5001 -0.4787
  163MOL    C8019844   5.289   4.809   2.759  0.3544 -0.3692 -0.2194
  163MOL    F8119845   5.222   4.691   2.750 -0.0284 -0.4161 -0.4838
  163MOL    F8219846   5.196   4.905   2.746 -0.0790 -0.6146 -0.4093
  163MOL    C8319847   5.381   4.824   2.635 -0.4591 -0.1601  0.0304
  163MOL    H8419848   5.427   4.922   2.638  0.1037 -0.2292 -3.8087
  163MOL    H8519849   5.320   4.812   2.545  0.9948  1.6812 -1.2530
  163MOL    C8619850   5.490   4.712   2.621  0.2348 -0.1450 -0.0521
  163MOL    F8719851   5.590   4.718   2.715 -0.5413 -0.2171  0.2540
  163MOL    F8819852   5.425   4.595   2.639 -0.3556  0.1803  0.3063
  163MOL    C8919853   5.549   4.704   2.475 -0.0763  0.5208  0.6641
  163MOL    H9019854   5.466   4.670   2.413  0.3221  1.1974 -0.2520
  163MOL    H9119855   5.622   4.624   2.468  3.1257  3.3389  0.3733
  163MOL    C9219856   5.622   4.825   2.417 -0.1695 -0.4030 -0.2415
  163MOL    F9319857   5.540   4.929   2.412 -0.1932 -0.6805 -0.0896
  163MOL    F9419858   5.727   4.845   2.504  0.1642 -0.2985 -0.0404
  163MOL    C9519859   5.680   4.810   2.275 -0.2131 -0.0816 -0.4982
  163MOL    H9619860   5.768   4.745   2.277 -0.9445 -1.0472  1.0262
  163MOL    H9719861   5.713   4.913   2.260  2.8493 -1.1035 -1.2229
  163MOL    C9819862   5.572   4.766   2.168  0.2730 -0.4218  0.0075
  163MOL    F9919863   5.456   4.830   2.178 -0.7381  0.1579 -0.3556
  163MOL   F10019864   5.624   4.804   2.053  0.0364 -0.1043  0.2034
  163MOL   C10119865   5.530   4.616   2.150 -0.5468  0.3538  0.0578
  163MOL   H10219866   5.478   4.614   2.054  1.0564  0.2951 -0.8384
  163MOL   H10319867   5.456   4.581   2.221 -1.8538 -0.4696 -1.6813
  163MOL   C10419868   5.641   4.507   2.141 -0.5330  0.2658  0.9777
  163MOL   F10519869   5.709   4.507   2.256 -0.1908 -0.2244 -0.0497
  163MOL   F10619870   5.569   4.402   2.145 -0.0998  0.1108  0.0712
  163MOL   C10719871   5.720   4.518   2.009  0.3106 -0.6146  0.9943
  163MOL   H10819872   5.773   4.613   2.006 -0.4380 -0.2363 -2.4439
  163MOL   H10919873   5.653   4.539   1.925  0.8889 -1.4080  0.3235
  163MOL   C11019874   5.808   4.396   1.971 -0.5566  0.2595 -0.0874
  163MOL   F11119875   5.725   4.296   1.954 -0.0801  0.1449  0.0641
  163MOL   F11219876   5.877   4.415   1.865  0.0996 -0.1381  0.3897
  163MOL   C11319877   5.912   4.357   2.077 -0.7237  0.2561  0.0850
  163MOL   H11419878   5.964   4.264   2.055  1.8523  0.9311  2.8260
  163MOL   H11519879   5.861   4.328   2.169  1.6380 -1.8050  0.8211
  163MOL   C11619880   6.025   4.459   2.110 -0.5937  0.3985 -0.2400
  163MOL   F11719881   6.102   4.481   2.012 -0.2232  0.2117  0.0297
  163MOL   F11819882   5.964   4.572   2.159  0.1666 -0.1004  0.0430
  163MOL   C11919883   6.121   4.411   2.219  0.6681  0.5134  0.5808
  163MOL   H12019884   6.193   4.486   2.252  2.3424  0.5011 -2.8178
  163MOL   H12119885   6.180   4.336   2.165 -1.8127  0.2658 -1.8412
  163MOL   H12219886   6.063   4.374   2.304 -0.2096  2.2773  0.7593
  164MOL     C119887   1.939   0.660   5.280 -0.1544 -0.0442 -0.7515
  164MOL     F219888   1.917   0.778   5.218 -0.0881 -0.2722  0.3271
  164MOL     F319889   1.982   0.675   5.403 -0.8059 -0.8243 -0.0965
  164MOL     C419890   2.026   0.564   5.198  0.6521  0.7933  0.2948
  164MOL     H519891   2.040   0.474   5.258 -1.8868 -0.2761 -0.6592
  164MOL     H619892   2.124   0.612   5.189  1.4160 -1.0043 -1.2989
  164MOL     H719893   1.837   0.622   5.286 -0.0290 -0.1789  0.5480
  164MOL     C819894   1.976   0.524   5.063 -0.2618 -0.0550 -0.3543
  164MOL     F919895   1.847   0.493   5.085 -0.2970  0.1034 -0.2581
  164MOL    F1019896   1.969   0.631   4.977  0.1453  0.1457 -0.2050
  164MOL    C1119897   2.057   0.408   5.005 -0.0854  0.0137  0.3510
  164MOL    H1219898   2.025   0.317   5.056  2.8827 -0.3136  1.7902
  164MOL    H1319899   2.165   0.412   5.025  0.1874  1.8335 -1.4185
  164MOL    C1419900   2.040   0.375   4.863 -0.0095 -0.0627 -0.0854
  164MOL    F1519901   2.084   0.473   4.787 -0.3834  0.0880  0.0713
  164MOL    F1619902   2.108   0.266   4.838 -0.2550 -0.4585  0.0388
  164MOL    C1719903   1.894   0.344   4.814 -0.5842  0.0412 -0.1521
  164MOL    H1819904   1.836   0.435   4.828  2.0337  1.2715  3.5730
  164MOL    H1919905   1.850   0.276   4.886 -0.7350 -0.5817 -0.8199
  164MOL    C2019906   1.886   0.268   4.681  0.0810  0.4316 -0.7607
  164MOL    F2119907   1.959   0.336   4.585 -0.6227  0.3375  0.0237
  164MOL    F2219908   1.949   0.147   4.701 -0.1474 -0.4153  0.3023
  164MOL    C2319909   1.736   0.254   4.628 -0.7830 -0.2239  0.3319
  164MOL    H2419910   1.700   0.353   4.599 -2.3191 -0.9146 -0.1393
  164MOL    H2519911   1.678   0.225   4.716 -0.6190  2.3923  1.3622
  164MOL    C2619912   1.711   0.168   4.504 -0.0519 -0.4452 -0.2094
  164MOL    F2719913   1.589   0.177   4.454 -0.0834 -0.7161 -0.1231
  164MOL    F2819914   1.791   0.213   4.407 -0.4610  0.3825 -0.0880
  164MOL    C2919915   1.746   0.016   4.517 -0.1802 -0.3783 -0.4229
  164MOL    H3019916   1.854   0.003   4.526 -0.3163 -0.9026  0.5889
  164MOL    H3119917   1.731   8.325   4.417 -3.0909 -0.9249  0.1937
  164MOL    C3219918   1.666   8.305   4.631 -0.5977 -0.1833 -0.0240
  164MOL    F3319919   1.707   0.001   4.745  0.2330 -0.6231 -0.3970
  164MOL    F3419920   1.537   8.334   4.619  0.3036 -0.5714  0.0657
  164MOL    C3519921   1.680   8.158   4.626 -0.1461  0.8023 -0.0956
  164MOL    H3619922   1.618   8.130   4.541 -0.5412  0.8757  0.1673
  164MOL    H3719923   1.633   8.105   4.709  0.7091  1.0895  0.5806
  164MOL    C3819924   1.824   8.101   4.607 -0.4726 -0.4145  0.1217
  164MOL    F3919925   1.860   8.114   4.477  0.6006  0.1909  0.3183
  164MOL    F4019926   1.910   8.186   4.677  0.6518 -0.0084  0.0939
  164MOL    C4119927   1.832   7.952   4.653  0.3182 -0.2060 -0.0986
  164MOL    H4219928   1.794   7.939   4.754  0.1261  1.6015  0.0939
  164MOL    H4319929   1.929   7.903   4.651  0.2339 -0.3969  0.4183
  164MOL    C4419930   1.742   7.859   4.566  0.3662  0.3246  0.1146
  164MOL    F4519931   1.768   7.735   4.618 -0.0602 -0.3045 -0.1778
  164MOL    F4619932   1.619   7.894   4.601 -0.3430  0.2547  0.0882
  164MOL    C4719933   1.755   7.849   4.409  0.7253 -0.6379  0.5393
  164MOL    H4819934   1.844   7.796   4.376 -1.2852 -2.3396 -2.3978
  164MOL    H4919935   1.765   7.939   4.349 -3.9342 -1.1641 -1.2564
  164MOL    C5019936   1.648   7.752   4.345 -0.6619  0.1313 -0.7967
  164MOL    F5119937   1.690   7.732   4.215 -0.3472 -0.1950 -0.2830
  164MOL    F5219938   1.659   7.635   4.410 -0.1949  0.3322 -0.0331
  164MOL    C5319939   1.497   7.794   4.347  0.1011  0.1160 -0.5657
  164MOL    H5419940   1.475   7.790   4.454  2.5808 -1.1376 -0.0560
  164MOL    H5519941   1.433   7.712   4.315  0.4289 -1.9532  3.6962
  164MOL    C5619942   1.449   7.931   4.286  0.5291  1.0306  0.3159
  164MOL    F5719943   1.522   8.030   4.321  0.3165  0.0701  0.7196
  164MOL    F5819944   1.446   7.926   4.157 -0.4338  0.3419 -0.3702
  164MOL    C5919945   1.310   7.976   4.326 -0.8671  0.0980  0.1624
  164MOL    H6019946   1.243   7.905   4.279 -0.8020  1.3669 -1.9140
  164MOL    H6119947   1.298   8.073   4.276  1.4984 -0.1838 -1.0355
  164MOL    C6219948   1.276   7.982   4.481 -0.0541 -0.4560 -0.2766
  164MOL    F6319949   1.268   7.858   4.533 -0.0793  0.3645 -0.1771
  164MOL    F6419950   1.379   8.048   4.532 -0.1168  0.2880 -0.2105
  164MOL    C6519951   1.148   8.061   4.519  0.2072 -0.9821  0.0685
  164MOL    H6619952   1.132   8.147   4.454 -0.5668 -0.9217  0.3333
  164MOL    H6719953   1.159   8.097   4.621  0.8410  0.6490 -0.5710
  164MOL    C6819954   1.023   7.979   4.520  0.4870 -0.0341 -0.2302
  164MOL    F6919955   0.999   7.934   4.392  0.1112  0.8457 -0.2425
  164MOL    F7019956   1.035   7.875   4.603 -0.3109 -0.0597  0.2523
  164MOL    C7119957   0.901   8.070   4.543  0.0713 -0.8080 -0.3908
  164MOL    H7219958   0.875   8.114   4.447  2.6894  0.2302 -0.6568
  164MOL    H7319959   0.920   8.151   4.614 -0.1321 -0.0618 -1.1825
  164MOL    C7419960   0.781   7.992   4.594 -0.1245 -0.2672 -0.3869
  164MOL    F7519961   0.798   7.983   4.729 -0.4423 -0.1321  0.6746
  164MOL    F7619962   0.677   8.070   4.582 -0.2398 -0.5563 -0.2704
  164MOL    C7719963   0.749   7.857   4.517 -0.0785  0.2006  0.1135
  164MOL    H7819964   0.825   7.781   4.535  0.0012  0.1254 -0.5308
  164MOL    H7919965   0.757   7.890   4.413 -2.9800  1.1759  0.1515
  164MOL    C8019966   0.614   7.791   4.531 -0.5143 -0.0891  0.1022
  164MOL    F8119967   0.590   7.743   4.654  0.2551  0.4042 -0.3589
  164MOL    F8219968   0.519   7.879   4.507  0.1089 -0.4263 -0.3684
  164MOL    C8319969   0.596   7.670   4.428  0.9740 -1.1578 -0.3323
  164MOL    H8419970   0.645   7.695   4.335  2.5115 -2.3125  0.1484
  164MOL    H8519971   0.489   7.653   4.412  0.4559  1.3316  0.3782
  164MOL    C8619972   0.655   7.537   4.461 -0.5959  0.0141 -0.4027
  164MOL    F8719973   0.782   7.536   4.488 -0.4245 -0.1506  0.3358
  164MOL    F8819974   0.593   7.489   4.566 -0.1097  0.4479 -0.2566
  164MOL    C8919975   0.636   7.445   4.334 -0.0193 -0.8822  0.2078
  164MOL    H9019976   0.697   7.490   4.256 -0.0381 -0.8913  0.1887
  164MOL    H9119977   0.537   7.460   4.292  1.4438  0.3544 -2.9650
  164MOL    C9219978   0.684   7.295   4.335 -0.3841 -0.2163 -0.3502
  164MOL    F9319979   0.816   7.315   4.353 -0.0177 -0.3744  0.0270
  164MOL    F9419980   0.635   7.219   4.437 -0.4867 -0.2042  0.5691
  164MOL    C9519981   0.669   7.227   4.195  0.6372  0.7324  0.4911
  164MOL    H9619982   0.702   7.297   4.118  2.5802 -0.1755  0.4689
  164MOL    H9719983   0.565   7.211   4.168  1.0742 -0.0202 -0.8261
  164MOL    C9819984   0.757   7.098   4.163  0.3783 -0.4419  0.3334
  164MOL    F9919985   0.717   7.056   4.042 -0.0148 -0.1298  0.5634
  164MOL   F10019986   0.885   7.147   4.150  0.2245 -0.2664  0.1032
  164MOL   C10119987   0.762   6.987   4.275  0.6492  0.3376 -0.1208
  164MOL   H10219988   0.797   7.028   4.369 -3.7820  0.7851  1.4251
  164MOL   H10319989   0.837   6.910   4.254  0.4793  0.3787 -0.8940
  164MOL   C10419990   0.621   6.923   4.300  1.3298  0.4263 -0.0218
  164MOL   F10519991   0.638   6.837   4.403  0.1346 -0.1675  0.0830
  164MOL   F10619992   0.528   7.008   4.342  0.2615 -0.6364  0.1369
  164MOL   C10719993   0.549   6.849   4.184  0.2083 -0.7783  0.2365
  164MOL   H10819994   0.520   6.921   4.107 -1.8584  0.3057  1.9606
  164MOL   H10919995   0.459   6.806   4.227 -0.1712 -1.1334 -0.8879
  164MOL   C11019996   0.634   6.732   4.123  0.0759  0.4219  0.2574
  164MOL   F11119997   0.749   6.782   4.068  0.2170 -0.1902  0.2581
  164MOL   F11219998   0.672   6.647   4.222 -0.0049 -0.0929  0.1753
  164MOL   C11319999   0.567   6.650   4.016  0.2741 -0.1229 -0.2311
  164MOL   H11420000   0.624   6.558   4.003  2.7440  0.9906  2.0565
  164MOL   H11520001   0.566   6.712   3.926  0.8770 -0.0251 -0.1765
  164MOL   C11620002   0.421   6.607   4.042  0.1241  0.8362 -0.2214
  164MOL   F11720003   0.416   6.554   4.165  0.7769 -0.1479 -0.3131
  164MOL   F11820004   0.340   6.714   4.038  0.2946 -0.0138 -0.2359
  164MOL   C11920005   0.368   6.498   3.951 -0.0507  0.4659  0.0581
  164MOL   H12020006   0.270   6.464   3.982  0.0309  1.1562  1.0944
  164MOL   H12120007   0.418   6.404   3.970 -0.6578  0.1912  0.2962
  164MOL   H12220008   0.371   6.519   3.844 -1.1438 -0.1906 -0.1084
  165MOL     C120009   2.463   4.172   3.648 -0.1989 -0.0369  0.0121
  165MOL     F220010   2.536   4.100   3.567  0.0245  0.5347 -0.4225
  165MOL     F320011   2.442   4.290   3.588  0.2346  0.1932 -0.2162
  165MOL     C420012   2.548   4.193   3.776 -0.2607 -0.5732  0.7224
  165MOL     H520013   2.485   4.259   3.837  0.5772  0.8523  0.0596
  165MOL     H620014   2.641   4.238   3.741  0.4761 -2.7637 -0.2170
  165MOL     H720015   2.370   4.117   3.664 -0.0043  0.1794  2.0171
  165MOL     C820016   2.573   4.065   3.857  0.2117 -0.3419  0.2584
  165MOL     F920017   2.452   4.039   3.907 -0.4189 -0.0019  0.5186
  165MOL    F1020018   2.623   3.961   3.784 -0.2484  0.5364  0.0229
  165MOL    C1120019   2.663   4.107   3.973 -0.2153 -0.2523 -0.0290
  165MOL    H1220020   2.625   4.198   4.018 -2.3419 -0.6958 -0.8979
  165MOL    H1320021   2.761   4.132   3.930 -0.3058  1.8877  0.9549
  165MOL    C1420022   2.684   4.005   4.085 -0.7359  0.1970  0.8229
  165MOL    F1520023   2.577   4.013   4.158  0.4724  0.7267 -0.1243
  165MOL    F1620024   2.697   3.885   4.026  0.2999 -0.4739 -0.2586
  165MOL    C1720025   2.801   4.042   4.176  0.2036  0.7023  0.1669
  165MOL    H1820026   2.774   4.136   4.223 -1.1157 -0.1157  1.0523
  165MOL    H1920027   2.884   4.059   4.107 -0.7662  0.8988 -0.9744
  165MOL    C2020028   2.849   3.942   4.282  0.2646  0.1366 -0.1702
  165MOL    F2120029   2.746   3.924   4.364  0.0243  0.2581  0.1754
  165MOL    F2220030   2.886   3.829   4.222 -0.5514  0.2241 -0.1954
  165MOL    C2320031   2.973   4.001   4.354 -0.3382  0.8326 -0.7526
  165MOL    H2420032   2.951   4.102   4.388 -2.4718  0.0260  0.3545
  165MOL    H2520033   3.055   4.011   4.283  0.9617  0.7027  0.7002
  165MOL    C2620034   3.016   3.904   4.471 -0.0983 -0.3195 -0.4683
  165MOL    F2720035   2.925   3.899   4.568 -0.5636 -0.1651 -0.1673
  165MOL    F2820036   3.038   3.777   4.429  0.8174  0.1700  0.5675
  165MOL    C2920037   3.148   3.945   4.544 -0.0980 -0.6199  0.6162
  165MOL    H3020038   3.219   3.953   4.462  0.7379 -1.8562  1.2065
  165MOL    H3120039   3.173   3.861   4.608  0.2215 -0.3975  0.7845
  165MOL    C3220040   3.162   4.073   4.624  0.0045 -0.3476  0.1905
  165MOL    F3320041   3.138   4.184   4.546 -0.4222 -0.3192 -0.1016
  165MOL    F3420042   3.074   4.073   4.722  0.2774  0.1960  0.1369
  165MOL    C3520043   3.298   4.103   4.686 -0.3316 -0.1553 -0.2404
  165MOL    H3620044   3.301   4.195   4.745  0.7753 -0.1820 -0.2321
  165MOL    H3720045   3.358   4.139   4.602 -0.7071 -0.1529 -0.5060
  165MOL    C3820046   3.377   3.985   4.759 -0.0305  0.0710  0.1603
  165MOL    F3920047   3.318   3.934   4.866 -0.0278  0.2075  0.1886
  165MOL    F4020048   3.404   3.902   4.651 -0.1390  0.0046 -0.4707
  165MOL    C4120049   3.519   4.036   4.792 -0.2204 -0.1668 -0.5205
  165MOL    H4220050   3.503   4.129   4.847  1.2108  0.0311 -0.3983
  165MOL    H4320051   3.570   4.060   4.698  1.3046 -0.2754  0.2526
  165MOL    C4420052   3.605   3.934   4.876  0.5368 -0.4198 -0.4419
  165MOL    F4520053   3.718   3.992   4.885 -0.3740 -0.4512  0.5235
  165MOL    F4620054   3.554   3.923   4.992  0.2142 -0.6676  0.6778
  165MOL    C4720055   3.624   3.797   4.818  0.4303  0.0343  0.6249
  165MOL    H4820056   3.664   3.801   4.717 -0.0735  0.9501  0.4511
  165MOL    H4920057   3.529   3.742   4.818 -1.4511  3.1030 -1.4809
  165MOL    C5020058   3.723   3.710   4.897  0.6139 -0.3658  0.4928
  165MOL    F5120059   3.840   3.766   4.890 -0.0078  0.1410  0.3677
  165MOL    F5220060   3.688   3.706   5.028  0.2667  0.1794 -0.3060
  165MOL    C5320061   3.741   3.565   4.841  0.3076 -0.2052 -0.3826
  165MOL    H5420062   3.820   3.517   4.899  0.9214  1.5164  0.2186
  165MOL    H5520063   3.765   3.569   4.735 -0.8950 -0.0925 -0.6554
  165MOL    C5620064   3.618   3.476   4.866 -0.0461  0.5655 -0.1312
  165MOL    F5720065   3.601   3.464   5.000  0.2657 -0.1698 -0.7027
  165MOL    F5820066   3.512   3.529   4.814 -0.0828  0.1530  0.2697
  165MOL    C5920067   3.643   3.335   4.815  0.0236 -0.8813  0.0108
  165MOL    H6020068   3.724   3.292   4.874 -0.8477 -0.8790  1.2251
  165MOL    H6120069   3.692   3.340   4.718 -0.4807  1.4548 -0.1492
  165MOL    C6220070   3.525   3.241   4.818 -0.2909  0.4020 -0.0801
  165MOL    F6320071   3.431   3.263   4.728 -0.1591 -0.5243  0.2522
  165MOL    F6420072   3.587   3.120   4.791  0.3497 -0.3254  0.3195
  165MOL    C6520073   3.452   3.219   4.956 -0.2163  0.2086 -0.9207
  165MOL    H6620074   3.405   3.313   4.984 -0.0247  0.3090 -0.9386
  165MOL    H6720075   3.526   3.194   5.032 -0.6054  1.4139 -0.1249
  165MOL    C6820076   3.345   3.112   4.958  0.5147  0.4666  0.2511
  165MOL    F6920077   3.255   3.139   4.863 -0.0884  0.0031  0.1383
  165MOL    F7020078   3.409   2.994   4.929  0.0703  0.1745 -0.0691
  165MOL    C7120079   3.259   3.099   5.087  0.0258  1.0724  0.3428
  165MOL    H7220080   3.182   3.027   5.062 -0.3413  1.6427 -0.1632
  165MOL    H7320081   3.208   3.195   5.098  1.3272  1.6725  1.2873
  165MOL    C7420082   3.320   3.040   5.215 -0.6039  0.4304  0.3232
  165MOL    F7520083   3.430   3.113   5.242 -0.2872 -0.0157 -0.0561
  165MOL    F7620084   3.235   3.051   5.316 -0.2568  0.1368  0.2446
  165MOL    C7720085   3.364   2.889   5.197 -0.5812  0.0846 -0.1312
  165MOL    H7820086   3.444   2.873   5.124  1.3427 -1.9054  2.3088
  165MOL    H7920087   3.274   2.831   5.179  1.0071 -2.5349  0.0300
  165MOL    C8020088   3.431   2.831   5.324 -0.2482  0.2854 -0.4587
  165MOL    F8120089   3.549   2.895   5.327  0.0714 -0.2351  0.2153
  165MOL    F8220090   3.357   2.858   5.432  0.7093  0.0121  0.1288
  165MOL    C8320091   3.453   2.678   5.310  0.5619  0.6424 -0.0921
  165MOL    H8420092   3.506   2.645   5.400 -1.1126  0.1546  0.7283
  165MOL    H8520093   3.510   2.675   5.217 -1.1923 -0.7077 -1.1574
  165MOL    C8620094   3.331   2.585   5.298  0.2765 -0.7118 -0.0001
  165MOL    F8720095   3.273   2.600   5.175 -0.1855  0.4937  0.1450
  165MOL    F8820096   3.394   2.463   5.300 -0.0017 -0.2844 -0.4560
  165MOL    C8920097   3.226   2.595   5.415  0.2357 -0.0311 -0.3961
  165MOL    H9020098   3.183   2.695   5.419 -2.1797 -0.9747 -1.2500
  165MOL    H9120099   3.277   2.574   5.509 -0.6102 -1.3232 -0.2030
  165MOL    C9220100   3.111   2.478   5.414  0.5151 -0.1336 -1.0319
  165MOL    F9320101   3.053   2.494   5.532  0.5087  0.0524 -0.4666
  165MOL    F9420102   3.013   2.504   5.323  0.0945  0.4241  0.3694
  165MOL    C9520103   3.160   2.330   5.397  0.5684 -0.2329 -0.2068
  165MOL    H9620104   3.244   2.309   5.463  0.2178 -0.4266  0.1805
  165MOL    H9720105   3.202   2.312   5.298 -0.0756  1.7963 -0.8725
  165MOL    C9820106   3.053   2.223   5.447 -0.4294  0.1150 -0.0446
  165MOL    F9920107   3.111   2.095   5.459 -0.0656 -0.3851 -0.0384
  165MOL   F10020108   3.019   2.251   5.567 -0.1817  0.0763  0.5492
  165MOL   C10120109   2.938   2.222   5.357  0.2017 -0.1117 -0.3973
  165MOL   H10220110   2.965   2.228   5.251 -0.3759 -0.6092 -0.5790
  165MOL   H10320111   2.887   2.316   5.378 -0.6430 -0.5740 -0.3646
  165MOL   C10420112   2.828   2.116   5.372  0.3617 -0.6325 -0.3551
  165MOL   F10520113   2.734   2.155   5.292 -0.4266  0.3885  0.0519
  165MOL   F10620114   2.877   2.003   5.322 -0.1332 -0.0312 -0.4119
  165MOL   C10720115   2.773   2.101   5.515 -0.1246 -0.5410 -0.2518
  165MOL   H10820116   2.751   2.192   5.571  0.4643 -1.9652  2.4094
  165MOL   H10920117   2.851   2.056   5.577 -0.2777  0.2518  0.5336
  165MOL   C11020118   2.644   2.018   5.515  0.3411 -0.1611  0.2569
  165MOL   F11120119   2.596   2.017   5.639  0.4559  0.1454  0.1837
  165MOL   F11220120   2.556   2.068   5.431  0.3921 -0.1244 -0.3688
  165MOL   C11320121   2.644   1.862   5.474 -0.6989  0.0096  0.4852
  165MOL   H11420122   2.671   1.869   5.369  1.2848  3.6036  1.1724
  165MOL   H11520123   2.541   1.826   5.476 -1.2526  1.6045  1.2052
  165MOL   C11620124   2.735   1.776   5.557 -0.3824  0.7210  0.2812
  165MOL   F11720125   2.859   1.823   5.543 -0.1975 -0.2634  0.4143
  165MOL   F11820126   2.700   1.771   5.684 -0.3320 -0.6281 -0.1035
  165MOL   C11920127   2.747   1.633   5.492  0.1695  0.4320 -0.4483
  165MOL   H12020128   2.815   1.570   5.549  0.2681  0.3405 -0.6672
  165MOL   H12120129   2.793   1.627   5.393  0.7145  0.5440 -0.2031
  165MOL   H12220130   2.648   1.587   5.483 -0.9626  2.2164  2.2187
  166MOL     C120131   1.643   1.983   0.916  0.2227 -0.3009  0.3485
  166MOL     F220132   1.635   2.101   0.845  0.1359  0.5559 -0.6282
  166MOL     F320133   1.689   1.876   0.849  0.9662  0.0010  0.2108
  166MOL     C420134   1.497   1.946   0.958 -0.5853 -0.4403  0.2943
  166MOL     H520135   1.443   1.934   0.864  0.6216  0.3872 -0.5191
  166MOL     H620136   1.457   2.034   1.009 -0.8305 -1.0329  1.1304
  166MOL     H720137   1.705   2.001   1.003 -1.5363  0.7476  1.4196
  166MOL     C820138   1.491   1.817   1.046  0.4591 -0.1377 -0.2841
  166MOL     F920139   1.568   1.722   0.996 -0.3707  0.2935  0.3771
  166MOL    F1020140   1.532   1.848   1.166 -0.2161  0.3439 -0.1274
  166MOL    C1120141   1.353   1.756   1.049 -0.4604 -0.0838  0.5781
  166MOL    H1220142   1.342   1.697   0.958  0.1676  1.2819 -0.4055
  166MOL    H1320143   1.282   1.839   1.047  0.1877  0.4659  0.1893
  166MOL    C1420144   1.321   1.679   1.177 -0.0107  0.2675  0.2657
  166MOL    F1520145   1.315   1.760   1.274  0.0490  0.3285 -0.6995
  166MOL    F1620146   1.197   1.632   1.158 -0.3032 -0.1582 -0.5737
  166MOL    C1720147   1.417   1.559   1.207  0.1011 -0.4652  0.6636
  166MOL    H1820148   1.521   1.591   1.214 -0.5406  1.9299 -0.4784
  166MOL    H1920149   1.419   1.484   1.128 -0.6712  4.0705 -3.9078
  166MOL    C2020150   1.387   1.486   1.336  0.0704 -0.5220 -0.0401
  166MOL    F2120151   1.461   1.378   1.336  0.1103 -0.2629  0.1609
  166MOL    F2220152   1.442   1.565   1.438 -0.3490 -0.4546  0.1407
  166MOL    C2320153   1.240   1.447   1.369  0.2316  0.6178  0.2677
  166MOL    H2420154   1.194   1.409   1.277  0.5718 -0.8396  0.6870
  166MOL    H2520155   1.187   1.534   1.407  2.4808  3.3029 -2.4993
  166MOL    C2620156   1.216   1.329   1.471  0.2479  0.0822  0.3075
  166MOL    F2720157   1.083   1.323   1.489  0.0941  0.4339  0.2684
  166MOL    F2820158   1.261   1.208   1.428  0.4750 -0.0533  0.3082
  166MOL    C2920159   1.279   1.359   1.615  0.0020  0.0882  0.3825
  166MOL    H3020160   1.262   1.461   1.649 -1.0783 -0.3341  1.1703
  166MOL    H3120161   1.385   1.360   1.590  0.4891 -2.0650  2.1204
  166MOL    C3220162   1.266   1.254   1.721  0.1513  0.2736 -0.0697
  166MOL    F3320163   1.296   1.135   1.676  0.3033 -0.4462 -0.4618
  166MOL    F3420164   1.360   1.283   1.812 -0.0755 -0.3060  0.2603
  166MOL    C3520165   1.131   1.257   1.787 -0.6791 -0.2359  0.1634
  166MOL    H3620166   1.051   1.238   1.715 -0.3310  0.3109 -0.3732
  166MOL    H3720167   1.107   1.353   1.832  0.4193 -0.1787  0.6524
  166MOL    C3820168   1.125   1.158   1.911 -0.3063 -0.2429 -1.0453
  166MOL    F3920169   1.140   1.033   1.863 -0.3099 -0.2414  0.0157
  166MOL    F4020170   1.224   1.189   2.001 -0.1266 -0.0071  0.2969
  166MOL    C4120171   0.996   1.165   1.996  0.4271 -0.6304 -0.0852
  166MOL    H4220172   0.921   1.125   1.928 -1.7340  3.2103 -0.1032
  166MOL    H4320173   0.977   1.261   2.042 -0.2446 -0.2943 -1.0579
  166MOL    C4420174   0.990   1.070   2.126 -0.3125  1.0335  0.4424
  166MOL    F4520175   1.100   1.082   2.202 -0.0240 -0.0353 -0.3103
  166MOL    F4620176   0.888   1.119   2.198 -0.2518 -0.0959  0.4344
  166MOL    C4720177   0.950   0.924   2.095 -0.3120 -0.4678  0.1547
  166MOL    H4820178   1.029   0.884   2.032  0.8561 -1.4418  2.1849
  166MOL    H4920179   0.861   0.927   2.032  0.1321 -1.4552 -0.5371
  166MOL    C5020180   0.950   0.817   2.218  0.1770  0.7409  0.4181
  166MOL    F5120181   0.867   0.861   2.310 -0.2596  0.2359 -0.6295
  166MOL    F5220182   0.891   0.705   2.177 -0.5307  0.2742 -0.3891
  166MOL    C5320183   1.090   0.791   2.281 -0.0095 -0.6189 -0.1778
  166MOL    H5420184   1.137   0.883   2.314  2.5321 -0.3066 -4.2489
  166MOL    H5520185   1.149   0.757   2.195 -0.6830 -3.0261  0.2669
  166MOL    C5620186   1.097   0.685   2.391 -0.7675  0.1204  0.3825
  166MOL    F5720187   1.031   0.576   2.351 -0.0832  0.0618 -0.5692
  166MOL    F5820188   1.223   0.641   2.385 -0.1999 -0.1161 -0.0591
  166MOL    C5920189   1.050   0.720   2.533 -0.1077  0.0588  0.6061
  166MOL    H6020190   1.055   0.626   2.587  1.0626 -0.2727 -0.0558
  166MOL    H6120191   0.944   0.742   2.526 -0.6487 -1.8333  2.2513
  166MOL    C6220192   1.132   0.816   2.622  0.4391 -0.0255 -0.8271
  166MOL    F6320193   1.139   0.938   2.574 -0.2665 -0.1469 -0.6127
  166MOL    F6420194   1.059   0.820   2.732 -0.1120 -0.1236 -0.4626
  166MOL    C6520195   1.267   0.753   2.660  0.3341  0.0413  0.3081
  166MOL    H6620196   1.339   0.776   2.581 -0.3509 -1.4276 -0.7835
  166MOL    H6720197   1.259   0.644   2.656  0.2437  0.0776 -0.6983
  166MOL    C6820198   1.328   0.806   2.793 -0.2774  0.2407  0.1573
  166MOL    F6920199   1.455   0.767   2.796 -0.3998 -0.1118  0.2536
  166MOL    F7020200   1.324   0.936   2.804 -0.0987  0.0154  0.0933
  166MOL    C7120201   1.265   0.754   2.926  0.1332 -0.3415 -0.3705
  166MOL    H7220202   1.181   0.819   2.952  0.9906  0.9031 -0.6255
  166MOL    H7320203   1.340   0.781   3.001 -0.6990 -0.3388  0.4655
  166MOL    C7420204   1.221   0.608   2.937  0.8434 -0.7034  0.2325
  166MOL    F7520205   1.124   0.583   2.850 -0.0249  0.0047 -0.5075
  166MOL    F7620206   1.328   0.535   2.913  0.1850 -0.0207  0.1918
  166MOL    C7720207   1.163   0.577   3.081 -0.2781  0.3829 -0.1863
  166MOL    H7820208   1.074   0.634   3.104 -0.5074 -0.5836  1.4673
  166MOL    H7920209   1.239   0.601   3.156  0.9449  1.3701 -1.7307
  166MOL    C8020210   1.123   0.432   3.103  0.2922 -0.6983 -0.6183
  166MOL    F8120211   1.231   0.353   3.105 -0.0207 -0.2897  0.3212
  166MOL    F8220212   1.062   0.433   3.225  0.1203 -0.1139 -0.1581
  166MOL    C8320213   1.041   0.368   3.000  0.2000 -0.5894  0.2361
  166MOL    H8420214   1.095   0.353   2.906  0.8260  0.2329  0.4585
  166MOL    H8520215   0.956   0.428   2.968  0.4949 -0.8602 -1.1122
  166MOL    C8620216   0.979   0.229   3.033 -0.0590 -0.1287 -0.5226
  166MOL    F8720217   0.955   0.167   2.913 -0.0089  0.1391  0.2718
  166MOL    F8820218   1.070   0.167   3.106  0.1264 -0.1064  0.0545
  166MOL    C8920219   0.847   0.238   3.117 -0.9107 -0.3368 -0.4719
  166MOL    H9020220   0.769   0.288   3.060 -0.8229  2.4187  1.7436
  166MOL    H9120221   0.877   0.300   3.201 -1.3987 -0.7889  0.0443
  166MOL    C9220222   0.789   0.108   3.171  0.5753  0.6107 -0.0478
  166MOL    F9320223   0.764   0.024   3.073 -0.1295  0.0817  0.1984
  166MOL    F9420224   0.886   0.057   3.247 -0.0694  0.5455 -0.3912
  166MOL    C9520225   0.672   0.133   3.271 -0.4877  0.8910 -0.6026
  166MOL    H9620226   0.709   0.213   3.335  1.8767 -1.8921  1.6391
  166MOL    H9720227   0.650   0.054   3.343 -1.7440  3.0142  1.4202
  166MOL    C9820228   0.531   0.160   3.205  0.2155 -0.2867 -0.5241
  166MOL    F9920229   0.547   0.279   3.140  0.0458 -0.3044 -0.2886
  166MOL   F10020230   0.505   0.065   3.118  0.1036 -0.4841 -0.1482
  166MOL   C10120231   0.431   0.185   3.314 -0.0150  0.6722 -0.5034
  166MOL   H10220232   0.446   0.274   3.374  0.7782  0.1861  0.0220
  166MOL   H10320233   0.441   0.101   3.384 -0.7491 -0.3438 -1.5921
  166MOL   C10420234   0.286   0.200   3.269  0.5227 -0.2057  0.0269
  166MOL   F10520235   0.267   0.310   3.188 -0.4476 -0.1983  0.3655
  166MOL   F10620236   0.257   0.092   3.198 -0.3917  0.0553  0.3932
  166MOL   C10720237   0.188   0.202   3.389 -0.6398  0.3393  0.6774
  166MOL   H10820238   0.227   0.279   3.456 -0.4661  0.1118  0.8384
  166MOL   H10920239   0.215   0.120   3.455  0.1931  0.3446  0.3431
  166MOL   C11020240   0.035   0.222   3.342  0.1152 -0.2985 -0.4903
  166MOL   F11120241   0.024   0.327   3.257 -0.4299 -0.1441 -0.0760
  166MOL   F11220242   8.345   0.116   3.273  0.5813  0.3893 -0.3015
  166MOL   C11320243   8.286   0.240   3.452 -0.0099  0.7726 -1.3806
  166MOL   H11420244   8.196   0.291   3.417 -1.4925 -1.3345 -0.7059
  166MOL   H11520245   8.339   0.301   3.526 -0.2979 -0.2273 -0.3250
  166MOL   C11620246   8.240   0.110   3.532 -0.2006  0.1664 -0.0060
  166MOL   F11720247   8.164   0.022   3.462 -0.2292 -0.3403 -0.3301
  166MOL   F11820248   0.003   0.048   3.565 -0.1384  0.2304  0.2563
  166MOL   C11920249   8.157   0.155   3.655  0.1537  0.5344 -1.1515
  166MOL   H12020250   8.075   0.219   3.625  1.4842  2.6695 -0.3101
  166MOL   H12120251   8.203   0.220   3.729 -0.1486  0.1720 -0.6353
  166MOL   H12220252   8.122   0.063   3.702  0.5990  0.2156 -1.4333
  167MOL     C120253   1.085   1.723   5.160 -0.4688  0.1401  0.5895
  167MOL     F220254   0.981   1.630   5.180  0.0965 -0.2217  0.7145
  167MOL     F320255   1.194   1.684   5.225 -0.5722 -0.1040 -0.4592
  167MOL     C420256   1.035   1.858   5.211  0.5008  0.3325 -0.8372
  167MOL     H520257   1.029   1.853   5.320  3.1590 -2.3108 -0.7365
  167MOL     H620258   0.935   1.881   5.176 -0.3157 -0.8594  0.6393
  167MOL     H720259   1.111   1.721   5.054 -0.5949  0.2202  0.5553
  167MOL     C820260   1.115   1.976   5.159  0.6677  0.1381  0.0259
  167MOL     F920261   1.239   1.950   5.190 -0.0410 -0.0451 -0.1298
  167MOL    F1020262   1.093   1.989   5.026 -0.0839  0.7004  0.4922
  167MOL    C1120263   1.076   2.108   5.234 -0.1205  0.2218  0.4928
  167MOL    H1220264   1.077   2.079   5.339 -1.2164 -1.6361  0.0210
  167MOL    H1320265   0.973   2.142   5.221  0.6157  2.2535 -0.1456
  167MOL    C1420266   1.153   2.240   5.208  0.4922 -0.0909  0.7644
  167MOL    F1520267   1.094   2.336   5.288 -0.2210  0.3057  0.0767
  167MOL    F1620268   1.276   2.229   5.249 -0.3432 -0.2170 -0.4217
  167MOL    C1720269   1.150   2.296   5.057  0.3822  0.0176 -0.2362
  167MOL    H1820270   1.199   2.216   5.002  0.1863 -0.3417  0.1108
  167MOL    H1920271   1.209   2.387   5.045  1.4619 -0.4322  1.4094
  167MOL    C2020272   1.008   2.325   4.992  0.3501 -0.1272 -0.2301
  167MOL    F2120273   0.943   2.212   4.984 -0.3797 -0.1851  0.8240
  167MOL    F2220274   0.942   2.411   5.065 -0.0576 -0.1641 -0.2184
  167MOL    C2320275   1.028   2.386   4.842  0.4318  0.3661  0.2188
  167MOL    H2420276   1.104   2.329   4.788  1.5055  2.4990 -0.5624
  167MOL    H2520277   1.074   2.485   4.849 -2.3887  1.7857 -0.7187
  167MOL    C2620278   0.893   2.394   4.763  0.1863  0.0121 -0.3234
  167MOL    F2720279   0.858   2.267   4.750 -0.4602 -0.5609 -0.1975
  167MOL    F2820280   0.805   2.460   4.836 -0.1046  0.1124 -0.3052
  167MOL    C2920281   0.903   2.455   4.622 -0.9081  0.4621 -0.5171
  167MOL    H3020282   0.985   2.402   4.573  1.4398  1.2465  2.4778
  167MOL    H3120283   0.938   2.558   4.630  2.0023 -0.5622  0.4500
  167MOL    C3220284   0.775   2.443   4.529 -0.2847 -0.0115 -0.0554
  167MOL    F3320285   0.724   2.324   4.535  0.4969 -0.8020  0.5098
  167MOL    F3420286   0.684   2.536   4.565 -0.3984 -0.5228 -0.1106
  167MOL    C3520287   0.799   2.458   4.373  0.0893  0.6400  0.0453
  167MOL    H3620288   0.705   2.460   4.317  1.8102 -0.7108 -3.0141
  167MOL    H3720289   0.857   2.379   4.326 -0.3461 -0.5109  1.4073
  167MOL    C3820290   0.878   2.587   4.335 -0.4572 -0.4347 -0.4370
  167MOL    F3920291   0.820   2.681   4.413  0.0636 -0.1828 -0.1458
  167MOL    F4020292   1.003   2.577   4.378  0.3555  0.0177 -0.3240
  167MOL    C4120293   0.864   2.629   4.186  0.4173  0.1086 -0.0845
  167MOL    H4220294   0.884   2.732   4.157  0.7118  0.2208  0.4961
  167MOL    H4320295   0.762   2.605   4.157  0.4024 -3.6945  2.6113
  167MOL    C4420296   0.936   2.540   4.081 -0.1709 -0.1027 -0.0777
  167MOL    F4520297   0.873   2.425   4.085  0.2354  0.3029  0.0717
  167MOL    F4620298   0.900   2.594   3.965  0.0567  0.1339 -0.5129
  167MOL    C4720299   1.091   2.534   4.099 -0.0248  0.9957 -0.0049
  167MOL    H4820300   1.131   2.469   4.021  1.4164 -0.2164  1.6921
  167MOL    H4920301   1.111   2.482   4.193  0.1915  1.5939  0.2898
  167MOL    C5020302   1.172   2.667   4.102  0.0961  0.7456  0.0660
  167MOL    F5120303   1.121   2.742   4.001 -0.5698 -0.2050 -0.7231
  167MOL    F5220304   1.168   2.728   4.218  0.3120 -0.2201 -0.6714
  167MOL    C5320305   1.317   2.635   4.065  0.7369  0.5526  0.0487
  167MOL    H5420306   1.334   2.606   3.961 -0.4332  0.6754 -0.1765
  167MOL    H5520307   1.359   2.552   4.121  1.3225 -0.1470 -1.3946
  167MOL    C5620308   1.410   2.762   4.071  0.5284  0.0284 -0.4176
  167MOL    F5720309   1.345   2.866   4.002 -0.2049  0.1086 -0.1585
  167MOL    F5820310   1.426   2.797   4.200 -0.3413 -0.2072 -0.6383
  167MOL    C5920311   1.554   2.735   4.012  0.2746  0.3825 -0.1905
  167MOL    H6020312   1.608   2.829   4.025  1.0170  0.2790 -2.4157
  167MOL    H6120313   1.543   2.734   3.904  1.7136  0.4538 -0.3426
  167MOL    C6220314   1.630   2.603   4.054  0.2656  0.2788 -1.1885
  167MOL    F6320315   1.632   2.580   4.185  0.2746  0.1323 -0.3570
  167MOL    F6420316   1.559   2.493   4.008 -0.1476 -0.3096 -0.1720
  167MOL    C6520317   1.773   2.586   3.993  0.0750  0.5738 -0.0898
  167MOL    H6620318   1.777   2.558   3.888  0.0025  0.2185  0.0018
  167MOL    H6720319   1.814   2.503   4.052  1.3438  1.3656  0.1607
  167MOL    C6820320   1.876   2.703   4.012 -0.3880 -0.8286 -0.9244
  167MOL    F6920321   1.868   2.804   3.928 -0.5452  0.3651  0.3099
  167MOL    F7020322   1.846   2.759   4.136 -0.1848  0.3366  0.3129
  167MOL    C7120323   2.023   2.656   4.020  0.9359  0.1709 -0.0322
  167MOL    H7220324   2.018   2.586   4.103  0.2337  0.7447  0.4168
  167MOL    H7320325   2.097   2.730   4.052 -0.9777  2.2354 -0.2808
  167MOL    C7420326   2.078   2.595   3.885  0.4677 -0.1268 -0.1006
  167MOL    F7520327   2.018   2.474   3.871  0.2074  0.4568 -0.0267
  167MOL    F7620328   2.051   2.676   3.785  0.7480 -0.4212  0.3519
  167MOL    C7720329   2.233   2.572   3.881 -0.0072  0.0129 -0.5161
  167MOL    H7820330   2.277   2.669   3.906  3.7009 -1.2798 -1.6386
  167MOL    H7920331   2.261   2.565   3.776 -0.6239 -1.2706 -0.6051
  167MOL    C8020332   2.296   2.450   3.961 -0.4042 -0.1117 -0.4754
  167MOL    F8120333   2.420   2.480   3.987 -0.3018  0.3753  0.1636
  167MOL    F8220334   2.247   2.435   4.082 -0.3536 -0.3195  0.0541
  167MOL    C8320335   2.282   2.317   3.885  0.3564 -0.0177  0.0157
  167MOL    H8420336   2.328   2.316   3.786  0.1163 -2.7121 -0.1231
  167MOL    H8520337   2.176   2.305   3.862  0.2006  1.4318 -0.0540
  167MOL    C8620338   2.324   2.193   3.982 -1.1899 -0.3845 -0.6365
  167MOL    F8720339   2.447   2.221   4.030  0.2150  0.0536  0.4192
  167MOL    F8820340   2.247   2.175   4.085  0.0011  0.6354 -0.3658
  167MOL    C8920341   2.320   2.060   3.898  0.2655 -0.0402 -0.1118
  167MOL    H9020342   2.390   2.096   3.822  0.8964  0.2509  0.5925
  167MOL    H9120343   2.218   2.046   3.863  1.0521 -2.4110 -1.5670
  167MOL    C9220344   2.365   1.931   3.974  0.2814 -0.6035 -0.7789
  167MOL    F9320345   2.399   1.835   3.887  0.4167 -0.0369  0.0002
  167MOL    F9420346   2.476   1.975   4.039 -0.0529 -0.2894 -0.2710
  167MOL    C9520347   2.269   1.878   4.086 -0.0299 -0.0297 -0.1224
  167MOL    H9620348   2.260   1.950   4.167 -1.1349 -0.6850  0.3390
  167MOL    H9720349   2.319   1.791   4.127 -3.8103 -2.2871 -0.1388
  167MOL    C9820350   2.122   1.840   4.042  0.3279 -0.0971  0.2009
  167MOL    F9920351   2.060   1.957   4.032  0.4912 -0.0603  0.6473
  167MOL   F10020352   2.121   1.769   3.932  0.0578 -0.4353  0.1697
  167MOL   C10120353   2.039   1.764   4.140 -0.6242  0.4221 -0.3197
  167MOL   H10220354   2.021   1.823   4.230 -1.8370  0.5622 -0.6425
  167MOL   H10320355   2.099   1.687   4.189 -1.1708  0.8858  1.1079
  167MOL   C10420356   1.905   1.701   4.105  0.2260  0.3964 -0.8795
  167MOL   F10520357   1.937   1.617   4.002  0.2474  0.4081 -0.7535
  167MOL   F10620358   1.866   1.620   4.207  0.7787 -0.1109  0.0865
  167MOL   C10720359   1.789   1.794   4.074  0.5091  0.3318  0.3390
  167MOL   H10820360   1.824   1.868   4.002  1.6987  0.5592  1.1241
  167MOL   H10920361   1.776   1.857   4.163  0.2274  0.8841 -0.0883
  167MOL   C11020362   1.645   1.749   4.049  0.2856  0.2064 -0.0362
  167MOL   F11120363   1.586   1.703   4.164 -0.2403 -0.4156  0.4370
  167MOL   F11220364   1.587   1.868   4.011  0.5847 -0.2449  0.3024
  167MOL   C11320365   1.640   1.648   3.935 -0.2901  0.0740  0.1803
  167MOL   H11420366   1.677   1.555   3.977 -0.7219 -0.5054 -0.7180
  167MOL   H11520367   1.707   1.672   3.852 -0.0803  1.0407  0.6161
  167MOL   C11620368   1.500   1.617   3.877  0.3228 -0.4187  0.8350
  167MOL   F11720369   1.447   1.732   3.820 -0.5758  0.0510  0.0395
  167MOL   F11820370   1.528   1.531   3.771 -0.3420 -0.0821 -0.3847
  167MOL   C11920371   1.396   1.550   3.969 -0.0559 -0.4991 -0.4317
  167MOL   H12020372   1.378   1.615   4.055 -0.8725 -2.2265  0.7213
  167MOL   H12120373   1.444   1.457   4.001  1.0567 -0.6310 -2.4289
  167MOL   H12220374   1.304   1.523   3.917 -0.4609  0.8043 -0.4174
  168MOL     C120375   5.532   3.553   6.373 -0.6282  0.0214  0.3223
  168MOL     F220376   5.664   3.569   6.372 -0.3233  0.2010  0.4223
  168MOL     F320377   5.498   3.558   6.503 -0.2451 -0.7565 -0.2017
  168MOL     C420378   5.505   3.416   6.312  0.1276  0.5323  0.1857
  168MOL     H520379   5.405   3.379   6.335 -0.3160  1.0039 -0.9194
  168MOL     H620380   5.562   3.350   6.378  1.3318  0.7580 -0.6077
  168MOL     H720381   5.478   3.632   6.320  0.7493 -0.8889 -2.5349
  168MOL     C820382   5.552   3.398   6.160  0.2872  0.1665 -0.1763
  168MOL     F920383   5.474   3.473   6.081 -0.1625  0.1583  0.1327
  168MOL    F1020384   5.677   3.440   6.141 -0.2081 -0.2552  0.7000
  168MOL    C1120385   5.554   3.250   6.104  0.2262 -0.6703  0.1734
  168MOL    H1220386   5.458   3.201   6.117 -1.3174  1.9822 -0.8526
  168MOL    H1320387   5.629   3.194   6.161  1.8754  0.6263 -0.6877
  168MOL    C1420388   5.586   3.238   5.954 -0.1733  0.3682  0.4657
  168MOL    F1520389   5.512   3.315   5.871 -0.2761  0.3174  0.5422
  168MOL    F1620390   5.715   3.277   5.943 -0.4749  0.2718  0.2958
  168MOL    C1720391   5.582   3.089   5.901  0.0717 -0.0431  0.0171
  168MOL    H1820392   5.639   3.022   5.966 -0.4290  0.1070  0.6246
  168MOL    H1920393   5.631   3.091   5.804 -0.3651 -3.5682 -0.3579
  168MOL    C2020394   5.442   3.038   5.859 -0.7432 -0.3160  0.0367
  168MOL    F2120395   5.362   3.068   5.956 -0.1832  0.1950 -0.0154
  168MOL    F2220396   5.424   3.104   5.747 -0.8554 -0.1763  0.2180
  168MOL    C2320397   5.439   2.886   5.824  0.7248  0.3736 -0.5450
  168MOL    H2420398   5.478   2.829   5.908  0.4810 -0.5521 -1.0559
  168MOL    H2520399   5.521   2.870   5.753  0.5284 -1.1571 -0.4420
  168MOL    C2620400   5.310   2.829   5.763  0.3779  0.1350  0.9134
  168MOL    F2720401   5.320   2.695   5.770  0.3293  0.4611 -0.1912
  168MOL    F2820402   5.204   2.857   5.836 -0.0183 -0.0537  0.0165
  168MOL    C2920403   5.276   2.862   5.618 -0.1722  0.5128 -0.4979
  168MOL    H3020404   5.264   2.970   5.617 -1.6604  0.3791  0.6137
  168MOL    H3120405   5.176   2.820   5.607 -0.4768  0.8633  0.7727
  168MOL    C3220406   5.368   2.823   5.499  0.0713  0.3045  1.0020
  168MOL    F3320407   5.476   2.901   5.505  0.2806 -0.1580 -0.3189
  168MOL    F3420408   5.396   2.694   5.523  0.1277  0.0847  0.2579
  168MOL    C3520409   5.300   2.835   5.367  0.3582  0.0980  0.1209
  168MOL    H3620410   5.207   2.780   5.361  0.8263 -0.4758 -2.3123
  168MOL    H3720411   5.367   2.794   5.292  0.3936  0.9952 -0.3429
  168MOL    C3820412   5.265   2.978   5.322 -0.6867 -0.1319  1.1047
  168MOL    F3920413   5.169   3.020   5.404  0.1028  0.0267  0.3908
  168MOL    F4020414   5.367   3.067   5.328  0.0935  0.2466  0.4583
  168MOL    C4120415   5.213   2.992   5.175 -0.8354  0.7313 -0.6815
  168MOL    H4220416   5.196   3.100   5.178 -0.4677  0.7386  2.2855
  168MOL    H4320417   5.123   2.932   5.157 -0.3560  0.4697 -2.3225
  168MOL    C4420418   5.315   2.963   5.058  0.3513 -0.1019 -0.5980
  168MOL    F4520419   5.435   3.022   5.076  0.3041 -0.5583  0.2160
  168MOL    F4620420   5.342   2.832   5.068  0.0044  0.0846 -0.1865
  168MOL    C4720421   5.263   2.992   4.912 -0.1449 -1.0011 -0.2135
  168MOL    H4820422   5.169   2.941   4.895 -0.8024 -0.5398  1.8276
  168MOL    H4920423   5.331   2.948   4.840 -1.0064 -0.5243 -1.3418
  168MOL    C5020424   5.241   3.139   4.878 -0.4978 -0.8170 -0.7376
  168MOL    F5120425   5.197   3.133   4.752  0.0066 -0.0514 -0.0689
  168MOL    F5220426   5.137   3.190   4.955 -0.1196  0.3153  0.6961
  168MOL    C5320427   5.372   3.229   4.888 -0.5621  0.0194 -0.2356
  168MOL    H5420428   5.446   3.175   4.828 -1.0302  0.4491 -1.2229
  168MOL    H5520429   5.402   3.234   4.992 -1.2665 -0.3194 -0.0082
  168MOL    C5620430   5.349   3.366   4.821  0.0390 -0.0429  0.7401
  168MOL    F5720431   5.462   3.434   4.843 -0.4703 -0.3584 -0.1976
  168MOL    F5820432   5.327   3.357   4.686 -0.2089  0.4729  0.0308
  168MOL    C5920433   5.238   3.461   4.878 -0.2883 -0.3026  0.3080
  168MOL    H6020434   5.145   3.406   4.893 -1.3089  0.8848 -1.4263
  168MOL    H6120435   5.228   3.544   4.808  0.3653  2.1337  2.9748
  168MOL    C6220436   5.269   3.528   5.011  0.0319 -0.2230 -0.3224
  168MOL    F6320437   5.314   3.431   5.098 -0.0559  0.3256 -0.4261
  168MOL    F6420438   5.359   3.623   5.005 -0.0001  0.2311  0.2717
  168MOL    C6520439   5.153   3.593   5.091 -0.1525  0.2797 -0.2310
  168MOL    H6620440   5.122   3.682   5.036  0.1410 -0.9775 -2.4632
  168MOL    H6720441   5.187   3.618   5.191  2.0414  0.4468 -1.0003
  168MOL    C6820442   5.029   3.499   5.121 -0.1291  0.0250  0.4935
  168MOL    F6920443   4.973   3.470   5.005 -0.2097  0.4174  0.1045
  168MOL    F7020444   5.061   3.386   5.179  0.2731 -0.3051 -0.2174
  168MOL    C7120445   4.926   3.566   5.215 -0.4688 -0.2977 -0.6433
  168MOL    H7220446   4.974   3.603   5.306  0.9213 -1.0460 -1.0430
  168MOL    H7320447   4.851   3.498   5.253 -0.5430  1.3618  2.2862
  168MOL    C7420448   4.846   3.680   5.155 -0.2211  0.6881 -0.7382
  168MOL    F7520449   4.805   3.762   5.253 -0.5912 -0.1565  0.0166
  168MOL    F7620450   4.920   3.756   5.078  0.1104 -0.4902  0.2618
  168MOL    C7720451   4.731   3.628   5.068 -0.2385 -0.0776 -0.3430
  168MOL    H7820452   4.674   3.558   5.128 -1.7382  2.8654  1.7669
  168MOL    H7920453   4.761   3.565   4.984 -1.0788 -1.6539  0.5051
  168MOL    C8020454   4.632   3.734   5.023  0.2446 -1.1021  0.1905
  168MOL    F8120455   4.559   3.690   4.922 -0.1094 -0.0168 -0.3277
  168MOL    F8220456   4.545   3.761   5.126 -0.2421  0.3649 -0.2985
  168MOL    C8320457   4.694   3.862   4.961  0.6587  0.5481 -1.0341
  168MOL    H8420458   4.771   3.843   4.887  0.3612  3.0829 -2.0438
  168MOL    H8520459   4.740   3.921   5.041  0.2248  0.2397 -0.5526
  168MOL    C8620460   4.595   3.954   4.891 -0.1872  0.4543  0.1791
  168MOL    F8720461   4.672   4.051   4.844  0.1668 -0.2489  0.0983
  168MOL    F8820462   4.541   3.885   4.786  0.3189  0.5312  0.4635
  168MOL    C8920463   4.482   4.009   4.991  0.3569 -0.1513  0.4053
  168MOL    H9020464   4.514   4.047   5.088 -1.7354  0.8659  0.7305
  168MOL    H9120465   4.426   3.919   5.014  0.5897 -0.7422 -1.2521
  168MOL    C9220466   4.375   4.100   4.928 -0.0848  0.5463  0.4349
  168MOL    F9320467   4.428   4.173   4.825  0.2103 -0.4506  0.1140
  168MOL    F9420468   4.276   4.022   4.877  0.1805 -0.7699 -0.0299
  168MOL    C9520469   4.315   4.206   5.021 -0.5641  0.1927 -0.3296
  168MOL    H9620470   4.385   4.285   5.046 -1.4797  1.7775 -2.5098
  168MOL    H9720471   4.283   4.158   5.113 -0.5689 -0.6615 -0.7672
  168MOL    C9820472   4.185   4.280   4.961 -0.5830  0.4739 -0.3445
  168MOL    F9920473   4.089   4.196   4.934  0.3837 -0.0987  0.0150
  168MOL   F10020474   4.138   4.350   5.060 -0.2364 -0.3193 -0.1703
  168MOL   C10120475   4.201   4.368   4.836  0.1563 -0.6344 -0.3418
  168MOL   H10220476   4.103   4.411   4.817 -0.4559 -1.0426  1.7665
  168MOL   H10320477   4.229   4.305   4.752 -0.1058 -0.5325 -0.5084
  168MOL   C10420478   4.298   4.493   4.832 -0.2097  0.5282  0.0609
  168MOL   F10520479   4.419   4.434   4.843  0.3756  0.2896 -0.1114
  168MOL   F10620480   4.280   4.541   4.709 -0.2923  0.5253 -0.0777
  168MOL   C10720481   4.278   4.592   4.952  0.0594  0.2527 -0.3510
  168MOL   H10820482   4.309   4.533   5.039 -1.7127  1.3035  1.0396
  168MOL   H10920483   4.175   4.626   4.964 -0.0523  0.1337 -0.9862
  168MOL   C11020484   4.366   4.709   4.950  0.4950 -0.3358  0.0119
  168MOL   F11120485   4.496   4.671   4.951  0.3126 -0.1676 -0.2720
  168MOL   F11220486   4.348   4.771   4.833 -0.2665  0.8101 -0.4356
  168MOL   C11320487   4.349   4.810   5.061  0.6386 -0.5730  0.2258
  168MOL   H11420488   4.435   4.875   5.050  0.8860 -0.9004  0.2437
  168MOL   H11520489   4.369   4.770   5.160  1.2142  1.4358  0.9434
  168MOL   C11620490   4.213   4.877   5.075  0.4991 -0.0629  0.4184
  168MOL   F11720491   4.176   4.920   4.953  0.0645 -0.0502 -0.3984
  168MOL   F11820492   4.113   4.804   5.119  0.1085  0.0703 -0.0030
  168MOL   C11920493   4.223   5.000   5.169  0.1803 -0.0953  0.0565
  168MOL   H12020494   4.256   4.966   5.267 -0.4408  1.8393  0.9715
  168MOL   H12120495   4.129   5.052   5.188  0.3155  1.5200 -3.2886
  168MOL   H12220496   4.292   5.077   5.135 -0.4729  1.5544  2.3670
  169MOL     C120497   0.380   1.923   6.061  0.3518  0.1684  0.0527
  169MOL     F220498   0.437   1.814   5.999 -1.0562 -0.3980 -0.0724
  169MOL     F320499   0.281   1.884   6.143  0.6839 -0.2860  0.2163
  169MOL     C420500   0.348   2.040   5.969  0.5760  0.0535 -0.7284
  169MOL     H520501   0.330   2.131   6.026  1.6742 -0.5493  0.6157
  169MOL     H620502   0.258   2.021   5.910 -1.6465  3.1589  1.5008
  169MOL     H720503   0.450   1.955   6.138 -0.3492 -0.7205  1.0796
  169MOL     C820504   0.472   2.072   5.875 -0.4469 -0.0462  0.2921
  169MOL     F920505   0.575   2.083   5.955  0.0345 -0.1139  0.1270
  169MOL    F1020506   0.489   1.975   5.783  0.5235 -0.0641  0.0109
  169MOL    C1120507   0.472   2.206   5.797 -0.2602 -0.1168  0.3053
  169MOL    H1220508   0.570   2.232   5.758 -0.3366 -1.4459 -0.7867
  169MOL    H1320509   0.452   2.293   5.861  0.9275  0.4399 -0.0631
  169MOL    C1420510   0.361   2.227   5.685 -0.0175  0.6281 -0.3370
  169MOL    F1520511   0.246   2.199   5.729 -0.0262  0.2618 -0.3478
  169MOL    F1620512   0.354   2.353   5.651 -0.1683 -0.9012 -0.5131
  169MOL    C1720513   0.375   2.142   5.559  0.2102 -0.3828  0.1538
  169MOL    H1820514   0.295   2.179   5.494 -0.5464 -1.5364  0.4201
  169MOL    H1920515   0.354   2.038   5.582 -0.6526 -0.1749  0.3308
  169MOL    C2020516   0.511   2.162   5.487  0.2755 -0.4310  0.2389
  169MOL    F2120517   0.515   2.289   5.458 -0.1795  0.1145 -0.1245
  169MOL    F2220518   0.619   2.133   5.560 -0.1107  0.1875 -0.4688
  169MOL    C2320519   0.509   2.078   5.355 -0.6487  0.1112  0.2133
  169MOL    H2420520   0.418   2.107   5.303 -0.5050 -0.0975 -0.1496
  169MOL    H2520521   0.506   1.973   5.383  1.6207 -0.2219 -0.6826
  169MOL    C2620522   0.634   2.099   5.258  0.8354  0.0786  0.1581
  169MOL    F2720523   0.740   2.051   5.318  0.3265  0.3898  0.0319
  169MOL    F2820524   0.610   2.031   5.149 -0.9449 -0.5157 -0.2704
  169MOL    C2920525   0.676   2.242   5.218 -0.1750  0.3783  0.9741
  169MOL    H3020526   0.768   2.234   5.159 -1.6506 -0.7669 -1.2262
  169MOL    H3120527   0.705   2.279   5.316 -1.5855  1.9237  0.8325
  169MOL    C3220528   0.585   2.349   5.148 -0.2790  0.1305 -0.0053
  169MOL    F3320529   0.465   2.352   5.204 -0.3056 -0.4887 -0.2842
  169MOL    F3420530   0.644   2.466   5.150  0.3153  0.0952 -0.5684
  169MOL    C3520531   0.562   2.315   4.995 -0.2899  0.0929  0.0659
  169MOL    H3620532   0.526   2.214   4.974  0.6473 -0.1893 -0.1910
  169MOL    H3720533   0.661   2.329   4.952  0.3244  0.1088  1.4610
  169MOL    C3820534   0.470   2.414   4.915  0.6730 -0.0793  0.0678
  169MOL    F3920535   0.352   2.426   4.966 -0.5022 -0.1136 -0.6661
  169MOL    F4020536   0.517   2.537   4.916 -0.6596 -0.2260 -0.1039
  169MOL    C4120537   0.462   2.378   4.762  0.2781  0.5840  0.3164
  169MOL    H4220538   0.564   2.350   4.737 -0.3339 -0.7266 -0.7722
  169MOL    H4320539   0.423   2.467   4.713 -1.4919  0.2451  1.0850
  169MOL    C4420540   0.374   2.257   4.726 -0.5259  0.8490  0.3554
  169MOL    F4520541   0.417   2.152   4.793 -0.0749  0.4066  0.1089
  169MOL    F4620542   0.243   2.280   4.761 -0.4544 -0.5138  0.8324
  169MOL    C4720543   0.387   2.229   4.573 -0.7056  0.2080 -0.0267
  169MOL    H4820544   0.489   2.246   4.539 -0.1778 -0.0933  1.3914
  169MOL    H4920545   0.327   2.292   4.507 -4.9184 -2.9489  0.5996
  169MOL    C5020546   0.337   2.087   4.534 -0.2550  0.3384 -0.0343
  169MOL    F5120547   0.331   2.066   4.398  0.1148 -0.3859 -0.4783
  169MOL    F5220548   0.435   2.008   4.579  0.2442 -0.0125 -0.1537
  169MOL    C5320549   0.206   2.024   4.597  0.2004  0.2459  0.4056
  169MOL    H5420550   0.122   2.088   4.571  0.7583  1.0378  0.5227
  169MOL    H5520551   0.215   2.036   4.705  0.0566  0.5123  0.3874
  169MOL    C5620552   0.168   1.877   4.560  0.0103 -0.4712  0.1497
  169MOL    F5720553   0.163   1.841   4.427 -0.3064  0.4446 -0.1398
  169MOL    F5820554   0.255   1.785   4.614 -0.1826 -0.1244 -0.5024
  169MOL    C5920555   0.027   1.848   4.616 -0.2666 -0.1278 -0.2249
  169MOL    H6020556   8.311   1.921   4.569 -1.5363 -1.4012 -0.4960
  169MOL    H6120557   0.023   1.868   4.722 -1.3921 -0.7003 -0.1494
  169MOL    C6220558   8.313   1.717   4.579 -0.3280  0.1208  0.1156
  169MOL    F6320559   8.301   1.710   4.446  0.2089 -0.0344 -0.1909
  169MOL    F6420560   0.034   1.611   4.630  0.5354  0.2131 -0.0406
  169MOL    C6520561   8.171   1.709   4.642 -0.3560  0.1792 -0.3977
  169MOL    H6620562   8.122   1.806   4.636 -0.6921  0.1084  0.9737
  169MOL    H6720563   8.191   1.689   4.748  0.8248 -2.5056 -1.0951
  169MOL    C6820564   8.077   1.593   4.600 -0.3733 -0.4551 -0.6833
  169MOL    F6920565   8.063   1.594   4.465  0.0156 -0.0482 -0.4190
  169MOL    F7020566   8.139   1.475   4.626 -0.4713  0.1523 -0.2217
  169MOL    C7120567   7.936   1.594   4.670  0.5051 -0.1211 -0.2000
  169MOL    H7220568   7.933   1.583   4.778  2.8841  1.3194  0.0701
  169MOL    H7320569   7.885   1.507   4.630 -0.6293  0.4135  0.0619
  169MOL    C7420570   7.848   1.712   4.648 -0.2910  0.2024 -0.2621
  169MOL    F7520571   7.895   1.812   4.728 -0.4016  0.2188  0.0277
  169MOL    F7620572   7.878   1.752   4.527 -0.5493 -0.3067 -0.4356
  169MOL    C7720573   7.699   1.680   4.679 -0.4739  0.1561 -0.6099
  169MOL    H7820574   7.681   1.642   4.780 -0.7926  2.7482  0.3450
  169MOL    H7920575   7.674   1.593   4.618  2.1112 -0.5823 -0.6974
  169MOL    C8020576   7.600   1.795   4.650  0.3918 -0.3803  0.5755
  169MOL    F8120577   7.483   1.753   4.699 -0.0256 -0.6065 -0.0176
  169MOL    F8220578   7.638   1.910   4.706 -0.0718  0.1408  0.3303
  169MOL    C8320579   7.577   1.817   4.499  0.3336 -0.3865 -0.1769
  169MOL    H8420580   7.532   1.724   4.463  2.5314 -1.7742  0.5370
  169MOL    H8520581   7.676   1.811   4.455 -0.5316 -2.2657 -1.9582
  169MOL    C8620582   7.497   1.936   4.438  0.9260 -0.0653  0.4539
  169MOL    F8720583   7.460   1.907   4.314  0.3644 -0.3303  0.1105
  169MOL    F8820584   7.376   1.943   4.504 -0.0843  0.3705 -0.1416
  169MOL    C8920585   7.565   2.076   4.459 -0.6174  0.5449  0.3439
  169MOL    H9020586   7.664   2.068   4.414 -0.1972 -0.3656  1.3917
  169MOL    H9120587   7.580   2.111   4.561 -0.5484 -0.3103  0.6372
  169MOL    C9220588   7.486   2.186   4.387 -0.0344  0.0306  0.3956
  169MOL    F9320589   7.465   2.159   4.261 -0.0549  0.5582  0.6155
  169MOL    F9420590   7.369   2.200   4.455 -0.4670  0.1885  0.0224
  169MOL    C9520591   7.573   2.314   4.382 -1.2231  0.0243  1.0112
  169MOL    H9620592   7.670   2.285   4.340  0.4016  3.4892  2.1630
  169MOL    H9720593   7.593   2.343   4.485  0.3090 -1.5736  1.1918
  169MOL    C9820594   7.503   2.429   4.315  0.2021 -0.9567 -0.1528
  169MOL    F9920595   7.396   2.470   4.379  0.1097 -0.5008  0.2905
  169MOL   F10020596   7.583   2.534   4.324  0.1080 -0.2428 -0.6807
  169MOL   C10120597   7.465   2.424   4.165  0.2182 -0.5199  0.0224
  169MOL   H10220598   7.432   2.525   4.138  0.3592 -0.8057 -1.2791
  169MOL   H10320599   7.393   2.347   4.139 -1.3406  0.8194  0.2686
  169MOL   C10420600   7.577   2.401   4.061  0.3998  0.0072 -0.0685
  169MOL   F10520601   7.671   2.483   4.092 -0.7181  0.1739  0.3047
  169MOL   F10620602   7.620   2.282   4.074  0.2538 -0.2540 -0.0046
  169MOL   C10720603   7.527   2.418   3.915  0.1080 -0.1756 -0.5513
  169MOL   H10820604   7.460   2.504   3.908 -0.9868 -1.1634 -2.7803
  169MOL   H10920605   7.456   2.339   3.892  0.5324 -0.8124  0.3138
  169MOL   C11020606   7.631   2.438   3.800 -0.0846  0.1903  0.9094
  169MOL   F11120607   7.693   2.555   3.812 -0.3467 -0.1849 -0.4024
  169MOL   F11220608   7.728   2.345   3.812  0.2793 -0.4002 -0.5734
  169MOL   C11320609   7.585   2.436   3.654 -0.5599  0.2516  0.3602
  169MOL   H11420610   7.505   2.509   3.641  0.1398  1.3017  1.7174
  169MOL   H11520611   7.537   2.341   3.634 -0.4543  0.6149 -1.6872
  169MOL   C11620612   7.698   2.439   3.546 -0.7131 -0.5477  0.5399
  169MOL   F11720613   7.761   2.558   3.549 -0.3600  0.3206 -0.0836
  169MOL   F11820614   7.791   2.341   3.563  0.1914 -0.3384 -0.4478
  169MOL   C11920615   7.650   2.431   3.404 -0.0268 -0.7580  1.4307
  169MOL   H12020616   7.599   2.522   3.372 -0.5327 -0.2720  3.5206
  169MOL   H12120617   7.583   2.347   3.387  0.5558 -0.6132 -1.9920
  169MOL   H12220618   7.735   2.426   3.336 -1.5055 -2.1511 -0.3737
  170MOL     C120619   2.490   2.800   6.096  0.3350 -0.5818  0.0384
  170MOL     F220620   2.570   2.856   6.194 -0.5164  0.5375  0.4181
  170MOL     F320621   2.539   2.679   6.064 -0.1213 -0.3785 -0.2208
  170MOL     C420622   2.485   2.882   5.966 -0.5808  0.3038 -0.7384
  170MOL     H520623   2.585   2.881   5.922 -0.5342  4.0402 -0.9109
  170MOL     H620624   2.471   2.986   5.998 -1.8517  0.0531 -0.4632
  170MOL     H720625   2.385   2.799   6.125  0.7223  1.2673  1.5669
  170MOL     C820626   2.368   2.851   5.870 -0.4384 -0.3474 -0.3743
  170MOL     F920627   2.387   2.723   5.839  0.4444  0.1415  0.1778
  170MOL    F1020628   2.252   2.859   5.937  0.4456  0.1014  0.2262
  170MOL    C1120629   2.368   2.943   5.746 -0.2146  0.4132 -0.6042
  170MOL    H1220630   2.299   2.910   5.670  2.1839  0.1915 -2.7522
  170MOL    H1320631   2.460   2.939   5.687  0.8364 -3.6256  1.1182
  170MOL    C1420632   2.330   3.087   5.771 -0.2089  0.5108 -0.5667
  170MOL    F1520633   2.225   3.108   5.852 -0.3804 -0.4313 -0.2035
  170MOL    F1620634   2.430   3.153   5.829  0.1448 -0.2377 -0.5989
  170MOL    C1720635   2.307   3.166   5.639  0.2947 -0.0066 -0.1056
  170MOL    H1820636   2.220   3.119   5.594  0.4432 -0.6771  0.2992
  170MOL    H1920637   2.391   3.149   5.572  0.9049 -0.0016  0.6555
  170MOL    C2020638   2.287   3.323   5.650  0.3880  0.3758  0.2864
  170MOL    F2120639   2.204   3.352   5.751  0.4481 -0.0436 -0.4475
  170MOL    F2220640   2.409   3.377   5.676  0.4812 -0.0622 -0.2193
  170MOL    C2320641   2.238   3.385   5.518 -0.2975 -0.3726 -0.1347
  170MOL    H2420642   2.141   3.337   5.511 -0.2454 -0.8647  2.0776
  170MOL    H2520643   2.301   3.348   5.438 -2.1242 -1.1263 -1.2526
  170MOL    C2620644   2.219   3.539   5.510  0.1139  0.2747 -0.1957
  170MOL    F2720645   2.332   3.599   5.543  0.0717  0.4435  0.1139
  170MOL    F2820646   2.202   3.573   5.379 -0.1710  0.5450  0.3837
  170MOL    C2920647   2.097   3.584   5.598  0.3913  0.3126  0.1253
  170MOL    H3020648   2.123   3.565   5.702 -3.5790 -1.2078  0.9265
  170MOL    H3120649   2.016   3.516   5.570  0.9440 -0.6009  0.7113
  170MOL    C3220650   2.056   3.736   5.570 -0.0437 -0.0610  0.2932
  170MOL    F3320651   2.176   3.802   5.575  0.1928  0.0457 -0.6968
  170MOL    F3420652   1.995   3.752   5.450  0.0913 -0.4788 -0.5266
  170MOL    C3520653   1.959   3.774   5.687 -0.6633  0.3663 -0.3284
  170MOL    H3620654   2.021   3.769   5.777 -0.5781 -1.0484 -0.4558
  170MOL    H3720655   1.870   3.711   5.688 -1.0836  0.9564  0.1731
  170MOL    C3820656   1.913   3.922   5.682 -0.7181 -1.0316  0.0831
  170MOL    F3920657   2.008   4.002   5.646 -0.0307 -0.3189  0.2904
  170MOL    F4020658   1.825   3.926   5.576  0.4354  0.1301  0.4116
  170MOL    C4120659   1.848   3.962   5.816  0.3794  0.5941 -0.4664
  170MOL    H4220660   1.787   3.877   5.845 -0.1214  1.4263  0.9978
  170MOL    H4320661   1.769   4.036   5.801 -1.0143 -0.5379  1.0732
  170MOL    C4420662   1.938   3.979   5.940  0.3507 -0.0255  0.3513
  170MOL    F4520663   1.956   3.862   5.991  0.4007 -0.7592  0.0290
  170MOL    F4620664   2.048   4.025   5.895 -0.1156  0.1218 -0.4466
  170MOL    C4720665   1.900   4.087   6.048 -0.1885  0.3351  0.8939
  170MOL    H4820666   1.910   4.184   5.999 -2.8106  0.5843  0.7706
  170MOL    H4920667   1.982   4.083   6.120  0.9667 -1.2227 -0.4478
  170MOL    C5020668   1.768   4.062   6.118 -0.3573  0.2390  0.4615
  170MOL    F5120669   1.677   4.051   6.026 -0.4173 -0.0679  0.1012
  170MOL    F5220670   1.773   3.942   6.180  0.5305  0.0736  0.0423
  170MOL    C5320671   1.715   4.164   6.225 -0.5061 -0.0448 -0.0177
  170MOL    H5420672   1.699   4.260   6.177  1.6074  0.7863  0.8991
  170MOL    H5520673   1.800   4.170   6.292 -0.1070  0.2995 -0.5586
  170MOL    C5620674   1.593   4.120   6.312  0.6615  0.3875 -0.6400
  170MOL    F5720675   1.490   4.098   6.231  0.1639  1.0616 -0.3708
  170MOL    F5820676   1.608   4.001   6.368 -0.3605 -0.1311 -0.3304
  170MOL    C5920677   1.558   4.223   6.428 -0.2729 -0.2264 -0.0843
  170MOL    H6020678   1.650   4.243   6.482  1.0952 -1.9848 -1.7086
  170MOL    H6120679   1.479   4.176   6.487 -1.0837 -0.4448 -1.3143
  170MOL    C6220680   1.510   4.364   6.376  0.0543  0.1282  0.7887
  170MOL    F6320681   1.473   4.421   6.492 -0.1708 -0.1402 -0.7685
  170MOL    F6420682   1.613   4.436   6.334 -0.0964 -0.3535 -0.1570
  170MOL    C6520683   1.390   4.368   6.278 -0.3125 -0.5118 -0.2481
  170MOL    H6620684   1.418   4.321   6.183  1.9121  2.4712 -1.1311
  170MOL    H6720685   1.370   4.471   6.251 -1.3894 -0.2505  1.5125
  170MOL    C6820686   1.256   4.310   6.329  0.5990  0.5407 -0.2974
  170MOL    F6920687   1.272   4.182   6.342  0.6785  0.1689 -0.0903
  170MOL    F7020688   1.233   4.362   6.450  0.3461  0.2843  0.0530
  170MOL    C7120689   1.135   4.344   6.236  0.2280  0.3451 -0.1748
  170MOL    H7220690   1.131   4.453   6.234 -0.0377  0.3238 -1.1146
  170MOL    H7320691   1.038   4.310   6.271  0.9309 -1.0588  0.4465
  170MOL    C7420692   1.138   4.286   6.082  0.4204  0.2282 -0.4683
  170MOL    F7520693   1.032   4.333   6.021 -0.3351  0.0072  0.2787
  170MOL    F7620694   1.252   4.327   6.030 -0.6736  0.3689 -0.0418
  170MOL    C7720695   1.126   4.132   6.068 -0.6550  0.2855  0.1323
  170MOL    H7820696   1.027   4.099   6.099 -1.0346  1.4720  0.2040
  170MOL    H7920697   1.194   4.077   6.134 -0.2597  0.4057 -0.1698
  170MOL    C8020698   1.138   4.081   5.924  0.1874 -0.1146  0.4679
  170MOL    F8120699   1.258   4.102   5.883 -0.0050 -0.4518 -0.1865
  170MOL    F8220700   1.119   3.950   5.919  0.2313  0.0244  0.4856
  170MOL    C8320701   1.043   4.151   5.822  0.1292 -0.1410 -0.5688
  170MOL    H8420702   1.078   4.255   5.823 -0.2787  0.0166  2.3674
  170MOL    H8520703   0.943   4.141   5.865  0.8508 -0.7448  1.0244
  170MOL    C8620704   1.019   4.088   5.677 -0.1987 -0.3504  0.6124
  170MOL    F8720705   0.970   3.971   5.685 -0.0471 -0.4244  0.4291
  170MOL    F8820706   0.926   4.175   5.625 -0.1421  0.6501  0.2001
  170MOL    C8920707   1.146   4.083   5.581 -0.0392 -0.1018 -0.2074
  170MOL    H9020708   1.131   4.018   5.494  0.6413  0.7550 -0.9765
  170MOL    H9120709   1.219   4.037   5.648  1.9485  1.3676 -1.2862
  170MOL    C9220710   1.198   4.216   5.529  0.2631 -0.1102 -0.0923
  170MOL    F9320711   1.106   4.298   5.467  0.1471  0.2569  0.2946
  170MOL    F9420712   1.238   4.281   5.638 -0.4328 -0.4159  0.4215
  170MOL    C9520713   1.325   4.193   5.436 -0.2686 -0.2860  0.0186
  170MOL    H9620714   1.289   4.150   5.343 -2.0487 -0.7869  0.8993
  170MOL    H9720715   1.375   4.117   5.496 -0.3301 -1.2142 -1.1032
  170MOL    C9820716   1.424   4.310   5.416 -0.9514 -0.7192  0.1542
  170MOL    F9920717   1.496   4.269   5.303  0.0781 -0.1309 -0.4773
  170MOL   F10020718   1.351   4.419   5.378 -0.2496  0.3828 -0.1742
  170MOL   C10120719   1.521   4.344   5.532 -1.4189 -0.7427 -0.3541
  170MOL   H10220720   1.567   4.251   5.564  2.3108  0.2397 -2.5385
  170MOL   H10320721   1.458   4.370   5.618 -0.4802 -0.3875  0.2389
  170MOL   C10420722   1.631   4.446   5.503  0.1231 -0.7285  0.6761
  170MOL   F10520723   1.727   4.403   5.419  0.7263  0.1622  0.0417
  170MOL   F10620724   1.571   4.551   5.449 -0.0019  0.3815  0.0012
  170MOL   C10720725   1.697   4.499   5.636  0.2281  0.3027  0.6609
  170MOL   H10820726   1.634   4.578   5.678 -0.7043 -0.0713 -0.0454
  170MOL   H10920727   1.783   4.554   5.598 -0.4119  0.7507 -0.1566
  170MOL   C11020728   1.758   4.407   5.749 -0.3308 -0.0872  0.0333
  170MOL   F11120729   1.661   4.329   5.795 -0.0719 -0.1326  0.4028
  170MOL   F11220730   1.845   4.319   5.689  0.1810  0.0849  0.3527
  170MOL   C11320731   1.831   4.491   5.860 -0.8102  0.6690  0.4232
  170MOL   H11420732   1.905   4.556   5.814 -0.7038  0.8632  0.8675
  170MOL   H11520733   1.890   4.414   5.909  1.9092  2.7465  0.5141
  170MOL   C11620734   1.733   4.582   5.942  0.0197  0.8053  0.4916
  170MOL   F11720735   1.714   4.699   5.883 -0.0032  0.1574 -0.1956
  170MOL   F11820736   1.619   4.517   5.967 -0.4138 -0.1473  0.4806
  170MOL   C11920737   1.795   4.612   6.078 -0.3429  0.6333  0.1375
  170MOL   H12020738   1.897   4.650   6.073 -0.1111 -0.2175 -2.3611
  170MOL   H12120739   1.796   4.526   6.144  1.2303  0.2760 -0.3191
  170MOL   H12220740   1.743   4.694   6.127  1.6932  2.5316 -0.7810
  171MOL     C120741   2.212   8.145   7.519 -1.0207 -0.0301 -0.6596
  171MOL     F220742   2.311   8.184   7.596  0.2123  0.1777 -0.2168
  171MOL     F320743   2.250   8.037   7.454 -0.0194 -0.1614  0.4293
  171MOL     C420744   2.197   8.255   7.415 -0.6156  0.2995 -0.4748
  171MOL     H520745   2.150   8.214   7.326 -0.1769 -1.5075  0.1197
  171MOL     H620746   2.301   8.276   7.389 -0.4017  2.1728  1.7468
  171MOL     H720747   2.124   8.128   7.581  0.1109  1.7027  1.4871
  171MOL     C820748   2.126   0.031   7.459  0.1160 -0.6587  0.9214
  171MOL     F920749   2.005   8.337   7.484  0.1222 -0.3855  0.2137
  171MOL    F1020750   2.165   0.071   7.580  0.2954 -0.8637  0.3739
  171MOL    C1120751   2.122   0.141   7.350  0.6279  0.3887 -0.5071
  171MOL    H1220752   2.059   0.223   7.385 -1.6744 -1.0055 -1.2590
  171MOL    H1320753   2.080   0.103   7.258  0.4559 -2.9934  0.8929
  171MOL    C1420754   2.256   0.207   7.309 -0.1461 -0.9744 -0.8549
  171MOL    F1520755   2.336   0.118   7.263  0.6816  0.3611 -0.2739
  171MOL    F1620756   2.229   0.297   7.217 -0.2341  0.3027 -0.1071
  171MOL    C1720757   2.321   0.288   7.429 -0.1882  0.6972 -0.1622
  171MOL    H1820758   2.358   0.226   7.511 -0.8266 -0.5151 -0.7738
  171MOL    H1920759   2.243   0.352   7.471  0.5244  2.1908 -1.0882
  171MOL    C2020760   2.439   0.376   7.386  0.2769  0.3981 -0.1277
  171MOL    F2120761   2.394   0.462   7.298  0.9105 -0.1175  0.2253
  171MOL    F2220762   2.480   0.445   7.490  0.5886 -0.3749  0.4814
  171MOL    C2320763   2.562   0.309   7.321 -0.2461  0.2552  0.0656
  171MOL    H2420764   2.636   0.379   7.282 -1.8165  1.2728 -1.1288
  171MOL    H2520765   2.530   0.253   7.233 -0.6337  0.9267 -0.2250
  171MOL    C2620766   2.631   0.209   7.429  0.0668  0.0860 -0.3391
  171MOL    F2720767   2.653   0.263   7.542 -0.7648  0.0916 -0.2672
  171MOL    F2820768   2.549   0.107   7.440  0.1969 -0.0802 -0.2633
  171MOL    C2920769   2.760   0.136   7.388 -0.5022 -0.0467 -0.4947
  171MOL    H3020770   2.745   0.108   7.284 -1.4942  0.2627 -0.4439
  171MOL    H3120771   2.761   0.041   7.442 -0.7156  1.1238  1.6464
  171MOL    C3220772   2.895   0.215   7.395  0.8200 -0.2204  0.7046
  171MOL    F3320773   2.982   0.136   7.329 -0.4644  0.3957 -0.7653
  171MOL    F3420774   2.880   0.324   7.314 -0.0985  0.0564 -0.3668
  171MOL    C3520775   2.946   0.253   7.538  0.5441 -0.2529 -0.0597
  171MOL    H3620776   2.966   0.161   7.593 -1.8309 -0.3457  0.6827
  171MOL    H3720777   2.879   0.306   7.606  3.1868 -0.0823  2.5564
  171MOL    C3820778   3.091   0.312   7.528  0.4275  0.2043 -0.3320
  171MOL    F3920779   3.177   0.228   7.471  0.6338 -0.4202 -0.4274
  171MOL    F4020780   3.088   0.428   7.454  0.4583  0.1137  0.2298
  171MOL    C4120781   3.168   0.339   7.663 -0.0613  0.7579 -0.4115
  171MOL    H4220782   3.272   0.367   7.646  0.3262 -1.1533 -1.3631
  171MOL    H4320783   3.185   0.247   7.718 -0.5640  0.5839 -0.5414
  171MOL    C4420784   3.108   0.449   7.755 -0.5396 -0.2976  0.4364
  171MOL    F4520785   3.100   0.558   7.671 -0.2031  0.2051 -0.2373
  171MOL    F4620786   2.986   0.418   7.806 -0.8348 -0.5656  0.0633
  171MOL    C4720787   3.196   0.494   7.878 -0.7331  0.2551  0.2955
  171MOL    H4820788   3.296   0.507   7.837 -1.1216 -0.5027 -0.9326
  171MOL    H4920789   3.221   0.418   7.952  2.6251  0.7089 -0.2963
  171MOL    C5020790   3.129   0.618   7.946 -0.3542 -0.1218  0.0691
  171MOL    F5120791   3.106   0.721   7.872  0.4410  0.3823  0.5109
  171MOL    F5220792   3.006   0.586   8.004 -0.1211 -0.4085 -0.2889
  171MOL    C5320793   3.221   0.663   8.064  0.1432  0.1956  0.4366
  171MOL    H5420794   3.239   0.573   8.124 -2.4474  1.0912  2.7021
  171MOL    H5520795   3.173   0.739   8.126 -0.5519  0.9347 -0.9990
  171MOL    C5620796   3.363   0.718   8.023 -0.3298 -0.1676  0.7524
  171MOL    F5720797   3.431   0.600   7.989 -0.1207  0.3486  0.3943
  171MOL    F5820798   3.363   0.805   7.921  0.5420  0.4339 -0.0997
  171MOL    C5920799   3.443   0.782   8.136  0.0869  0.1853  0.0493
  171MOL    H6020800   3.547   0.786   8.104  0.3092  1.1176  0.8951
  171MOL    H6120801   3.437   0.713   8.220  0.8569  0.4201  0.3029
  171MOL    C6220802   3.398   0.924   8.177  0.2955 -0.5671 -0.0874
  171MOL    F6320803   3.438   1.023   8.093  0.1932  0.2456  0.9244
  171MOL    F6420804   3.271   0.931   8.181  0.2437 -0.5477 -0.0521
  171MOL    C6520805   3.445   0.989   8.306 -0.5730  0.5536  0.1596
  171MOL    H6620806   3.382   1.078   8.313  0.1306  1.2786 -2.2337
  171MOL    H6720807   3.547   1.025   8.301 -0.3887 -0.1011 -1.0727
  171MOL    C6820808   3.451   0.898   0.085  0.1767  0.3780  0.0094
  171MOL    F6920809   3.330   0.841   0.113  0.1061  0.1614 -0.0550
  171MOL    F7020810   3.532   0.801   0.052  0.3124 -0.4585 -0.2892
  171MOL    C7120811   3.499   0.974   0.215  1.2723 -0.1979  0.3605
  171MOL    H7220812   3.607   0.991   0.209  1.0881  0.7378 -0.4598
  171MOL    H7320813   3.490   0.898   0.293  1.8341  0.7597  1.3728
  171MOL    C7420814   3.420   1.108   0.256 -0.1685 -0.6227  0.5673
  171MOL    F7520815   3.410   1.193   0.152  0.4395 -0.0694 -0.2269
  171MOL    F7620816   3.292   1.078   0.286 -0.0083 -0.1285 -0.3070
  171MOL    C7720817   3.477   1.192   0.368  0.2423 -0.0691 -0.0036
  171MOL    H7820818   3.405   1.271   0.384  0.6152  0.1281  0.7196
  171MOL    H7920819   3.578   1.228   0.345 -0.0907  0.1896 -1.0611
  171MOL    C8020820   3.488   1.127   0.500  0.7059  0.1969  0.2051
  171MOL    F8120821   3.373   1.064   0.526 -0.4466  0.1420 -0.0087
  171MOL    F8220822   3.580   1.035   0.489  0.2288 -0.1770  0.1460
  171MOL    C8320823   3.524   1.220   0.617  0.2534 -0.1916 -0.1285
  171MOL    H8420824   3.559   1.154   0.697  2.0277 -1.3944 -1.8316
  171MOL    H8520825   3.431   1.264   0.651  0.1846 -1.4687  1.3621
  171MOL    C8620826   3.639   1.325   0.589 -0.2304 -0.2968  0.3675
  171MOL    F8720827   3.743   1.265   0.540  0.4030  0.2067  0.0668
  171MOL    F8820828   3.592   1.415   0.498  0.3325  0.2632  0.3407
  171MOL    C8920829   3.687   1.409   0.714 -0.3679 -0.8965 -0.2112
  171MOL    H9020830   3.715   1.338   0.792  1.6556 -0.6723 -0.7105
  171MOL    H9120831   3.599   1.461   0.750  0.2420  0.0348 -0.0619
  171MOL    C9220832   3.797   1.515   0.691 -0.6921  0.9288 -0.5390
  171MOL    F9320833   3.749   1.611   0.618  0.1892 -0.2882 -0.2705
  171MOL    F9420834   3.835   1.553   0.810  0.2172 -0.1470 -0.0836
  171MOL    C9520835   3.918   1.468   0.606  0.2134 -0.1145  0.3616
  171MOL    H9620836   3.885   1.459   0.502  1.0889  1.0094 -0.0183
  171MOL    H9720837   3.943   1.370   0.647 -0.8479  0.7378  3.1961
  171MOL    C9820838   4.048   1.550   0.623  1.1462 -0.0904 -0.1198
  171MOL    F9920839   4.024   1.680   0.605 -0.0958 -0.1141 -0.3531
  171MOL   F10020840   4.107   1.530   0.738 -0.4676 -0.2981  0.4466
  171MOL   C10120841   4.152   1.510   0.512 -0.2357 -0.2271 -0.2216
  171MOL   H10220842   4.242   1.561   0.548 -0.4283  0.7217 -1.0477
  171MOL   H10320843   4.132   1.554   0.414 -1.2928  1.0148  0.5319
  171MOL   C10420844   4.177   1.359   0.492 -0.6432 -0.8879 -0.7119
  171MOL   F10520845   4.203   1.301   0.610  0.2816 -0.4131  0.0302
  171MOL   F10620846   4.080   1.303   0.428 -0.4236  0.3351  0.1466
  171MOL   C10720847   4.294   1.339   0.398 -0.1972  0.1058  0.2109
  171MOL   H10820848   4.385   1.373   0.446  1.1770 -4.5863  1.2026
  171MOL   H10920849   4.272   1.398   0.309 -1.0119  3.3753  2.5023
  171MOL   C11020850   4.335   1.197   0.345  0.2010 -0.1005  0.6185
  171MOL   F11120851   4.238   1.141   0.266 -0.2963  0.1215  0.0779
  171MOL   F11220852   4.444   1.224   0.276 -0.5791 -0.3921  0.5862
  171MOL   C11320853   4.359   1.096   0.464  0.3713 -0.1800  1.0473
  171MOL   H11420854   4.272   1.093   0.530  0.5769  1.9119  1.4414
  171MOL   H11520855   4.432   1.143   0.530  0.1014  1.1055  0.4486
  171MOL   C11620856   4.398   0.951   0.420 -0.0143 -0.0771  0.3526
  171MOL   F11720857   4.514   0.952   0.359  0.1036  0.1184  0.4686
  171MOL   F11820858   4.414   0.865   0.520  0.1226 -0.0724 -0.9095
  171MOL   C11920859   4.285   0.888   0.327 -0.4458  0.1545  0.2455
  171MOL   H12020860   4.295   0.780   0.328 -0.6562  0.1014 -1.1561
  171MOL   H12120861   4.306   0.919   0.224 -0.4061 -0.5513  0.0396
  171MOL   H12220862   4.188   0.925   0.359  0.1183 -1.0975  3.5894
  172MOL     C120863   3.204   8.139   1.374 -0.0627 -0.0707  0.4706
  172MOL     F220864   3.077   8.189   1.370 -0.1357 -0.6018 -0.0876
  172MOL     F320865   3.288   8.237   1.391  0.2836  0.2144 -0.1680
  172MOL     C420866   3.227   8.051   1.244  0.1306 -0.1922 -0.0773
  172MOL     H520867   3.158   7.967   1.252  0.8140 -0.8185 -0.7109
  172MOL     H620868   3.330   8.017   1.239 -0.1990 -1.1985 -0.1959
  172MOL     H720869   3.205   8.081   1.467  0.5030 -0.2417  0.3537
  172MOL     C820870   3.185   8.125   1.116 -0.7865 -0.1111 -0.2249
  172MOL     F920871   3.054   8.142   1.118 -0.7577 -0.2855 -0.5507
  172MOL    F1020872   3.236   8.250   1.116 -0.0352  0.5170  0.4043
  172MOL    C1120873   3.221   8.051   0.987 -0.1140 -0.1408  0.9306
  172MOL    H1220874   3.188   8.116   0.907  0.9929  0.6174  1.0716
  172MOL    H1320875   3.163   7.959   0.976 -0.2305  0.3580 -3.5188
  172MOL    C1420876   3.369   8.018   0.971 -0.5540 -0.1647 -0.3040
  172MOL    F1520877   3.446   8.115   1.025 -0.6826 -0.0954 -0.1543
  172MOL    F1620878   3.375   7.901   1.043  0.4627 -0.0181 -0.4662
  172MOL    C1720879   3.414   7.988   0.826  0.2352 -0.5542 -0.1903
  172MOL    H1820880   3.390   8.075   0.764  2.5093  0.1798 -0.0832
  172MOL    H1920881   3.361   7.904   0.781 -0.2777  0.2702 -1.1561
  172MOL    C2020882   3.565   7.958   0.798  0.8835 -0.4221  0.0763
  172MOL    F2120883   3.582   7.945   0.663  0.1248  0.1083 -0.0056
  172MOL    F2220884   3.639   8.061   0.845  0.5769  0.0344 -0.5073
  172MOL    C2320885   3.623   7.827   0.870  0.4066  0.1900  0.1870
  172MOL    H2420886   3.561   7.740   0.848  0.3203  0.4149 -0.4749
  172MOL    H2520887   3.615   7.844   0.977 -0.7604 -1.9642  0.4589
  172MOL    C2620888   3.763   7.784   0.838  0.3295  0.0230  0.0052
  172MOL    F2720889   3.761   7.715   0.723  0.7536  0.5126 -0.0611
  172MOL    F2820890   3.850   7.880   0.813  0.3328 -0.7738 -0.7712
  172MOL    C2920891   3.802   7.682   0.943 -0.7462 -0.2514 -0.6984
  172MOL    H3020892   3.730   7.601   0.955  1.8811 -2.5178  0.2444
  172MOL    H3120893   3.793   7.721   1.044 -1.8024 -0.0720 -0.8565
  172MOL    C3220894   3.945   7.625   0.937 -0.2060 -0.1698 -0.3911
  172MOL    F3320895   4.040   7.719   0.931  0.2182  0.1588 -0.5247
  172MOL    F3420896   3.964   7.555   1.050 -0.0625  0.2451 -0.1459
  172MOL    C3520897   3.978   7.525   0.821 -0.5095  1.2237 -0.1166
  172MOL    H3620898   3.970   7.585   0.730  0.4293  2.7421  0.7814
  172MOL    H3720899   3.900   7.449   0.812  0.6317 -0.0381  0.3737
  172MOL    C3820900   4.108   7.440   0.841 -0.1658  0.0797  0.0228
  172MOL    F3920901   4.132   7.392   0.719 -0.1565  0.0517 -0.0508
  172MOL    F4020902   4.212   7.518   0.874 -0.6620 -0.2023 -0.2113
  172MOL    C4120903   4.098   7.326   0.952 -0.1557 -0.0903  0.0644
  172MOL    H4220904   4.000   7.282   0.932  0.4924  0.2675 -4.2017
  172MOL    H4320905   4.108   7.366   1.053  1.6991 -2.3821  0.8391
  172MOL    C4420906   4.208   7.221   0.942 -0.2721  0.2087  0.0261
  172MOL    F4520907   4.203   7.160   0.827  0.2139  0.0662 -0.5101
  172MOL    F4620908   4.331   7.268   0.944 -0.4775 -0.1095 -0.3436
  172MOL    C4720909   4.211   7.122   1.053  0.9388 -0.3576  0.0458
  172MOL    H4820910   4.233   7.181   1.142 -1.6059  0.6069  0.0921
  172MOL    H4920911   4.302   7.063   1.042 -0.6587 -2.8515 -0.2202
  172MOL    C5020912   4.090   7.024   1.068 -0.2857 -0.1616 -0.5563
  172MOL    F5120913   3.973   7.093   1.071 -0.8899  0.0111 -0.0086
  172MOL    F5220914   4.081   6.942   0.963  0.0811  0.3495  0.2392
  172MOL    C5320915   4.091   6.929   1.189  0.3015  0.7100 -0.7748
  172MOL    H5420916   4.179   6.864   1.186  0.1366  0.4793 -0.6307
  172MOL    H5520917   4.008   6.859   1.178  1.2172 -0.3029 -1.4291
  172MOL    C5620918   4.092   6.992   1.330  0.0116 -0.1420 -0.3948
  172MOL    F5720919   4.109   6.883   1.400  0.2349  0.1047 -0.4489
  172MOL    F5820920   4.198   7.070   1.342 -0.2991 -0.3880  0.8320
  172MOL    C5920921   3.950   7.042   1.363  0.2567  0.6147 -0.3880
  172MOL    H6020922   3.883   6.956   1.365 -0.9555  1.5736  0.6990
  172MOL    H6120923   3.910   7.107   1.286 -0.5410  0.8811  0.2422
  172MOL    C6220924   3.940   7.116   1.503 -0.1952 -0.1626  0.4373
  172MOL    F6320925   3.811   7.105   1.526  0.5981  0.4300 -0.0222
  172MOL    F6420926   4.008   7.040   1.591 -0.0499 -0.2594  0.8994
  172MOL    C6520927   3.987   7.262   1.503 -0.3613  0.6216  0.1736
  172MOL    H6620928   4.087   7.260   1.461  0.1726  0.8807  1.4103
  172MOL    H6720929   3.994   7.288   1.609 -1.2608 -0.8884  0.6155
  172MOL    C6820930   3.906   7.362   1.419 -0.0634 -0.3412  0.1235
  172MOL    F6920931   3.929   7.339   1.291 -0.0971 -0.3787 -0.0398
  172MOL    F7020932   3.774   7.351   1.434  0.6537 -0.0699  0.6976
  172MOL    C7120933   3.951   7.511   1.449  0.5595 -0.0712 -0.0187
  172MOL    H7220934   3.901   7.567   1.371  0.0423  0.7360  0.8905
  172MOL    H7320935   4.059   7.518   1.434  0.3258  0.9832 -1.3121
  172MOL    C7420936   3.931   7.573   1.595  0.6464  0.5186 -1.1227
  172MOL    F7520937   3.803   7.578   1.626  0.4876  0.2606  0.0350
  172MOL    F7620938   4.006   7.497   1.678  0.0920 -0.0235 -0.2916
  172MOL    C7720939   3.991   7.713   1.612  0.2283  0.2660  0.4784
  172MOL    H7820940   4.095   7.708   1.581  0.0136 -0.0786 -0.2050
  172MOL    H7920941   3.985   7.744   1.716 -0.7351  0.9087  0.2416
  172MOL    C8020942   3.936   7.838   1.528 -0.2818  0.9341 -0.6087
  172MOL    F8120943   4.010   7.950   1.557 -0.1618  0.0159 -0.3792
  172MOL    F8220944   3.971   7.818   1.400 -0.2782 -0.6008  0.4392
  172MOL    C8320945   3.777   7.865   1.545 -0.4402 -0.2482 -0.3571
  172MOL    H8420946   3.730   7.830   1.637 -1.7082  1.0402 -0.4982
  172MOL    H8520947   3.733   7.803   1.467  1.1308 -1.6801 -0.1462
  172MOL    C8620948   3.729   8.009   1.524 -0.1242 -0.0160 -0.3874
  172MOL    F8720949   3.595   8.006   1.533  0.6284 -0.3512 -0.4010
  172MOL    F8820950   3.765   8.082   1.626 -0.9109  0.6748  0.3420
  172MOL    C8920951   3.784   8.088   1.407 -0.4171  0.6408  0.1646
  172MOL    H9020952   3.892   8.088   1.398 -0.3181  0.6784  1.2428
  172MOL    H9120953   3.756   8.192   1.424 -1.7221  0.3006  0.1405
  172MOL    C9220954   3.714   8.070   1.276 -0.2698 -0.8370  0.4965
  172MOL    F9320955   3.737   7.943   1.236  0.7128 -0.0063  0.0699
  172MOL    F9420956   3.585   8.077   1.297  0.3868 -0.4159  0.4385
  172MOL    C9520957   3.754   8.167   1.158  0.1537 -0.5028  0.0030
  172MOL    H9620958   3.696   8.133   1.073 -0.3271  0.3893 -0.0290
  172MOL    H9720959   3.860   8.159   1.135  0.2698 -2.1260  0.9722
  172MOL    C9820960   3.731   8.319   1.184  0.3027 -0.5854  0.7923
  172MOL    F9920961   3.822   0.018   1.264  0.3272 -0.3246 -0.0938
  172MOL   F10020962   3.734   0.028   1.065 -0.2929  0.2109 -0.3252
  172MOL   C10120963   3.593   0.016   1.241 -0.0832  0.4418 -0.0777
  172MOL   H10220964   3.572   8.312   1.334 -0.3224 -0.7913 -0.8365
  172MOL   H10320965   3.511   8.329   1.180  1.3432 -1.7220 -0.7597
  172MOL   C10420966   3.579   0.166   1.268  0.3240  0.5716 -0.2593
  172MOL   F10520967   3.672   0.224   1.344  0.4789  0.8325  0.3092
  172MOL   F10620968   3.589   0.223   1.148 -0.0711 -0.1790  0.5651
  172MOL   C10720969   3.440   0.214   1.327  0.4640 -0.2702 -0.2269
  172MOL   H10820970   3.431   0.185   1.432  1.0032 -0.4578 -0.2343
  172MOL   H10920971   3.364   0.155   1.276  0.0880 -0.7337  0.8367
  172MOL   C11020972   3.411   0.365   1.306  0.1439  0.2899 -0.2684
  172MOL   F11120973   3.498   0.454   1.353  1.0130 -0.7234 -0.4737
  172MOL   F11220974   3.398   0.378   1.173  0.6800 -0.1716  0.2890
  172MOL   C11320975   3.275   0.421   1.354  0.0890 -0.4110  0.0705
  172MOL   H11420976   3.197   0.359   1.310  2.2664 -1.4708 -2.4057
  172MOL   H11520977   3.255   0.522   1.321  0.1303 -1.0119 -1.8382
  172MOL   C11620978   3.259   0.430   1.508  0.5144 -0.8018  0.4639
  172MOL   F11720979   3.140   0.487   1.531 -0.1296  0.3396 -0.5847
  172MOL   F11820980   3.254   0.306   1.555 -0.1410 -0.6345  0.0518
  172MOL   C11920981   3.357   0.504   1.594  0.1412 -0.7054 -0.1644
  172MOL   H12020982   3.363   0.608   1.561  0.6523 -1.3928 -2.3058
  172MOL   H12120983   3.462   0.477   1.580  0.3077  0.7836 -2.0081
  172MOL   H12220984   3.322   0.492   1.697 -0.1163  0.4053 -0.1112
  173MOL     C120985   3.734   2.441   3.089  0.2237 -0.0047 -0.2707
  173MOL     F220986   3.631   2.511   3.036 -0.3332 -0.3078  0.2313
  173MOL     F320987   3.807   2.396   2.987 -0.1815  0.0851  0.1462
  173MOL     C420988   3.689   2.326   3.185 -0.1856  0.4196  0.0188
  173MOL     H520989   3.781   2.275   3.213 -1.2527 -0.9073  1.1782
  173MOL     H620990   3.638   2.243   3.136  1.4435 -0.1399 -0.7771
  173MOL     H720991   3.792   2.510   3.150 -1.8893  1.1693  0.4616
  173MOL     C820992   3.616   2.383   3.306  0.6857 -0.4817 -1.3778
  173MOL     F920993   3.708   2.391   3.402  0.0189 -0.4074  0.3089
  173MOL    F1020994   3.571   2.502   3.292  0.1380 -0.0228  0.8692
  173MOL    C1120995   3.502   2.292   3.369  0.2413 -0.2121  0.2246
  173MOL    H1220996   3.558   2.204   3.403 -0.0620 -0.4777  0.0354
  173MOL    H1320997   3.433   2.258   3.292 -0.9601  1.8150  0.3706
  173MOL    C1420998   3.411   2.369   3.469  1.0585 -0.1615  0.6161
  173MOL    F1520999   3.332   2.455   3.403  0.1297 -0.0267  0.5739
  173MOL    F1621000   3.326   2.272   3.512 -0.1316  0.4677  0.2524
  173MOL    C1721001   3.489   2.439   3.580  0.1405  1.0449 -0.1833
  173MOL    H1821002   3.537   2.520   3.526  0.7586  1.7575  1.3939
  173MOL    H1921003   3.563   2.373   3.627 -1.7430 -0.5348  0.6152
  173MOL    C2021004   3.393   2.490   3.688 -0.1310 -0.3245  0.3980
  173MOL    F2121005   3.304   2.574   3.638 -0.8243  0.0217 -0.4363
  173MOL    F2221006   3.336   2.397   3.755 -0.6519 -0.0034  0.0205
  173MOL    C2321007   3.463   2.573   3.796  0.0996 -0.0437  0.0735
  173MOL    H2421008   3.513   2.647   3.734 -2.1279  0.0629 -1.6266
  173MOL    H2521009   3.547   2.512   3.831  0.1595  0.0758  0.1404
  173MOL    C2621010   3.373   2.636   3.908  0.6214 -0.0612 -0.4551
  173MOL    F2721011   3.438   2.725   3.977  0.8211 -0.1401 -0.0078
  173MOL    F2821012   3.277   2.701   3.850 -0.2160 -0.2986 -0.1233
  173MOL    C2921013   3.308   2.540   4.006 -0.1944  0.3492  0.7398
  173MOL    H3021014   3.235   2.489   3.944  1.6447 -0.0921 -1.1500
  173MOL    H3121015   3.252   2.597   4.079  1.0046  1.5013  0.7810
  173MOL    C3221016   3.396   2.445   4.087 -0.3510  0.6032 -0.5196
  173MOL    F3321017   3.458   2.353   4.007  0.4735  0.0191  0.5829
  173MOL    F3421018   3.491   2.510   4.156  0.1215  0.0496 -0.2796
  173MOL    C3521019   3.301   2.368   4.184 -0.5914  0.0193  0.3424
  173MOL    H3621020   3.244   2.293   4.131  0.7856 -0.7111 -0.1283
  173MOL    H3721021   3.227   2.425   4.241 -2.1954  0.3581 -2.0121
  173MOL    C3821022   3.376   2.298   4.299 -0.1169  0.1336 -0.9891
  173MOL    F3921023   3.477   2.230   4.240  0.1081  0.6430 -0.1993
  173MOL    F4021024   3.432   2.394   4.364 -0.1149 -0.8645 -0.1484
  173MOL    C4121025   3.283   2.219   4.395 -0.3707  0.6278 -0.6502
  173MOL    H4221026   3.212   2.282   4.449  0.3609  0.8514  0.0528
  173MOL    H4321027   3.349   2.178   4.471  0.7762 -1.1718 -2.5765
  173MOL    C4421028   3.209   2.100   4.331  0.3700  0.3451 -0.3267
  173MOL    F4521029   3.119   2.145   4.248  0.1244 -0.0817  0.1634
  173MOL    F4621030   3.298   2.038   4.261 -0.3080 -0.4711 -0.0421
  173MOL    C4721031   3.150   2.007   4.431 -0.8700  0.3248  0.0088
  173MOL    H4821032   3.235   1.972   4.489 -2.3938  1.3766  2.9566
  173MOL    H4921033   3.105   1.921   4.381  1.1141 -1.1705  0.7177
  173MOL    C5021034   3.053   2.077   4.526 -0.2052 -0.3636  0.4341
  173MOL    F5121035   3.126   2.124   4.624  0.9074  0.0548  0.1581
  173MOL    F5221036   2.987   2.173   4.467  0.1010  0.3587  0.5235
  173MOL    C5321037   2.955   1.971   4.585 -0.4115 -0.8378  0.0129
  173MOL    H5421038   3.011   1.894   4.636 -0.1981 -0.4663  0.3373
  173MOL    H5521039   2.906   1.919   4.502  1.4047 -1.3832 -0.7500
  173MOL    C5621040   2.866   2.025   4.691  0.0292  0.0572 -0.3353
  173MOL    F5721041   2.940   2.055   4.798  0.4363 -0.5026  0.0012
  173MOL    F5821042   2.815   2.143   4.645  0.1736  0.4878  0.2499
  173MOL    C5921043   2.752   1.932   4.731 -0.4429 -0.0103 -0.3158
  173MOL    H6021044   2.725   1.965   4.832 -0.5051 -0.4969 -0.1702
  173MOL    H6121045   2.803   1.836   4.742 -0.6938 -0.1083  0.0047
  173MOL    C6221046   2.627   1.922   4.638 -0.2032 -0.7365 -0.4382
  173MOL    F6321047   2.578   2.042   4.613 -0.7387 -0.2119 -0.4332
  173MOL    F6421048   2.658   1.872   4.521 -0.3039 -0.3324  0.1843
  173MOL    C6521049   2.515   1.838   4.700 -0.4403  0.3062 -0.6021
  173MOL    H6621050   2.496   1.883   4.797 -2.0060 -0.7848 -0.3939
  173MOL    H6721051   2.552   1.741   4.733  2.1485  1.3829 -0.2306
  173MOL    C6821052   2.392   1.820   4.609  0.1635 -0.4772  0.2165
  173MOL    F6921053   2.354   1.940   4.573 -0.0461  0.6013 -0.0565
  173MOL    F7021054   2.429   1.755   4.501 -0.2381  0.2691  0.1196
  173MOL    C7121055   2.279   1.753   4.684  0.3941 -0.2354  0.2878
  173MOL    H7221056   2.265   1.816   4.772 -1.1557 -2.1153  1.4341
  173MOL    H7321057   2.309   1.653   4.718 -0.8257 -1.5710 -2.3943
  173MOL    C7421058   2.142   1.741   4.614  0.1877  0.9046 -0.0826
  173MOL    F7521059   2.093   1.864   4.596  0.5711  0.4945 -0.4825
  173MOL    F7621060   2.145   1.682   4.492 -0.0956 -0.1901 -0.1690
  173MOL    C7721061   2.039   1.669   4.699  0.5847  0.6943 -0.4225
  173MOL    H7821062   2.076   1.566   4.695  0.1583  0.5460 -0.6683
  173MOL    H7921063   1.943   1.668   4.647  1.8431 -0.4928 -2.8327
  173MOL    C8021064   2.016   1.704   4.851  0.3328 -0.9414 -0.3109
  173MOL    F8121065   1.939   1.613   4.904 -0.4606 -0.1883 -0.5255
  173MOL    F8221066   2.137   1.680   4.913  0.0362  0.2354  0.0390
  173MOL    C8321067   1.972   1.847   4.880 -0.3848 -0.1508  0.5910
  173MOL    H8421068   2.048   1.917   4.846  0.3802 -1.9510 -1.5709
  173MOL    H8521069   1.976   1.863   4.988 -1.9965  0.8409  0.5145
  173MOL    C8621070   1.833   1.879   4.839 -0.5316  0.3152  0.3071
  173MOL    F8721071   1.844   1.896   4.710  0.1838  0.2941 -0.1274
  173MOL    F8821072   1.748   1.777   4.863 -0.4975  0.3519  0.0651
  173MOL    C8921073   1.763   1.995   4.910  0.0512  0.0212 -0.4900
  173MOL    H9021074   1.774   1.963   5.014 -0.6100  2.8322  0.4811
  173MOL    H9121075   1.657   1.991   4.885  0.2091  0.9814 -1.3235
  173MOL    C9221076   1.826   2.137   4.888 -0.2711  0.6638 -0.0295
  173MOL    F9321077   1.942   2.141   4.952  0.0021  0.0230 -0.2452
  173MOL    F9421078   1.836   2.160   4.751 -0.3089 -0.9796 -0.4846
  173MOL    C9521079   1.749   2.252   4.951  0.5582 -0.1449  1.0967
  173MOL    H9621080   1.813   2.338   4.931 -1.0982  0.8955  0.2183
  173MOL    H9721081   1.733   2.245   5.059 -0.1493  0.4693  1.0347
  173MOL    C9821082   1.604   2.268   4.896  0.1149 -0.1437 -0.4093
  173MOL    F9921083   1.603   2.259   4.762  0.1130  0.1209  0.3072
  173MOL   F10021084   1.520   2.180   4.952 -0.3825  0.0135 -0.1972
  173MOL   C10121085   1.527   2.400   4.939 -0.9585 -0.4002 -0.7224
  173MOL   H10221086   1.598   2.483   4.938 -0.8415 -0.5058 -1.6023
  173MOL   H10321087   1.481   2.380   5.035 -0.3664 -3.2638 -0.9692
  173MOL   C10421088   1.423   2.443   4.831  0.1933 -0.1725  0.1380
  173MOL   F10521089   1.342   2.341   4.790  0.1697  0.3504  0.5110
  173MOL   F10621090   1.347   2.534   4.897  0.0677  0.0573 -0.8409
  173MOL   C10721091   1.497   2.521   4.713 -0.2435  0.3849 -0.8081
  173MOL   H10821092   1.576   2.458   4.674  1.7401  2.3032 -0.0055
  173MOL   H10921093   1.545   2.610   4.754 -0.6752 -0.6541  2.0683
  173MOL   C11021094   1.412   2.562   4.592 -1.1766 -0.2147  0.1181
  173MOL   F11121095   1.354   2.460   4.522 -0.0312  0.0780 -0.5557
  173MOL   F11221096   1.318   2.645   4.632  0.3062  0.2396  0.1956
  173MOL   C11321097   1.493   2.629   4.480 -0.3862  0.1312 -0.5361
  173MOL   H11421098   1.428   2.686   4.414 -1.6374  0.3446  0.8446
  173MOL   H11521099   1.546   2.562   4.412 -0.4997  1.1695 -1.6546
  173MOL   C11621100   1.599   2.738   4.529 -0.4352  0.1047 -1.0903
  173MOL   F11721101   1.552   2.824   4.621  0.3239 -0.3567  0.4394
  173MOL   F11821102   1.709   2.679   4.578 -0.1695 -0.2699 -0.1746
  173MOL   C11921103   1.649   2.830   4.422 -0.6438  0.6743  0.8228
  173MOL   H12021104   1.562   2.865   4.366 -0.3411  0.3201  0.1308
  173MOL   H12121105   1.711   2.776   4.351 -1.3276  0.6737  0.2172
  173MOL   H12221106   1.694   2.921   4.463 -0.0770  1.1696 -0.8740
  174MOL     C121107   4.119   4.421   3.390 -0.3027 -0.9994  0.7961
  174MOL     F221108   4.192   4.338   3.311  0.0470 -0.7149  0.0013
  174MOL     F321109   3.998   4.361   3.372 -0.1464 -0.2426  0.0463
  174MOL     C421110   4.111   4.563   3.339  0.0971  0.2702  0.2607
  174MOL     H521111   4.047   4.554   3.251 -1.6861  0.4001  1.5077
  174MOL     H621112   4.204   4.604   3.301 -0.7943  1.3537 -0.7934
  174MOL     H721113   4.146   4.406   3.495  1.8291 -2.2095  0.1184
  174MOL     C821114   4.043   4.659   3.436  0.1731 -0.0044 -0.2066
  174MOL     F921115   4.120   4.650   3.546  0.4637 -0.4206  0.6730
  174MOL    F1021116   4.055   4.783   3.387  0.1154  0.4028  0.6097
  174MOL    C1121117   3.894   4.632   3.464  0.7009  0.0773 -0.4547
  174MOL    H1221118   3.886   4.527   3.489 -1.7043 -0.6219 -3.7441
  174MOL    H1321119   3.836   4.646   3.372 -2.0407 -3.7967  0.5405
  174MOL    C1421120   3.833   4.721   3.571 -0.4726  0.7542 -0.7472
  174MOL    F1521121   3.880   4.700   3.695 -0.4367  0.0197 -0.2136
  174MOL    F1621122   3.865   4.849   3.538 -0.5429 -0.2437 -0.2844
  174MOL    C1721123   3.684   4.705   3.565 -0.6954  0.1303  0.3791
  174MOL    H1821124   3.660   4.606   3.603 -1.2241  0.0891 -0.0646
  174MOL    H1921125   3.646   4.689   3.464 -0.3947 -0.6358  0.3881
  174MOL    C2021126   3.601   4.820   3.633  0.7862  0.2525 -0.7763
  174MOL    F2121127   3.651   4.849   3.754 -0.1276  0.4695  0.4867
  174MOL    F2221128   3.614   4.919   3.549 -0.4648 -0.2386  0.0413
  174MOL    C2321129   3.447   4.786   3.637 -0.1398 -0.4553 -0.4427
  174MOL    H2421130   3.440   4.696   3.699 -1.1216 -0.1497 -0.0929
  174MOL    H2521131   3.403   4.755   3.542  0.9584  1.2392 -1.5060
  174MOL    C2621132   3.349   4.893   3.700  0.3009 -0.6019 -0.0265
  174MOL    F2721133   3.233   4.842   3.666  0.1280 -0.6058 -0.1913
  174MOL    F2821134   3.361   4.891   3.831 -0.0359  0.4141  0.5100
  174MOL    C2921135   3.373   5.035   3.674  0.2609  0.2524 -0.5133
  174MOL    H3021136   3.385   5.054   3.567 -0.8673  0.0727 -0.6753
  174MOL    H3121137   3.469   5.059   3.721 -0.1709 -1.4480  1.2938
  174MOL    C3221138   3.268   5.132   3.725  0.8780  0.4051 -0.4005
  174MOL    F3321139   3.141   5.087   3.715 -0.4063  0.1892  0.3340
  174MOL    F3421140   3.296   5.149   3.856 -0.0501 -0.1352 -0.2431
  174MOL    C3521141   3.272   5.270   3.651  0.2956 -0.2650  0.4347
  174MOL    H3621142   3.178   5.317   3.682  0.6750 -0.1431  1.4190
  174MOL    H3721143   3.249   5.243   3.548 -1.4064 -0.6615  0.8951
  174MOL    C3821144   3.393   5.360   3.654 -0.3795 -0.0169 -0.6797
  174MOL    F3921145   3.502   5.299   3.610  0.3426  0.0099  0.2043
  174MOL    F4021146   3.365   5.455   3.564 -0.2729 -0.4704 -0.9132
  174MOL    C4121147   3.421   5.416   3.797  0.0155 -0.0739 -0.1821
  174MOL    H4221148   3.471   5.336   3.852 -0.7018 -1.1336 -1.0575
  174MOL    H4321149   3.324   5.441   3.841  0.1493  0.0214  0.0631
  174MOL    C4421150   3.504   5.547   3.808  0.0716  0.0749 -0.0400
  174MOL    F4521151   3.439   5.632   3.725 -0.0800  0.1732 -0.1420
  174MOL    F4621152   3.503   5.594   3.928 -0.3903 -0.3244 -0.0614
  174MOL    C4721153   3.649   5.545   3.747 -0.0036 -0.0488  0.3738
  174MOL    H4821154   3.677   5.646   3.717 -1.5113  0.3125  0.1526
  174MOL    H4921155   3.636   5.488   3.655  3.6844 -1.6554  0.7855
  174MOL    C5021156   3.759   5.485   3.829  0.0400  0.6132  0.1220
  174MOL    F5121157   3.771   5.556   3.937  0.0131 -0.2582  0.1845
  174MOL    F5221158   3.731   5.364   3.871  0.2247 -0.1090 -0.3873
  174MOL    C5321159   3.899   5.471   3.758 -0.3322 -0.2524  0.0082
  174MOL    H5421160   3.930   5.575   3.755 -0.7253 -0.1160  0.4482
  174MOL    H5521161   3.885   5.440   3.655  0.8172  0.5332 -0.3862
  174MOL    C5621162   4.013   5.383   3.814  0.2847  0.2017  0.4755
  174MOL    F5721163   3.979   5.256   3.787  0.1909 -0.2042  0.9721
  174MOL    F5821164   4.123   5.416   3.740 -0.3713  0.0046 -0.4290
  174MOL    C5921165   4.041   5.402   3.960 -0.1616 -0.1240  0.3110
  174MOL    H6021166   3.949   5.401   4.019 -1.2826  1.7327 -1.3271
  174MOL    H6121167   4.095   5.496   3.975 -0.3372 -0.0308  0.3596
  174MOL    C6221168   4.115   5.290   4.032  0.0543  0.1423  0.5623
  174MOL    F6321169   4.041   5.178   4.026 -0.3868 -0.4811  0.1493
  174MOL    F6421170   4.219   5.264   3.951 -0.1231 -0.3909 -0.0817
  174MOL    C6521171   4.176   5.319   4.174  0.0648  0.5713  0.1065
  174MOL    H6621172   4.253   5.393   4.153 -2.2130  2.3432 -2.3713
  174MOL    H6721173   4.235   5.236   4.212  0.1391  1.2049  1.3771
  174MOL    C6821174   4.079   5.347   4.284  0.6141 -0.8435  0.5867
  174MOL    F6921175   4.012   5.461   4.247 -0.0106  0.6323 -0.6134
  174MOL    F7021176   3.996   5.245   4.301  0.1115  0.2878 -0.0420
  174MOL    C7121177   4.148   5.382   4.421  0.4517  0.0719 -1.1947
  174MOL    H7221178   4.215   5.467   4.411 -0.4963  0.8109 -1.3954
  174MOL    H7321179   4.205   5.296   4.457  0.0486  0.4053  0.2982
  174MOL    C7421180   4.059   5.436   4.530  0.0165  0.1252  0.3780
  174MOL    F7521181   4.008   5.553   4.496 -0.1155 -0.4157 -0.1530
  174MOL    F7621182   3.952   5.366   4.538 -0.3786  1.0126  0.3572
  174MOL    C7721183   4.122   5.437   4.668  0.4381  0.5774  0.5464
  174MOL    H7821184   4.177   5.345   4.686 -1.3655 -0.6397 -0.0009
  174MOL    H7921185   4.032   5.432   4.730  1.2036 -1.7833  1.5369
  174MOL    C8021186   4.210   5.558   4.710  0.6495  0.9150  0.0135
  174MOL    F8121187   4.324   5.563   4.637  0.4752  0.2292  0.0713
  174MOL    F8221188   4.139   5.676   4.684 -0.1583 -0.5093 -0.2114
  174MOL    C8321189   4.262   5.551   4.855 -0.0898 -0.1944 -0.3514
  174MOL    H8421190   4.315   5.643   4.876  1.6477 -0.8124 -2.0069
  174MOL    H8521191   4.327   5.463   4.849  0.7787  0.2770  1.6525
  174MOL    C8621192   4.154   5.529   4.964  0.2040  0.1812  0.4407
  174MOL    F8721193   4.052   5.628   4.954  0.4236  0.7853 -0.0220
  174MOL    F8821194   4.103   5.408   4.948 -0.1028 -0.5977 -0.4193
  174MOL    C8921195   4.209   5.538   5.103  0.6183 -0.4841  0.1103
  174MOL    H9021196   4.135   5.522   5.180 -1.8674 -0.5083 -2.2150
  174MOL    H9121197   4.226   5.644   5.121 -1.7015 -0.6743  3.9780
  174MOL    C9221198   4.335   5.451   5.136 -0.6562 -0.1929  0.3225
  174MOL    F9321199   4.309   5.326   5.101  0.1999 -0.4930  0.1053
  174MOL    F9421200   4.450   5.479   5.072  0.2035 -0.0407 -0.0216
  174MOL    C9521201   4.368   5.460   5.285  0.3569  0.1991 -0.7447
  174MOL    H9621202   4.284   5.431   5.348 -1.4502  1.0165 -2.7124
  174MOL    H9721203   4.398   5.563   5.306  1.5600 -0.0782 -1.0584
  174MOL    C9821204   4.484   5.375   5.330  0.2830 -0.1530  0.2132
  174MOL    F9921205   4.444   5.252   5.298  0.3874  0.7873 -0.1638
  174MOL   F10021206   4.582   5.399   5.257  0.0551 -0.1299  0.1301
  174MOL   C10121207   4.518   5.397   5.479 -0.2258  0.3651  0.1262
  174MOL   H10221208   4.522   5.505   5.496 -1.0217  0.6136 -1.1844
  174MOL   H10321209   4.622   5.364   5.481 -0.2187  0.3578 -0.3336
  174MOL   C10421210   4.430   5.324   5.588 -0.3190  0.2115  0.8330
  174MOL   F10521211   4.301   5.365   5.582  0.0115  0.3522 -0.3788
  174MOL   F10621212   4.431   5.202   5.560 -0.1868 -0.3816  0.4326
  174MOL   C10721213   4.475   5.355   5.738 -0.5499  0.0935  0.2268
  174MOL   H10821214   4.399   5.308   5.801 -1.7484  0.8632 -0.6081
  174MOL   H10921215   4.477   5.463   5.754  2.4098 -0.1356  1.7555
  174MOL   C11021216   4.613   5.306   5.784  0.2253  0.2200  0.4554
  174MOL   F11121217   4.609   5.174   5.762 -0.3218 -0.0565 -0.0690
  174MOL   F11221218   4.702   5.361   5.705  0.0073  0.5922  0.6133
  174MOL   C11321219   4.631   5.342   5.936  0.1796  0.3760 -0.1106
  174MOL   H11421220   4.550   5.310   6.002  0.5750  0.5843  0.4795
  174MOL   H11521221   4.637   5.449   5.951 -3.1336  0.5324  0.4782
  174MOL   C11621222   4.769   5.294   5.991 -0.5936 -0.5711  0.0967
  174MOL   F11721223   4.767   5.161   6.008 -0.8615 -0.3612  0.3572
  174MOL   F11821224   4.874   5.346   5.922 -0.2909 -0.6553 -0.5682
  174MOL   C11921225   4.798   5.334   6.135  0.5118  0.3577 -0.1806
  174MOL   H12021226   4.710   5.335   6.198 -0.2279 -1.9150 -1.1248
  174MOL   H12121227   4.834   5.437   6.131 -2.3646  1.4243  0.4438
  174MOL   H12221228   4.867   5.262   6.180 -1.9870 -2.4345 -0.6485
  175MOL     C121229   2.746   2.297   6.092 -0.5371  0.3323  0.4322
  175MOL     F221230   2.871   2.341   6.086 -0.4103 -0.4993 -0.0195
  175MOL     F321231   2.702   2.332   6.216  0.0644 -0.1190 -0.3512
  175MOL     C421232   2.729   2.145   6.062 -0.5031  0.2240  1.7986
  175MOL     H521233   2.632   2.098   6.073  0.0307 -0.6265  2.9916
  175MOL     H621234   2.802   2.095   6.125 -0.1404 -2.0723 -0.3716
  175MOL     H721235   2.689   2.366   6.029  1.2802  1.7549  0.2938
  175MOL     C821236   2.777   2.118   5.916  0.9889  0.0710 -0.4085
  175MOL     F921237   2.685   2.180   5.840  0.2168 -0.1179 -0.1062
  175MOL    F1021238   2.896   2.177   5.906 -0.3059 -0.4345 -0.4459
  175MOL    C1121239   2.791   1.970   5.879  0.1635 -0.3309  0.1914
  175MOL    H1221240   2.839   1.972   5.781  0.1588  0.3200  0.1991
  175MOL    H1321241   2.689   1.931   5.876  0.4168 -1.2461  2.5153
  175MOL    C1421242   2.863   1.873   5.983  0.3191  0.7322 -0.2865
  175MOL    F1521243   2.977   1.920   6.017  0.4914  0.6124  0.3087
  175MOL    F1621244   2.793   1.847   6.092  0.0107  0.5889 -0.1159
  175MOL    C1721245   2.901   1.745   5.907 -0.0728  0.0676  0.5567
  175MOL    H1821246   2.953   1.790   5.822  0.8497 -2.2544 -0.1450
  175MOL    H1921247   2.814   1.690   5.870  0.6308 -0.6214 -0.0949
  175MOL    C2021248   2.993   1.640   5.975 -1.1740  0.6512 -0.4640
  175MOL    F2121249   3.102   1.696   6.029 -0.2115 -0.1169  0.1919
  175MOL    F2221250   2.917   1.577   6.065  0.2784  0.1110 -0.1324
  175MOL    C2321251   3.028   1.537   5.872 -0.4378  0.5733 -0.0007
  175MOL    H2421252   3.094   1.574   5.793 -0.3384  0.1599 -0.1137
  175MOL    H2521253   2.938   1.502   5.822 -0.5490 -2.9170  2.4874
  175MOL    C2621254   3.096   1.412   5.920  0.0271  0.3615 -0.6215
  175MOL    F2721255   3.189   1.447   6.001 -0.1293  0.3244 -0.0523
  175MOL    F2821256   3.009   1.341   5.989 -0.0885  0.4235 -0.0597
  175MOL    C2921257   3.161   1.322   5.805  0.4811  0.1932 -0.6966
  175MOL    H3021258   3.227   1.383   5.742  0.1261  2.8655  1.4466
  175MOL    H3121259   3.080   1.293   5.738 -1.5344  0.1490  1.7081
  175MOL    C3221260   3.243   1.198   5.839  0.5630 -0.1712  0.1488
  175MOL    F3321261   3.274   1.129   5.730 -0.8211  0.4978  0.2860
  175MOL    F3421262   3.359   1.228   5.890  0.0485  0.1339  0.5645
  175MOL    C3521263   3.171   1.109   5.930 -0.1579  0.0813 -0.4004
  175MOL    H3621264   3.075   1.091   5.881  0.1905  0.7362 -1.3404
  175MOL    H3721265   3.154   1.160   6.025 -0.8212 -0.7465 -0.0610
  175MOL    C3821266   3.226   0.968   5.960 -0.1960 -0.0188  0.8578
  175MOL    F3921267   3.133   0.910   6.032  0.1862 -0.3216 -0.1134
  175MOL    F4021268   3.226   0.906   5.845  0.1815  0.2836  0.2364
  175MOL    C4121269   3.371   0.950   6.021  0.1522  0.0358  0.1250
  175MOL    H4221270   3.447   1.010   5.971 -0.2093  0.7380  0.4199
  175MOL    H4321271   3.411   0.850   6.003  1.1084  0.5544 -0.7108
  175MOL    C4421272   3.401   0.995   6.170 -0.0678 -0.2041 -0.6013
  175MOL    F4521273   3.532   1.000   6.195  0.3057 -0.4804 -0.0376
  175MOL    F4621274   3.350   1.119   6.188  0.2208  0.1133 -0.0156
  175MOL    C4721275   3.339   0.911   6.280 -0.3001  0.5205 -1.0959
  175MOL    H4821276   3.239   0.889   6.242 -1.0251  2.8948 -0.6148
  175MOL    H4921277   3.337   0.959   6.377  1.3035  2.3090 -1.9205
  175MOL    C5021278   3.410   0.773   6.316 -0.3828  0.5008 -0.4335
  175MOL    F5121279   3.388   0.698   6.210 -0.2371 -0.7210  0.1491
  175MOL    F5221280   3.546   0.773   6.325  0.3561  0.3313 -0.2241
  175MOL    C5321281   3.346   0.702   6.441  0.1140  0.3072  0.4263
  175MOL    H5421282   3.362   0.775   6.521  1.6750 -0.4038  0.7893
  175MOL    H5521283   3.399   0.608   6.454  0.5979  0.3199 -1.3184
  175MOL    C5621284   3.201   0.652   6.426 -0.2939  0.3234  0.2001
  175MOL    F5721285   3.128   0.762   6.412 -0.1921  0.0048 -0.4769
  175MOL    F5821286   3.182   0.584   6.315  0.4150 -0.2145  0.0695
  175MOL    C5921287   3.163   0.568   6.549 -0.3066 -0.6108 -0.8364
  175MOL    H6021288   3.225   0.584   6.638 -0.1134 -0.1190 -1.0546
  175MOL    H6121289   3.177   0.462   6.528 -3.1472 -1.2354  0.2414
  175MOL    C6221290   3.020   0.567   6.598 -0.4970 -0.3101  0.4215
  175MOL    F6321291   2.940   0.503   6.510  0.0318  0.1986 -0.1134
  175MOL    F6421292   3.006   0.493   6.709  0.2479 -0.7053  0.2613
  175MOL    C6521293   2.967   0.708   6.635  0.1004 -0.5949 -0.3323
  175MOL    H6621294   2.866   0.707   6.674  0.7788 -0.5846  1.4997
  175MOL    H6721295   2.950   0.759   6.540 -1.3141 -0.7460 -0.1659
  175MOL    C6821296   3.037   0.801   6.734  0.3514  0.2056 -0.3940
  175MOL    F6921297   3.073   0.735   6.845  0.1944  0.1298  0.1844
  175MOL    F7021298   3.147   0.841   6.670  0.4535  0.2228  0.6124
  175MOL    C7121299   2.962   0.930   6.763 -0.0298  0.1504  0.4588
  175MOL    H7221300   2.885   0.891   6.829  1.2746 -1.3544  1.1274
  175MOL    H7321301   2.927   0.968   6.667  2.2900 -0.5396 -0.7035
  175MOL    C7421302   3.046   1.050   6.828 -0.2680 -0.6599  0.0049
  175MOL    F7521303   3.148   1.084   6.748  0.8341  0.0634  0.3501
  175MOL    F7621304   2.960   1.154   6.829 -0.4583  0.4700 -0.5635
  175MOL    C7721305   3.091   1.031   6.974 -0.1454 -0.3179 -0.2269
  175MOL    H7821306   3.157   0.944   6.978 -0.1782 -0.3476 -0.3314
  175MOL    H7921307   3.005   1.005   7.036 -0.1307 -2.1429 -0.9583
  175MOL    C8021308   3.148   1.153   7.047 -0.4507 -0.1798 -0.3717
  175MOL    F8121309   3.053   1.251   7.060 -0.0580  0.3941  0.4644
  175MOL    F8221310   3.183   1.122   7.171 -0.3551  0.2548 -0.0795
  175MOL    C8321311   3.278   1.207   6.976  0.0955  0.0627  0.7201
  175MOL    H8421312   3.252   1.244   6.877  0.3975 -0.1699  0.5483
  175MOL    H8521313   3.347   1.125   6.953 -2.5585 -1.1729 -3.4266
  175MOL    C8621314   3.357   1.324   7.048  0.5217 -0.1967 -0.4877
  175MOL    F8721315   3.447   1.374   6.965 -0.3300 -0.1842 -0.1033
  175MOL    F8821316   3.269   1.414   7.065 -0.8001 -0.6494 -0.3360
  175MOL    C8921317   3.431   1.292   7.175 -0.1114  0.8941  0.0337
  175MOL    H9021318   3.359   1.262   7.251 -1.1274  0.2980 -1.1378
  175MOL    H9121319   3.466   1.381   7.227 -0.3862  1.1357 -0.1899
  175MOL    C9221320   3.560   1.202   7.170  0.7498 -0.5913  0.5007
  175MOL    F9321321   3.541   1.106   7.080 -0.7547 -0.3751 -0.2755
  175MOL    F9421322   3.655   1.280   7.120  0.4510  0.6312  0.1938
  175MOL    C9521323   3.595   1.143   7.306  0.0476  0.1203 -0.9096
  175MOL    H9621324   3.684   1.082   7.289  0.5229  0.2440  1.0232
  175MOL    H9721325   3.512   1.081   7.340  0.5021 -0.2673 -0.5102
  175MOL    C9821326   3.625   1.239   7.425  0.7982  1.1177  0.9140
  175MOL    F9921327   3.724   1.318   7.383 -0.1120  0.5762 -0.2170
  175MOL   F10021328   3.522   1.323   7.446 -0.3607 -0.0130 -0.4249
  175MOL   C10121329   3.660   1.159   7.556  0.4141  0.0334 -1.2965
  175MOL   H10221330   3.755   1.111   7.535  1.1252  0.9722 -0.2911
  175MOL   H10321331   3.588   1.079   7.568  1.3250 -0.6384 -0.2841
  175MOL   C10421332   3.701   1.237   7.685 -0.5944  0.4972  0.6963
  175MOL   F10521333   3.764   1.149   7.770 -0.0137 -0.3227  0.4035
  175MOL   F10621334   3.797   1.329   7.652  0.6986 -0.0263  0.2458
  175MOL   C10721335   3.582   1.310   7.747  0.1959  0.2001  0.3910
  175MOL   H10821336   3.498   1.240   7.748  0.0157  0.3795 -1.1260
  175MOL   H10921337   3.555   1.385   7.674  0.6618 -1.5956 -1.6839
  175MOL   C11021338   3.605   1.348   7.891 -0.8121  1.1764 -0.1775
  175MOL   F11121339   3.621   1.243   7.960 -0.4997 -0.4117  0.3744
  175MOL   F11221340   3.718   1.422   7.900 -0.3411 -0.0492 -0.3913
  175MOL   C11321341   3.499   1.435   7.952  0.5169  0.8549  0.0379
  175MOL   H11421342   3.525   1.457   8.055  0.2652 -2.7348  0.9135
  175MOL   H11521343   3.411   1.375   7.973 -1.2375  3.6407  0.9141
  175MOL   C11621344   3.448   1.563   7.878 -0.3322  1.0846 -0.3222
  175MOL   F11721345   3.364   1.526   7.778 -0.3137 -0.4116 -0.2876
  175MOL   F11821346   3.379   1.626   7.968  0.0305 -0.0168  0.0593
  175MOL   C11921347   3.555   1.646   7.804 -0.0589  0.7946 -0.7795
  175MOL   H12021348   3.593   1.600   7.713 -0.2498 -0.9947  0.0326
  175MOL   H12121349   3.630   1.662   7.882  1.1489 -0.6485 -1.6246
  175MOL   H12221350   3.517   1.743   7.770  0.2492  1.9427  2.0026
  176MOL     C121351   1.762   5.984   5.662 -0.4244 -0.2341 -0.0050
  176MOL     F221352   1.671   6.077   5.688 -0.6406 -0.3476  0.5217
  176MOL     F321353   1.755   5.899   5.773 -0.2500  0.0518 -0.2821
  176MOL     C421354   1.910   6.033   5.645  0.6679  0.0604  0.1571
  176MOL     H521355   1.948   6.087   5.732 -0.6720 -0.5235  1.1040
  176MOL     H621356   1.912   6.111   5.570  1.6232  0.0219  0.1288
  176MOL     H721357   1.732   5.921   5.579 -1.4800  1.1686 -0.7055
  176MOL     C821358   2.016   5.921   5.614 -0.5709  1.1599  0.2283
  176MOL     F921359   2.012   5.821   5.717  0.1482 -0.3334  0.0755
  176MOL    F1021360   1.991   5.858   5.503  0.3419  0.0188 -0.0323
  176MOL    C1121361   2.154   5.991   5.604 -0.3690 -0.1342 -0.1036
  176MOL    H1221362   2.179   6.046   5.695 -1.3276 -0.5494  0.4108
  176MOL    H1321363   2.157   6.063   5.522 -1.2011  0.7900  0.6721
  176MOL    C1421364   2.266   5.894   5.566 -0.3109  0.2485 -0.3538
  176MOL    F1521365   2.247   5.858   5.436  0.1985 -0.0735 -0.5513
  176MOL    F1621366   2.380   5.965   5.572  0.0862  0.0171  0.4895
  176MOL    C1721367   2.270   5.768   5.657  0.3145 -0.4112  0.0595
  176MOL    H1821368   2.204   5.692   5.614 -2.3659  2.0916 -0.4254
  176MOL    H1921369   2.233   5.792   5.757 -1.0746  2.1239 -1.0253
  176MOL    C2021370   2.411   5.711   5.679 -0.5078  0.2136  0.6413
  176MOL    F2121371   2.480   5.782   5.766  0.5178  0.5717  0.0995
  176MOL    F2221372   2.376   5.589   5.737 -0.0946 -0.7373 -0.0782
  176MOL    C2321373   2.493   5.679   5.554  0.1332 -0.1783  1.1648
  176MOL    H2421374   2.511   5.774   5.503 -0.2574  0.2489  1.8143
  176MOL    H2521375   2.432   5.630   5.478  0.8204  2.0190 -0.8669
  176MOL    C2621376   2.631   5.620   5.572  0.3182 -0.2791  0.3217
  176MOL    F2721377   2.712   5.693   5.655 -0.1917 -0.0882 -0.3548
  176MOL    F2821378   2.618   5.501   5.632 -0.1698 -0.0275  0.7799
  176MOL    C2921379   2.702   5.604   5.437 -0.7127 -0.2166 -0.3484
  176MOL    H3021380   2.729   5.699   5.389  1.9146 -0.8361 -0.2076
  176MOL    H3121381   2.635   5.543   5.377 -1.2641 -1.2635  1.3201
  176MOL    C3221382   2.837   5.525   5.448 -0.0907  0.0327 -0.7421
  176MOL    F3321383   2.923   5.607   5.515  0.1572 -0.1899  0.3426
  176MOL    F3421384   2.810   5.412   5.516  0.0368  0.3100 -0.2331
  176MOL    C3521385   2.905   5.472   5.322 -0.0533 -0.3609 -0.3039
  176MOL    H3621386   2.843   5.407   5.261  0.1002  0.0258 -0.8770
  176MOL    H3721387   2.986   5.409   5.359 -1.3328  0.1657  3.6032
  176MOL    C3821388   2.970   5.570   5.224  0.3546 -0.6801  0.2375
  176MOL    F3921389   2.866   5.640   5.167 -0.5365 -0.2541 -0.2322
  176MOL    F4021390   3.047   5.652   5.286 -0.4007  0.7637 -0.1258
  176MOL    C4121391   3.053   5.494   5.112  0.2637 -0.1133 -0.3986
  176MOL    H4221392   2.980   5.435   5.057  1.8900 -2.2665 -0.3164
  176MOL    H4321393   3.112   5.419   5.165  0.2016 -0.2497 -0.5256
  176MOL    C4421394   3.121   5.582   5.005 -0.2107 -0.5437  0.3767
  176MOL    F4521395   3.224   5.633   5.069  0.1366  0.0608 -0.2489
  176MOL    F4621396   3.172   5.501   4.914 -0.4615  0.6184  0.1242
  176MOL    C4721397   3.027   5.696   4.939 -0.4764 -0.3726  0.1922
  176MOL    H4821398   2.997   5.763   5.020  3.9163  0.2353  1.4787
  176MOL    H4921399   2.930   5.656   4.908 -1.0118  0.7641  0.3871
  176MOL    C5021400   3.099   5.783   4.840 -0.6894 -0.2821  0.1907
  176MOL    F5121401   3.217   5.836   4.875 -0.4487  0.0309 -0.1943
  176MOL    F5221402   3.135   5.705   4.738 -0.0502 -0.1234 -0.6152
  176MOL    C5321403   3.008   5.901   4.792  0.4445  0.3685 -0.1340
  176MOL    H5421404   2.984   5.959   4.881  0.0170  0.4948 -0.3339
  176MOL    H5521405   2.913   5.855   4.767 -0.1126  0.2498  2.0392
  176MOL    C5621406   3.056   5.998   4.682 -0.6498 -0.0631  0.5524
  176MOL    F5721407   3.081   5.921   4.574 -0.2861 -0.0782  0.1331
  176MOL    F5821408   2.949   6.075   4.662  0.4814  0.3017  0.5923
  176MOL    C5921409   3.180   6.094   4.719  0.0792 -0.2977 -0.0849
  176MOL    H6021410   3.277   6.045   4.727 -0.4961 -1.2196  1.4526
  176MOL    H6121411   3.151   6.153   4.806  0.9283  1.8908 -1.2538
  176MOL    C6221412   3.202   6.208   4.617 -0.0653 -0.1203  0.3782
  176MOL    F6321413   3.093   6.280   4.619 -0.4897 -0.4452  0.0181
  176MOL    F6421414   3.300   6.291   4.653  0.2730 -0.7479  0.3608
  176MOL    C6521415   3.247   6.155   4.484 -0.0283 -0.3032 -0.5100
  176MOL    H6621416   3.171   6.086   4.447 -0.9129  1.1490 -1.4114
  176MOL    H6721417   3.331   6.087   4.500 -0.0021  0.1830  1.5558
  176MOL    C6821418   3.283   6.261   4.378 -0.4286  0.1673 -1.1738
  176MOL    F6921419   3.184   6.356   4.375 -0.6124 -0.0568 -0.1553
  176MOL    F7021420   3.393   6.335   4.409  0.5038  0.4117 -0.0657
  176MOL    C7121421   3.297   6.205   4.229 -0.0238 -0.1911 -0.5058
  176MOL    H7221422   3.287   6.283   4.153  1.7067  0.3343 -0.2056
  176MOL    H7321423   3.207   6.146   4.213 -0.6727  0.5970  0.1967
  176MOL    C7421424   3.430   6.123   4.200 -0.4494 -0.7121 -0.6159
  176MOL    F7521425   3.533   6.194   4.240  0.3259  0.4529 -0.0376
  176MOL    F7621426   3.421   6.014   4.278  0.2312 -0.0186  0.2435
  176MOL    C7721427   3.450   6.105   4.049 -0.3193 -0.6653  0.4694
  176MOL    H7821428   3.446   6.208   4.014  0.1273 -0.3834  1.2319
  176MOL    H7921429   3.365   6.052   4.007  0.2234 -0.2063 -1.2374
  176MOL    C8021430   3.581   6.037   3.996  0.5230  0.2404 -0.2731
  176MOL    F8121431   3.689   6.109   4.024  0.1464  0.0299  0.0375
  176MOL    F8221432   3.584   5.918   4.061  0.9580  0.4911  0.2234
  176MOL    C8321433   3.562   6.010   3.848  0.2535 -0.0037 -0.1939
  176MOL    H8421434   3.529   6.104   3.805  0.2914  0.1971  0.2151
  176MOL    H8521435   3.477   5.943   3.841 -0.8254  1.2068  1.0360
  176MOL    C8621436   3.683   5.955   3.778 -0.0906 -0.6537  0.4005
  176MOL    F8721437   3.751   5.863   3.851  0.3783  0.0944 -0.0574
  176MOL    F8821438   3.641   5.896   3.664 -0.0568 -0.4778 -0.0063
  176MOL    C8921439   3.786   6.060   3.721 -0.0483  0.0120  0.1762
  176MOL    H9021440   3.805   6.135   3.799 -2.0007  2.2819 -1.4688
  176MOL    H9121441   3.739   6.114   3.640 -0.7812 -1.4466 -0.3895
  176MOL    C9221442   3.913   6.000   3.657 -0.3013 -0.7038  0.5955
  176MOL    F9321443   3.983   6.102   3.599 -0.4598 -0.0694  0.3006
  176MOL    F9421444   3.985   5.944   3.750 -0.5705 -0.2089 -0.3808
  176MOL    C9521445   3.901   5.890   3.553 -0.7121  0.1630  0.6880
  176MOL    H9621446   3.831   5.918   3.474  0.9179  1.6701 -0.2681
  176MOL    H9721447   3.850   5.803   3.593 -1.1123 -1.6608 -3.5208
  176MOL    C9821448   4.028   5.846   3.486  0.0586  0.1831 -0.3504
  176MOL    F9921449   4.108   5.945   3.451  0.0283  0.2654 -0.4844
  176MOL   F10021450   4.100   5.770   3.565  0.1253  0.4052  0.3279
  176MOL   C10121451   4.007   5.766   3.359  0.3255 -0.2062 -1.0581
  176MOL   H10221452   4.102   5.743   3.310  0.3470  0.1420 -1.1783
  176MOL   H10321453   3.961   5.841   3.295 -2.5973 -0.5677  0.5633
  176MOL   C10421454   3.927   5.634   3.368  0.2680 -0.7461 -0.9276
  176MOL   F10521455   3.940   5.573   3.481 -0.2674  0.3068  0.4241
  176MOL   F10621456   3.806   5.675   3.361 -0.0586  0.1301 -0.7644
  176MOL   C10721457   3.973   5.536   3.252  0.3859  0.0786 -0.7286
  176MOL   H10821458   4.081   5.524   3.263  0.4733  1.5852  0.2062
  176MOL   H10921459   3.952   5.580   3.154 -0.2824 -0.9905 -1.0799
  176MOL   C11021460   3.909   5.403   3.256  0.5589 -0.1767  0.2324
  176MOL   F11121461   3.963   5.336   3.155  0.1097 -0.4262  0.1697
  176MOL   F11221462   3.937   5.339   3.373 -0.2171  0.6246  0.0392
  176MOL   C11321463   3.754   5.413   3.232  0.3514 -0.0342 -0.0253
  176MOL   H11421464   3.722   5.470   3.145  0.5873  0.4052  0.1772
  176MOL   H11521465   3.712   5.461   3.321  0.5562 -0.1950  0.1589
  176MOL   C11621466   3.678   5.280   3.221 -0.2995 -0.5029  0.0163
  176MOL   F11721467   3.548   5.289   3.229  0.6324  0.0727 -0.2548
  176MOL   F11821468   3.702   5.226   3.101  0.2782  0.6568  0.1519
  176MOL   C11921469   3.706   5.187   3.341  0.0536  0.1736 -0.7826
  176MOL   H12021470   3.626   5.113   3.348 -0.5368  1.0032  2.4202
  176MOL   H12121471   3.697   5.237   3.438  2.9755  3.5568 -2.1529
  176MOL   H12221472   3.797   5.128   3.332 -0.5791 -0.8578 -0.5347
  177MOL     C121473   2.507   4.300   1.714 -0.0112 -0.1180 -0.2573
  177MOL     F221474   2.617   4.310   1.641  0.3415  0.0492 -0.5115
  177MOL     F321475   2.531   4.363   1.827 -0.3623 -0.2343  0.1007
  177MOL     C421476   2.476   4.151   1.741 -0.1645  0.4834  0.0914
  177MOL     H521477   2.541   4.108   1.818  0.4064  0.6180 -0.3148
  177MOL     H621478   2.501   4.092   1.653 -2.1684 -1.4447  0.7811
  177MOL     H721479   2.425   4.346   1.659 -1.2129 -0.5654  1.1442
  177MOL     C821480   2.335   4.130   1.775  0.2757  0.4255 -0.1233
  177MOL     F921481   2.329   4.024   1.850 -0.2815 -0.2828  0.8508
  177MOL    F1021482   2.295   4.235   1.853 -0.0996  0.5780 -0.1605
  177MOL    C1121483   2.244   4.119   1.652 -0.3255 -0.5492  0.9248
  177MOL    H1221484   2.272   4.028   1.598  0.3877  0.8760 -1.1946
  177MOL    H1321485   2.280   4.197   1.585 -2.3240 -0.9077 -0.5988
  177MOL    C1421486   2.083   4.126   1.684  0.3436  0.3281 -0.2299
  177MOL    F1521487   2.032   4.083   1.569 -0.1608 -0.0718  0.5396
  177MOL    F1621488   2.048   4.037   1.778  0.5403  0.0674  0.0542
  177MOL    C1721489   2.026   4.264   1.727  0.2400 -0.0996 -0.4770
  177MOL    H1821490   2.058   4.277   1.831 -1.2562 -0.3761  0.0344
  177MOL    H1921491   1.917   4.258   1.732  0.2443 -0.2636 -0.5681
  177MOL    C2021492   2.064   4.392   1.645 -0.6071  0.5338  0.3639
  177MOL    F2121493   2.188   4.420   1.665 -0.1704  0.4831 -0.8457
  177MOL    F2221494   2.047   4.362   1.511  0.1055  0.1177 -0.2343
  177MOL    C2321495   1.991   4.525   1.681  0.2407  0.4752  0.0255
  177MOL    H2421496   1.889   4.522   1.641 -0.2482  2.6502  1.0136
  177MOL    H2521497   2.033   4.606   1.622 -0.6421 -0.2055 -1.5698
  177MOL    C2621498   1.971   4.569   1.828  0.5413  0.1689  0.2269
  177MOL    F2721499   1.875   4.663   1.831  0.7799 -0.4088 -0.1014
  177MOL    F2821500   1.912   4.470   1.901  0.3060  0.0738  0.1363
  177MOL    C2921501   2.103   4.614   1.896 -0.2658 -0.0732 -0.1080
  177MOL    H3021502   2.170   4.528   1.904 -0.4562 -0.0124  2.3462
  177MOL    H3121503   2.088   4.638   2.001 -1.5263  0.6302 -0.4438
  177MOL    C3221504   2.172   4.733   1.834 -0.5553  0.5133  0.0763
  177MOL    F3321505   2.271   4.759   1.922 -0.3463  0.4522  0.3304
  177MOL    F3421506   2.230   4.696   1.721  0.3927 -0.1613  0.5615
  177MOL    C3521507   2.086   4.859   1.822  0.9733  0.3275 -0.7225
  177MOL    H3621508   2.015   4.839   1.742 -1.9832 -2.3111  2.3859
  177MOL    H3721509   2.156   4.928   1.776  0.1150  2.5406  1.2081
  177MOL    C3821510   2.023   4.932   1.945  0.2689 -0.2142  0.3241
  177MOL    F3921511   1.962   5.039   1.896 -0.0481  0.1763  0.1339
  177MOL    F4021512   1.924   4.857   2.000  0.3247 -0.6080  0.3811
  177MOL    C4121513   2.124   4.977   2.048  0.7701 -0.3784 -0.0006
  177MOL    H4221514   2.204   5.036   2.004 -0.2904  2.0046  1.1857
  177MOL    H4321515   2.181   4.892   2.086  0.6329 -0.9193 -0.9770
  177MOL    C4421516   2.081   5.046   2.171 -0.1812 -0.1075  0.4982
  177MOL    F4521517   2.200   5.081   2.219 -0.4308  0.6085 -0.0071
  177MOL    F4621518   2.030   5.156   2.128 -0.3304  0.0284 -0.2212
  177MOL    C4721519   1.995   4.971   2.269  0.6831  0.3187 -0.2599
  177MOL    H4821520   2.042   4.880   2.305  1.0389  1.0968  1.3315
  177MOL    H4921521   1.900   4.950   2.220  1.3726  0.5341 -1.7093
  177MOL    C5021522   1.954   5.059   2.394 -0.1882  0.1414  0.3996
  177MOL    F5121523   2.068   5.079   2.466 -0.2568 -0.1713  0.3067
  177MOL    F5221524   1.907   5.171   2.364 -0.7138  0.1082 -0.3861
  177MOL    C5321525   1.849   4.999   2.483  0.2660  0.1760  0.5163
  177MOL    H5421526   1.768   4.959   2.421  0.4467  1.7698 -0.7528
  177MOL    H5521527   1.807   5.075   2.549  1.1016  0.2061  1.0175
  177MOL    C5621528   1.898   4.875   2.563 -0.2834  0.1968 -0.7838
  177MOL    F5721529   1.948   4.787   2.475 -0.1989 -0.2747 -0.1637
  177MOL    F5821530   1.992   4.912   2.654 -0.1188  0.2387  0.0315
  177MOL    C5921531   1.788   4.798   2.642 -0.2431 -0.3048  0.4277
  177MOL    H6021532   1.835   4.714   2.693 -1.3697 -1.2394 -0.0443
  177MOL    H6121533   1.714   4.750   2.579  2.3624 -3.2276 -0.5112
  177MOL    C6221534   1.703   4.876   2.741 -0.9693 -0.4544  0.3096
  177MOL    F6321535   1.641   4.967   2.673 -0.3448  0.1172 -0.0638
  177MOL    F6421536   1.606   4.790   2.774  0.1977 -0.6460 -0.2641
  177MOL    C6521537   1.759   4.945   2.867  0.6853  0.1014 -0.2198
  177MOL    H6621538   1.809   5.036   2.834 -0.2755  1.0113  0.7771
  177MOL    H6721539   1.835   4.872   2.893  0.8630 -0.4192 -2.1608
  177MOL    C6821540   1.661   4.981   2.984  0.6874  0.7130  0.0641
  177MOL    F6921541   1.733   5.030   3.082 -0.4980  0.2532 -0.0561
  177MOL    F7021542   1.576   5.079   2.930 -0.0647  0.3266 -0.2988
  177MOL    C7121543   1.579   4.866   3.041 -0.6162 -0.1237  0.0421
  177MOL    H7221544   1.640   4.778   3.059 -3.3136 -2.0391  0.1123
  177MOL    H7321545   1.502   4.838   2.969  0.4501  0.6594 -1.4305
  177MOL    C7421546   1.504   4.882   3.175 -0.2690 -0.1523  0.1222
  177MOL    F7521547   1.594   4.916   3.276  0.0182 -0.3214 -0.5681
  177MOL    F7621548   1.435   4.996   3.166  0.1995  0.7410 -0.0921
  177MOL    C7721549   1.417   4.764   3.212  0.1788 -0.5657 -0.4036
  177MOL    H7821550   1.472   4.671   3.195 -0.7791 -1.3551  0.7001
  177MOL    H7921551   1.322   4.773   3.160 -0.1984  0.3073  0.4266
  177MOL    C8021552   1.386   4.731   3.361 -0.0209 -0.9261  0.4610
  177MOL    F8121553   1.296   4.634   3.361 -0.1457 -0.1720  0.7147
  177MOL    F8221554   1.495   4.699   3.427 -0.2872  0.4047  1.0470
  177MOL    C8321555   1.306   4.843   3.433  0.6112  0.1877  0.3323
  177MOL    H8421556   1.220   4.874   3.374  1.3174  2.4132  0.4454
  177MOL    H8521557   1.368   4.932   3.443 -1.4019  1.8021 -1.2778
  177MOL    C8621558   1.267   4.794   3.578 -0.9990 -0.1490 -0.2224
  177MOL    F8721559   1.192   4.684   3.578  0.1556  0.8062  0.6782
  177MOL    F8821560   1.386   4.774   3.645 -0.3428 -0.0405  0.0835
  177MOL    C8921561   1.206   4.902   3.670  0.3780  0.5115 -0.4460
  177MOL    H9021562   1.286   4.974   3.689  1.2837 -1.1502  2.2287
  177MOL    H9121563   1.187   4.843   3.759 -0.6456  1.5232  0.0201
  177MOL    C9221564   1.078   4.967   3.611 -0.1131  0.0498  0.4005
  177MOL    F9321565   1.087   5.035   3.491  0.2655 -0.1413 -0.3642
  177MOL    F9421566   0.985   4.882   3.591  0.3316  0.3910  0.4048
  177MOL    C9521567   1.024   5.077   3.709 -0.3836  0.0280 -0.6444
  177MOL    H9621568   1.038   5.042   3.811 -0.0565  5.1717  1.2074
  177MOL    H9721569   0.917   5.097   3.700 -0.3891 -1.0049 -3.2672
  177MOL    C9821570   1.084   5.215   3.700 -0.4952  0.3201  0.4924
  177MOL    F9921571   1.215   5.205   3.722 -0.1187 -0.4013  0.6939
  177MOL   F10021572   1.085   5.260   3.579  0.4653 -0.1175  0.3430
  177MOL   C10121573   1.032   5.310   3.808  0.3849  0.2626 -0.0642
  177MOL   H10221574   1.062   5.264   3.902 -0.7514  0.1736  0.2578
  177MOL   H10321575   0.923   5.312   3.808  0.3481 -0.6477 -2.0325
  177MOL   C10421576   1.072   5.465   3.802 -0.1964  0.2245 -0.5919
  177MOL   F10521577   1.062   5.502   3.926 -0.1041  0.1430  0.7834
  177MOL   F10621578   1.207   5.485   3.777 -0.0544 -0.5967 -0.1358
  177MOL   C10721579   0.987   5.557   3.708  0.3235  0.1445 -0.0014
  177MOL   H10821580   1.008   5.547   3.601  1.7420  1.6214  0.1226
  177MOL   H10921581   1.031   5.656   3.714 -1.3109  0.8730  0.2266
  177MOL   C11021582   0.834   5.579   3.740  0.0781  0.5258  0.2068
  177MOL   F11121583   0.781   5.454   3.743  0.4471 -0.6303  0.4788
  177MOL   F11221584   0.822   5.642   3.864 -0.0003 -0.0779  0.3003
  177MOL   C11321585   0.763   5.666   3.628  0.0906 -0.7696 -0.0084
  177MOL   H11421586   0.785   5.626   3.529  1.8594 -1.4079  0.6308
  177MOL   H11521587   0.798   5.769   3.635 -0.3548 -0.6326  0.2060
  177MOL   C11621588   0.609   5.679   3.639  0.0668 -0.3398 -0.3292
  177MOL   F11721589   0.549   5.559   3.606 -0.2127  0.2553 -0.6027
  177MOL   F11821590   0.586   5.707   3.767  0.1891 -0.0669 -0.0061
  177MOL   C11921591   0.557   5.789   3.555  1.1406 -0.0334  0.5146
  177MOL   H12021592   0.571   5.757   3.452  0.8067 -0.5938  0.6484
  177MOL   H12121593   0.594   5.891   3.573  0.4265  0.1786  0.7634
  177MOL   H12221594   0.449   5.789   3.560  1.1469 -1.8965  0.7100
  178MOL     C121595   2.554   5.784   8.006 -0.0324 -0.2744 -0.5803
  178MOL     F221596   2.446   5.807   8.082 -0.6224 -0.2870 -0.3596
  178MOL     F321597   2.633   5.889   8.025 -0.2097  0.2660 -0.1258
  178MOL     C421598   2.518   5.753   7.861  0.4941  0.3071  0.3950
  178MOL     H521599   2.608   5.763   7.800  0.0951  0.4173 -0.1851
  178MOL     H621600   2.443   5.822   7.822  1.5913  2.0537  1.3165
  178MOL     H721601   2.594   5.697   8.058 -0.5334 -1.5128 -2.2036
  178MOL     C821602   2.454   5.618   7.844  0.1733 -0.5593  0.1893
  178MOL     F921603   2.540   5.521   7.876  0.2269  0.0668  0.0356
  178MOL    F1021604   2.343   5.617   7.919  0.1668 -0.6026 -0.3333
  178MOL    C1121605   2.425   5.588   7.698 -0.3806 -0.8445  0.7439
  178MOL    H1221606   2.517   5.598   7.639  0.3870 -3.0122  1.5267
  178MOL    H1321607   2.366   5.670   7.656 -0.1284 -0.1418  1.7570
  178MOL    C1421608   2.347   5.453   7.685 -0.2201  0.3726 -0.5185
  178MOL    F1521609   2.422   5.355   7.730  0.5466 -0.3788  0.4725
  178MOL    F1621610   2.231   5.450   7.765  0.0131 -0.0180 -0.5679
  178MOL    C1721611   2.304   5.424   7.535 -0.1140 -0.2132  0.3354
  178MOL    H1821612   2.393   5.423   7.472 -0.7690 -1.0195 -0.5837
  178MOL    H1921613   2.240   5.506   7.502  0.2728 -0.1153 -0.1759
  178MOL    C2021614   2.227   5.293   7.509  0.8030  0.3605  0.1826
  178MOL    F2121615   2.121   5.294   7.595  0.0157  0.1844  0.1083
  178MOL    F2221616   2.174   5.299   7.379 -0.2953  0.2640  0.2083
  178MOL    C2321617   2.306   5.158   7.539 -0.0886  0.1801  0.5151
  178MOL    H2421618   2.256   5.067   7.507  3.1668 -1.8246  0.9919
  178MOL    H2521619   2.332   5.143   7.643 -1.0989  2.2364  1.1073
  178MOL    C2621620   2.443   5.147   7.464  0.1010 -0.1685  0.3055
  178MOL    F2721621   2.435   5.222   7.350 -0.6756 -0.3507  0.0611
  178MOL    F2821622   2.537   5.213   7.528  0.1514 -0.1394 -0.3876
  178MOL    C2921623   2.489   5.009   7.425 -0.2495 -0.1756 -0.7966
  178MOL    H3021624   2.425   4.951   7.358 -0.2031  1.7236 -2.5645
  178MOL    H3121625   2.488   4.951   7.517  1.8872  2.1755  0.7666
  178MOL    C3221626   2.638   4.994   7.375  0.2777  0.3042 -0.3575
  178MOL    F3321627   2.730   5.059   7.457 -0.4265  0.2206  0.0718
  178MOL    F3421628   2.666   4.857   7.374  0.2535  0.1355 -0.2870
  178MOL    C3521629   2.651   5.040   7.233  0.2357  0.4529 -0.4123
  178MOL    H3621630   2.642   5.148   7.228  0.7612  0.4809 -0.7202
  178MOL    H3721631   2.573   4.996   7.170 -0.1526 -2.0760  1.7091
  178MOL    C3821632   2.788   5.006   7.156  0.0591  0.0641  0.6498
  178MOL    F3921633   2.758   5.065   7.036 -0.1676  0.2374 -0.5836
  178MOL    F4021634   2.883   5.069   7.218 -0.0829  0.0656 -0.0270
  178MOL    C4121635   2.817   4.856   7.134 -0.3280  0.1429  0.2969
  178MOL    H4221636   2.733   4.804   7.087  1.2930 -0.5910 -1.8648
  178MOL    H4321637   2.834   4.809   7.231 -1.6250 -1.1755 -0.0980
  178MOL    C4421638   2.933   4.820   7.048 -0.0563 -1.0223 -0.3699
  178MOL    F4521639   3.027   4.900   7.091  0.0106 -0.5512 -0.2778
  178MOL    F4621640   2.957   4.689   7.073  0.3534 -0.1746 -0.1858
  178MOL    C4721641   2.911   4.836   6.900 -0.6921  0.7675 -0.0804
  178MOL    H4821642   2.877   4.938   6.882  1.2231  1.3553 -0.3769
  178MOL    H4921643   2.820   4.783   6.871 -0.6003  0.0907  0.8595
  178MOL    C5021644   3.031   4.792   6.815 -0.2899 -0.3617  0.3920
  178MOL    F5121645   3.120   4.891   6.821 -0.0231 -0.0798 -0.7914
  178MOL    F5221646   3.099   4.685   6.863  0.4262 -0.1938  0.0539
  178MOL    C5321647   3.009   4.771   6.662  0.3930  0.3219  0.6193
  178MOL    H5421648   3.104   4.800   6.616  0.6947  0.2141  1.1691
  178MOL    H5521649   2.930   4.840   6.634  0.2823  0.1101  0.4077
  178MOL    C5621650   2.966   4.627   6.620  0.0405 -0.0072 -0.3541
  178MOL    F5721651   2.880   4.590   6.711 -0.3517  0.0929 -0.2106
  178MOL    F5821652   2.894   4.628   6.504 -0.9442  0.4232  0.3702
  178MOL    C5921653   3.095   4.541   6.607  0.9065  0.7276  0.5102
  178MOL    H6021654   3.172   4.577   6.675  1.3198  0.7162  0.0515
  178MOL    H6121655   3.143   4.548   6.509  0.0356 -0.2664 -0.0036
  178MOL    C6221656   3.086   4.389   6.628  0.4953  0.4484 -0.0509
  178MOL    F6321657   3.047   4.375   6.755 -0.7873  0.3051 -0.2527
  178MOL    F6421658   2.987   4.344   6.543  0.7001 -0.4612  0.0456
  178MOL    C6521659   3.222   4.315   6.609  0.2364 -0.0404  0.0603
  178MOL    H6621660   3.290   4.349   6.687 -0.7969 -0.2819  1.0904
  178MOL    H6721661   3.253   4.347   6.510  1.9736 -0.5529  0.4241
  178MOL    C6821662   3.222   4.163   6.602  0.1663  0.1993  0.3525
  178MOL    F6921663   3.144   4.126   6.496 -0.1507 -0.4913  0.0684
  178MOL    F7021664   3.346   4.134   6.567  0.1452 -0.1371 -0.2051
  178MOL    C7121665   3.176   4.099   6.735  0.4257  0.4457 -0.5823
  178MOL    H7221666   3.068   4.096   6.747  0.4463 -1.1480 -0.7121
  178MOL    H7321667   3.223   4.159   6.812 -1.5339 -1.6172  2.3079
  178MOL    C7421668   3.219   3.954   6.766 -0.9971  0.0355  0.4296
  178MOL    F7521669   3.350   3.949   6.755  0.6176  0.6025  0.1164
  178MOL    F7621670   3.175   3.923   6.892  0.2414 -0.1285  0.7522
  178MOL    C7721671   3.159   3.856   6.661  0.4415 -0.2960 -0.5617
  178MOL    H7821672   3.200   3.756   6.673  2.5370  0.8743  2.3784
  178MOL    H7921673   3.203   3.899   6.570  0.7452  2.5977  0.8936
  178MOL    C8021674   3.003   3.851   6.638  0.2406 -0.5766  0.2157
  178MOL    F8121675   2.935   3.828   6.748  0.0411 -0.5696  0.1923
  178MOL    F8221676   2.957   3.954   6.566  0.2505 -0.3881  0.0361
  178MOL    C8321677   2.978   3.729   6.547  0.0780 -0.1461  0.6413
  178MOL    H8421678   3.026   3.635   6.575  1.9778  0.2254 -1.2830
  178MOL    H8521679   3.039   3.760   6.463  0.0311 -0.4206  0.5054
  178MOL    C8621680   2.835   3.697   6.499  0.7776 -0.3589 -0.2052
  178MOL    F8721681   2.777   3.798   6.437  0.4675 -0.3654  0.5828
  178MOL    F8821682   2.852   3.599   6.416 -0.6520  0.0656 -0.4762
  178MOL    C8921683   2.745   3.652   6.624  0.1885  0.2030 -0.4554
  178MOL    H9021684   2.734   3.725   6.704 -1.6402 -3.0222  2.4062
  178MOL    H9121685   2.802   3.586   6.690 -1.3722  2.5975  3.4656
  178MOL    C9221686   2.608   3.596   6.587 -0.4370  0.2242  0.1596
  178MOL    F9321687   2.548   3.689   6.513 -0.2323 -0.4647 -0.1681
  178MOL    F9421688   2.633   3.488   6.504  0.4750 -0.5880 -0.4173
  178MOL    C9521689   2.509   3.555   6.692 -0.2187 -0.0506 -0.2557
  178MOL    H9621690   2.551   3.465   6.737  1.1414  0.4965 -0.4286
  178MOL    H9721691   2.420   3.514   6.643 -0.1086 -0.2306 -0.3030
  178MOL    C9821692   2.465   3.654   6.803  0.1898  0.2760  0.0062
  178MOL    F9921693   2.570   3.717   6.855  0.3176  0.2877 -0.5276
  178MOL   F10021694   2.384   3.741   6.749  0.6937  0.2857  0.6384
  178MOL   C10121695   2.394   3.590   6.924 -1.2410  0.5376 -0.1117
  178MOL   H10221696   2.388   3.667   7.001 -2.8158  0.0638  0.2579
  178MOL   H10321697   2.462   3.525   6.979  0.5610  4.1659  2.1357
  178MOL   C10421698   2.259   3.518   6.898  0.3150  1.3370 -0.4951
  178MOL   F10521699   2.171   3.590   6.833 -0.5000 -0.2903 -0.2915
  178MOL   F10621700   2.278   3.411   6.824 -0.2642  0.2283  0.1399
  178MOL   C10721701   2.198   3.491   7.039 -0.1196  0.8182  0.1582
  178MOL   H10821702   2.106   3.436   7.022  0.4515  0.0327 -0.4329
  178MOL   H10921703   2.161   3.586   7.077  0.1488  2.0428 -2.4791
  178MOL   C11021704   2.277   3.405   7.138 -0.0307 -0.4489  0.3951
  178MOL   F11121705   2.327   3.298   7.076 -0.1129 -0.3344 -0.2112
  178MOL   F11221706   2.385   3.463   7.190  0.0308 -0.8492  0.6377
  178MOL   C11321707   2.185   3.357   7.249  0.1930 -0.1921  0.6187
  178MOL   H11421708   2.113   3.286   7.207  0.9568 -0.1429 -0.7855
  178MOL   H11521709   2.122   3.440   7.280  1.1260  0.6570  0.2717
  178MOL   C11621710   2.246   3.278   7.375 -0.0040 -0.5737  0.3767
  178MOL   F11721711   2.344   3.353   7.431  0.5875  0.1539  0.2292
  178MOL   F11821712   2.145   3.275   7.467 -0.1446 -0.1984 -0.2511
  178MOL   C11921713   2.298   3.145   7.335 -0.3913 -0.0673 -0.2618
  178MOL   H12021714   2.373   3.152   7.256 -0.2652  1.8890  0.0134
  178MOL   H12121715   2.221   3.075   7.305  0.0049  0.1034 -1.7170
  178MOL   H12221716   2.352   3.088   7.411  1.3213 -1.4664 -2.4457
  179MOL     C121717   2.857   1.538   2.593  0.2349 -0.5416  0.0130
  179MOL     F221718   2.841   1.479   2.713  0.0588 -0.3198 -0.4898
  179MOL     F321719   2.978   1.591   2.590  0.9102 -0.3823  0.1116
  179MOL     C421720   2.743   1.641   2.569  0.9825 -0.6976  0.1654
  179MOL     H521721   2.754   1.713   2.651  0.0415 -0.5263  0.1520
  179MOL     H621722   2.645   1.593   2.577  0.1424  0.8042 -0.8193
  179MOL     H721723   2.857   1.456   2.522  1.9971 -1.1647  0.6958
  179MOL     C821724   2.745   1.707   2.431  0.1045 -0.2084  0.3312
  179MOL     F921725   2.869   1.741   2.412  0.4791 -0.2941  0.0978
  179MOL    F1021726   2.714   1.611   2.343  0.1303  0.2161 -0.3539
  179MOL    C1121727   2.652   1.824   2.429  0.5127 -0.2608  0.2338
  179MOL    H1221728   2.656   1.851   2.323  0.1907  1.0082  0.5301
  179MOL    H1321729   2.697   1.905   2.487 -1.1617  1.3316 -0.6010
  179MOL    C1421730   2.499   1.814   2.457 -0.2993  0.0282  0.3690
  179MOL    F1521731   2.489   1.767   2.583  0.3170  0.6415 -0.2595
  179MOL    F1621732   2.465   1.939   2.462 -0.4632 -0.1214  0.0845
  179MOL    C1721733   2.424   1.728   2.356  0.3186 -0.3465  0.7230
  179MOL    H1821734   2.448   1.624   2.379  0.0953 -0.5745 -0.0485
  179MOL    H1921735   2.465   1.739   2.255 -0.7966 -0.3380  0.2688
  179MOL    C2021736   2.272   1.748   2.347  0.3264  0.0280  0.1853
  179MOL    F2121737   2.238   1.877   2.316  0.5539 -0.1538 -0.0597
  179MOL    F2221738   2.226   1.680   2.250  0.0369  0.6006 -0.4911
  179MOL    C2321739   2.204   1.698   2.475  0.8748  0.1077 -0.1304
  179MOL    H2421740   2.249   1.760   2.553  1.0310  1.5500 -1.3438
  179MOL    H2521741   2.233   1.594   2.492  0.4390  0.1487  0.8793
  179MOL    C2621742   2.052   1.731   2.493 -0.8207 -0.4236 -0.1566
  179MOL    F2721743   2.029   1.857   2.474  0.4646 -0.0360  0.5140
  179MOL    F2821744   1.967   1.674   2.408  0.5440 -0.0138  0.5081
  179MOL    C2921745   2.006   1.702   2.642 -0.6124  0.1555  0.0895
  179MOL    H3021746   2.072   1.752   2.712  0.4277  0.3742 -1.0348
  179MOL    H3121747   2.019   1.595   2.655  0.3684  0.2616 -0.0226
  179MOL    C3221748   1.855   1.736   2.676 -0.1720  0.6737 -0.5225
  179MOL    F3321749   1.773   1.679   2.587 -0.3947  0.1520  0.3868
  179MOL    F3421750   1.844   1.686   2.797  0.1712  0.0740 -0.6043
  179MOL    C3521751   1.831   1.887   2.688 -0.8382  0.0220 -1.0759
  179MOL    H3621752   1.866   1.936   2.597 -0.4373 -0.0621 -0.9694
  179MOL    H3721753   1.899   1.922   2.765 -2.4762  1.0053 -0.0693
  179MOL    C3821754   1.692   1.932   2.730  0.4779 -0.7835  0.2694
  179MOL    F3921755   1.695   2.061   2.729 -0.1100 -0.1846  0.0623
  179MOL    F4021756   1.607   1.879   2.639 -0.0651  0.1049  0.2444
  179MOL    C4121757   1.646   1.882   2.867  0.0168 -0.7071  0.4486
  179MOL    H4221758   1.729   1.887   2.938 -0.4061  1.0132  0.8393
  179MOL    H4321759   1.638   1.773   2.865  0.2631 -0.7175  0.0818
  179MOL    C4421760   1.507   1.942   2.925  0.0724 -0.2922 -0.6573
  179MOL    F4521761   1.424   1.924   2.825  0.1887  0.5388  0.6533
  179MOL    F4621762   1.473   1.864   3.023  0.8212 -0.2367  0.4210
  179MOL    C4721763   1.520   2.090   2.965 -0.4304  0.0573  0.9278
  179MOL    H4821764   1.548   2.154   2.881  0.2975  0.0347  1.1435
  179MOL    H4921765   1.606   2.096   3.033 -0.0828  1.6071  0.3625
  179MOL    C5021766   1.391   2.149   3.039  0.1586 -0.3914  0.0129
  179MOL    F5121767   1.285   2.094   2.974 -0.5232 -0.6019  0.4816
  179MOL    F5221768   1.391   2.089   3.160 -0.5899  0.3441  0.1840
  179MOL    C5321769   1.377   2.301   3.045 -0.3372  0.2645 -0.8184
  179MOL    H5421770   1.273   2.322   3.071 -0.1950 -0.8185  0.6932
  179MOL    H5521771   1.390   2.345   2.946  1.6438 -0.7348 -1.0261
  179MOL    C5621772   1.467   2.379   3.147  0.2393  0.6483  0.4320
  179MOL    F5721773   1.432   2.358   3.273  0.1578  0.1178 -0.4725
  179MOL    F5821774   1.597   2.348   3.138 -0.6536 -0.1734 -0.1614
  179MOL    C5921775   1.459   2.534   3.125  0.4687 -0.2421  0.5692
  179MOL    H6021776   1.508   2.557   3.030 -2.2095  1.4231 -0.4945
  179MOL    H6121777   1.516   2.587   3.201  1.7861 -0.5284 -0.2015
  179MOL    C6221778   1.315   2.584   3.135 -0.4842 -0.7273  0.1022
  179MOL    F6321779   1.249   2.551   3.027  0.0655 -0.2675 -0.4072
  179MOL    F6421780   1.257   2.532   3.238  0.4325  0.6091  0.0840
  179MOL    C6521781   1.297   2.738   3.154  0.5388  0.6954  0.3307
  179MOL    H6621782   1.343   2.760   3.250  0.6088  0.8169  0.2690
  179MOL    H6721783   1.192   2.766   3.164 -0.0526  0.2856 -3.6368
  179MOL    C6821784   1.358   2.817   3.036 -0.2600  0.0795  0.2950
  179MOL    F6921785   1.491   2.797   3.043 -0.6624 -0.3540  0.3283
  179MOL    F7021786   1.295   2.762   2.931  0.1289  0.5245  0.3399
  179MOL    C7121787   1.329   2.969   3.041  0.4890  0.5232  0.3674
  179MOL    H7221788   1.220   2.969   3.046  0.4288 -1.5829 -0.4187
  179MOL    H7321789   1.362   3.022   2.952  2.2425 -0.4448  0.4152
  179MOL    C7421790   1.379   3.046   3.164 -0.2662 -0.5057  0.0091
  179MOL    F7521791   1.334   3.005   3.281  0.3969 -0.1867  0.4415
  179MOL    F7621792   1.509   3.020   3.157 -0.0561  0.4874  0.4166
  179MOL    C7721793   1.349   3.198   3.144  0.2033 -0.2056 -0.4856
  179MOL    H7821794   1.391   3.224   3.047  0.0935  2.7505  0.2232
  179MOL    H7921795   1.412   3.248   3.217 -0.4172 -0.0742 -0.0404
  179MOL    C8021796   1.198   3.235   3.150  0.0868 -0.0681  0.5932
  179MOL    F8121797   1.149   3.220   3.030  0.8542 -0.3998  0.3109
  179MOL    F8221798   1.129   3.155   3.232  0.0123  0.1365  0.1116
  179MOL    C8321799   1.162   3.379   3.195 -0.1218 -0.3776  0.3194
  179MOL    H8421800   1.196   3.383   3.299 -2.7220 -1.6826  1.2563
  179MOL    H8521801   1.058   3.392   3.224  0.4834 -0.3105  2.5123
  179MOL    C8621802   1.223   3.493   3.110  0.3930 -0.0287 -0.2970
  179MOL    F8721803   1.195   3.606   3.176 -0.3014  0.4613  0.0367
  179MOL    F8821804   1.357   3.476   3.103 -0.3532 -0.0705 -0.2944
  179MOL    C8921805   1.176   3.509   2.964  0.5316  0.4411  0.4962
  179MOL    H9021806   1.199   3.422   2.902 -0.8183 -0.0232  0.6408
  179MOL    H9121807   1.237   3.583   2.913  2.3143 -0.0608  1.8554
  179MOL    C9221808   1.027   3.547   2.950 -0.2179 -0.1086  0.0808
  179MOL    F9321809   0.951   3.468   3.027 -0.0580 -0.1277  0.1329
  179MOL    F9421810   1.005   3.669   2.993  0.1518 -0.3368 -0.1016
  179MOL    C9521811   0.980   3.539   2.803  0.2124  0.4861  0.3999
  179MOL    H9621812   0.969   3.433   2.779  1.6176  0.8462 -2.0480
  179MOL    H9721813   1.062   3.570   2.739 -1.4906  0.6862 -1.7354
  179MOL    C9821814   0.851   3.617   2.760  0.2167  0.1170 -0.0635
  179MOL    F9921815   0.887   3.744   2.761  0.0843  0.5467 -0.2732
  179MOL   F10021816   0.820   3.584   2.638 -0.7320 -0.0561  0.1594
  179MOL   C10121817   0.724   3.590   2.843 -0.1637  0.0137  0.0641
  179MOL   H10221818   0.746   3.587   2.950 -0.0205 -4.0083  0.0167
  179MOL   H10321819   0.692   3.488   2.821 -2.1410  0.6992 -0.3126
  179MOL   C10421820   0.597   3.687   2.818  0.4872 -0.4254  0.0824
  179MOL   F10521821   0.639   3.815   2.797  0.3268 -0.4756  0.3904
  179MOL   F10621822   0.538   3.641   2.708  0.1245 -0.0089 -0.3304
  179MOL   C10721823   0.495   3.671   2.934 -0.2512  0.5890 -0.7919
  179MOL   H10821824   0.531   3.727   3.021  0.6448 -1.1099 -0.0396
  179MOL   H10921825   0.493   3.566   2.962  0.2372  0.8377  0.2215
  179MOL   C11021826   0.351   3.709   2.903 -0.2934 -0.5616  1.1234
  179MOL   F11121827   0.295   3.748   3.011 -0.2609  0.0732 -0.6686
  179MOL   F11221828   0.349   3.817   2.832  0.2181 -0.4287 -0.3854
  179MOL   C11321829   0.273   3.596   2.828 -0.1189 -0.0328 -0.0495
  179MOL   H11421830   0.315   3.573   2.730  1.5970  0.7337  0.4890
  179MOL   H11521831   0.176   3.638   2.802 -0.6610 -0.5535  1.0725
  179MOL   C11621832   0.254   3.459   2.906 -0.2207 -0.5652 -0.5904
  179MOL   F11721833   0.375   3.403   2.911  0.4890  0.2025  0.6287
  179MOL   F11821834   0.214   3.476   3.032  0.3067 -0.1132 -0.2240
  179MOL   C11921835   0.170   3.353   2.833 -0.6246  0.3240 -0.0534
  179MOL   H12021836   0.222   3.317   2.744  1.0980  1.6285  0.3906
  179MOL   H12121837   0.083   3.405   2.792 -0.4065  1.3783  0.7894
  179MOL   H12221838   0.136   3.273   2.898 -0.7184  0.1008 -0.3740
  180MOL     C121839   0.002   7.989   0.147 -0.0499 -0.4657  0.0748
  180MOL     F221840   8.265   8.023   0.048  0.1375  0.4582 -0.2814
  180MOL     F321841   0.125   7.985   0.103 -0.3291 -0.0443  0.3109
  180MOL     C421842   8.321   7.848   0.198 -0.3566  0.2915  0.0502
  180MOL     H521843   0.051   7.812   0.262 -1.2614  1.4482  1.8559
  180MOL     H621844   8.335   7.780   0.114  1.4675  1.9532 -1.0482
  180MOL     H721845   8.349   8.064   0.227 -1.4698  1.1854 -1.4605
  180MOL     C821846   8.190   7.842   0.289 -0.0978  0.5854  0.5215
  180MOL     F921847   8.201   7.924   0.393  0.4379  0.1821  0.2908
  180MOL    F1021848   8.081   7.878   0.217  0.0268 -0.2269 -0.0269
  180MOL    C1121849   8.162   7.694   0.334  0.4473  0.2178 -0.0986
  180MOL    H1221850   8.254   7.657   0.380  0.1181  0.3099  0.6303
  180MOL    H1321851   8.129   7.632   0.251  0.9154 -0.0747 -0.0678
  180MOL    C1421852   8.055   7.680   0.442  0.4006 -0.1440  0.2001
  180MOL    F1521853   8.036   7.553   0.480 -0.3791 -0.6137  0.1905
  180MOL    F1621854   8.090   7.752   0.552 -0.0997  0.8718  0.0454
  180MOL    C1721855   7.917   7.727   0.393 -0.6483  0.0553 -0.4246
  180MOL    H1821856   7.902   7.699   0.289 -0.4129  0.4299 -0.5630
  180MOL    H1921857   7.924   7.836   0.388  0.0247 -0.0110 -1.0993
  180MOL    C2021858   7.793   7.703   0.473  0.4133 -0.2212  0.4264
  180MOL    F2121859   7.695   7.753   0.398 -1.5152 -0.0460 -0.5523
  180MOL    F2221860   7.772   7.572   0.479  0.2878 -0.5033  0.0813
  180MOL    C2321861   7.793   7.749   0.625 -0.3204  0.1006 -0.0907
  180MOL    H2421862   7.822   7.853   0.612 -1.3410  0.1201 -2.6361
  180MOL    H2521863   7.874   7.704   0.682 -0.6193 -0.5490 -0.1679
  180MOL    C2621864   7.655   7.743   0.700  0.4761 -0.2147  0.7437
  180MOL    F2721865   7.609   7.620   0.689  0.5814  0.0677 -0.4438
  180MOL    F2821866   7.678   7.769   0.828  0.9712 -0.2895  0.2092
  180MOL    C2921867   7.541   7.830   0.649 -0.1877  0.4218 -0.8595
  180MOL    H3021868   7.456   7.810   0.713  1.5771 -3.2052  0.4324
  180MOL    H3121869   7.508   7.781   0.557 -0.3584 -0.8460 -0.1205
  180MOL    C3221870   7.552   7.977   0.636 -0.7417 -0.6260  0.2349
  180MOL    F3321871   7.585   8.019   0.756  0.1316  0.2099 -0.3553
  180MOL    F3421872   7.650   7.998   0.551  0.4435  0.1301 -0.0644
  180MOL    C3521873   7.422   8.053   0.589 -0.1821  0.5540  0.1752
  180MOL    H3621874   7.333   8.016   0.641 -0.2516  0.5368  0.0465
  180MOL    H3721875   7.398   8.024   0.486  0.6295 -0.2454  0.2050
  180MOL    C3821876   7.435   8.206   0.591 -0.1450 -0.0430 -0.6051
  180MOL    F3921877   7.318   8.255   0.540  0.1739  0.4746  0.1218
  180MOL    F4021878   7.435   8.238   0.717  0.1455  0.4283  0.0848
  180MOL    C4121879   7.563   8.273   0.524  0.5319  0.7051 -0.6349
  180MOL    H4221880   7.571   8.241   0.420 -1.4503  0.5202 -0.7479
  180MOL    H4321881   7.651   8.233   0.574 -0.7053  3.5430  4.1495
  180MOL    C4421882   7.582   0.078   0.536  0.8451 -0.0040  0.5289
  180MOL    F4521883   7.681   0.119   0.461  0.3577  0.1659  0.0379
  180MOL    F4621884   7.472   0.134   0.481  0.4683  0.0564 -0.4187
  180MOL    C4721885   7.603   0.123   0.682  0.5265 -0.9105  0.1511
  180MOL    H4821886   7.515   0.111   0.746  2.5876  0.1234  3.2892
  180MOL    H4921887   7.609   0.231   0.667  3.0985 -1.3366 -2.2263
  180MOL    C5021888   7.736   0.072   0.747  0.3260 -0.3284  0.2842
  180MOL    F5121889   7.735   8.291   0.768  0.6195  0.0069 -0.0159
  180MOL    F5221890   7.842   0.101   0.669  0.3410 -0.1380  0.2283
  180MOL    C5321891   7.764   0.138   0.886  0.2710 -0.3903 -0.2384
  180MOL    H5421892   7.790   0.241   0.861 -2.0754  0.5210  0.9397
  180MOL    H5521893   7.858   0.097   0.923  0.1122 -0.3576  0.2037
  180MOL    C5621894   7.666   0.114   1.001  0.2708 -0.0968  0.0665
  180MOL    F5721895   7.707   0.203   1.090  0.6592  0.4928  0.0758
  180MOL    F5821896   7.544   0.149   0.966  0.1541 -0.0299  0.3233
  180MOL    C5921897   7.674   8.333   1.075 -0.5170 -0.3518 -0.0848
  180MOL    H6021898   7.766   8.326   1.132 -0.7903 -0.0707  0.3884
  180MOL    H6121899   7.679   8.251   1.003  1.4386  0.3099 -0.7331
  180MOL    C6221900   7.564   8.305   1.181 -0.1102  0.0319  0.6177
  180MOL    F6321901   7.618   8.201   1.244 -0.1409  0.0898  0.4324
  180MOL    F6421902   7.547   0.056   1.272  0.6243 -0.8414 -0.0911
  180MOL    C6521903   7.429   8.257   1.113 -0.2092 -1.1380  0.4279
  180MOL    H6621904   7.450   8.181   1.039 -1.1780 -0.5529 -0.4681
  180MOL    H6721905   7.380   8.339   1.062  0.0666 -0.8506  0.6218
  180MOL    C6821906   7.331   8.192   1.213 -0.0231 -0.0416  0.4382
  180MOL    F6921907   7.223   8.176   1.140  0.2669 -0.0338 -0.2610
  180MOL    F7021908   7.389   8.073   1.233  0.3294 -0.0517 -0.3875
  180MOL    C7121909   7.303   8.272   1.337  0.0970 -0.5924 -0.7776
  180MOL    H7221910   7.304   0.031   1.334 -3.6083 -0.3786  2.2192
  180MOL    H7321911   7.378   8.248   1.413 -0.8104  1.2395  0.7447
  180MOL    C7421912   7.168   8.225   1.395 -0.2332  0.2722  0.5497
  180MOL    F7521913   7.072   8.256   1.312  0.4800  0.1279 -0.0592
  180MOL    F7621914   7.170   8.092   1.425 -0.0718  0.1892 -0.0579
  180MOL    C7721915   7.129   8.299   1.524  0.0056  0.1190  0.8041
  180MOL    H7821916   7.145   0.053   1.497 -0.8479 -0.0571 -0.4162
  180MOL    H7921917   7.202   8.270   1.600  1.0229  2.0613  0.5952
  180MOL    C8021918   6.987   8.283   1.582  0.1444  0.5921  0.0540
  180MOL    F8121919   6.974   0.007   1.686  0.2020 -0.0322 -0.6157
  180MOL    F8221920   6.892   8.322   1.502  0.1278 -1.0972  0.4059
  180MOL    C8321921   6.946   8.136   1.624 -0.1828  0.3051 -0.2157
  180MOL    H8421922   6.954   8.070   1.537 -0.7725 -1.1565  0.8194
  180MOL    H8521923   6.841   8.140   1.653 -0.6337  3.0748 -2.0265
  180MOL    C8621924   7.022   8.067   1.741 -0.0554  0.6659  0.6011
  180MOL    F8721925   7.155   8.069   1.711  0.3059  0.3087 -0.6251
  180MOL    F8821926   6.999   8.120   1.856  0.4530 -0.1040 -0.2516
  180MOL    C8921927   6.985   7.908   1.758  0.5322 -0.3204  0.1627
  180MOL    H9021928   7.052   7.868   1.835  0.6737  0.6538  0.5674
  180MOL    H9121929   7.001   7.849   1.668  1.4650 -1.2624  0.9373
  180MOL    C9221930   6.837   7.880   1.794  0.1137  0.4988  0.3424
  180MOL    F9321931   6.807   7.949   1.908 -0.0165  0.0436  0.6850
  180MOL    F9421932   6.760   7.915   1.695 -0.0643 -0.0118  0.0266
  180MOL    C9521933   6.812   7.735   1.842  0.0022  0.7541 -0.1696
  180MOL    H9621934   6.704   7.731   1.858  0.1253  0.2502  0.5926
  180MOL    H9721935   6.855   7.714   1.940 -1.1708 -0.8727  0.0194
  180MOL    C9821936   6.841   7.624   1.738 -0.2410 -0.1973 -0.0082
  180MOL    F9921937   6.966   7.630   1.705 -0.5388 -0.1454  0.1214
  180MOL   F10021938   6.836   7.509   1.810 -0.2202 -0.8439  0.1554
  180MOL   C10121939   6.756   7.621   1.607 -0.2840  0.9260  0.0903
  180MOL   H10221940   6.791   7.697   1.537 -2.1623  0.1733 -1.7412
  180MOL   H10321941   6.649   7.633   1.623 -0.5388 -1.4374  0.2780
  180MOL   C10421942   6.754   7.483   1.532 -0.2940 -0.1779 -0.7755
  180MOL   F10521943   6.719   7.380   1.618  0.3934 -0.1378  0.1407
  180MOL   F10621944   6.659   7.483   1.437 -0.3608 -0.0563  0.3655
  180MOL   C10721945   6.892   7.443   1.474 -0.0503  0.1280 -0.4915
  180MOL   H10821946   6.954   7.409   1.557 -0.3226  2.0152  0.5100
  180MOL   H10921947   6.941   7.533   1.440 -1.7485  0.9404 -0.8713
  180MOL   C11021948   6.890   7.346   1.357 -0.4580  0.0541  0.2280
  180MOL   F11121949   6.834   7.232   1.383  0.7077  0.0966  0.1447
  180MOL   F11221950   6.830   7.414   1.258 -0.3088  0.1892 -0.3297
  180MOL   C11321951   7.035   7.300   1.326  0.0816  0.0688 -0.2942
  180MOL   H11421952   7.086   7.259   1.413 -2.3958 -1.8342  0.3109
  180MOL   H11521953   7.098   7.387   1.309  0.0359  0.4136  1.3023
  180MOL   C11621954   7.047   7.212   1.210  0.3934  0.6518  0.1223
  180MOL   F11721955   7.178   7.201   1.181 -0.3676 -0.0950 -0.2310
  180MOL   F11821956   7.001   7.087   1.240  0.1734 -0.0059  0.4076
  180MOL   C11921957   6.965   7.273   1.087 -0.0916  0.2109  0.5727
  180MOL   H12021958   6.861   7.243   1.091 -0.6431  1.9479 -0.2270
  180MOL   H12121959   6.994   7.232   0.990  0.2173  1.0453  0.3050
  180MOL   H12221960   6.987   7.378   1.068  0.6032 -0.3479 -1.9492
  181MOL     C121961   4.735   6.318   7.739 -0.2613  0.3725 -0.0397
  181MOL     F221962   4.717   6.434   7.672  0.2835  0.5200 -0.1454
  181MOL     F321963   4.614   6.263   7.753 -0.5173 -0.2667  0.2964
  181MOL     C421964   4.807   6.334   7.875 -0.0724  0.1897 -0.2698
  181MOL     H521965   4.728   6.376   7.937 -1.4337 -0.3683 -1.6230
  181MOL     H621966   4.892   6.403   7.869 -1.5802  2.0925 -0.1157
  181MOL     H721967   4.789   6.259   7.665 -1.4991  0.2733 -0.8787
  181MOL     C821968   4.857   6.192   7.929  0.2278  0.7348  0.0228
  181MOL     F921969   4.745   6.116   7.954 -0.1379 -0.1687  0.0725
  181MOL    F1021970   4.945   6.134   7.850 -0.5123  0.2784 -0.4681
  181MOL    C1121971   4.932   6.203   8.064 -0.6340  0.5670 -0.1340
  181MOL    H1221972   4.944   6.103   8.105 -0.0131  0.6874 -0.0136
  181MOL    H1321973   4.862   6.242   8.138 -0.0608 -1.9240  1.7803
  181MOL    C1421974   5.057   6.287   8.067 -0.2964 -0.4566 -0.7674
  181MOL    F1521975   5.136   6.267   7.961 -0.2569 -0.2257  0.4071
  181MOL    F1621976   5.020   6.417   8.057 -0.2776  0.1673 -1.0358
  181MOL    C1721977   5.143   6.262   8.193 -0.1892 -0.0013 -0.5061
  181MOL    H1821978   5.240   6.309   8.180 -0.0153 -0.9097 -2.7103
  181MOL    H1921979   5.159   6.154   8.197 -2.0579 -0.5012 -4.3164
  181MOL    C2021980   5.088   6.308   8.334 -0.2949  0.0440  0.1416
  181MOL    F2121981   5.071   6.446   8.316 -0.3995 -0.1271  0.2701
  181MOL    F2221982   4.970   6.256   8.344  0.4968 -0.2204 -0.2394
  181MOL    C2321983   5.180   6.288   0.107 -0.3137 -0.5737  0.1971
  181MOL    H2421984   5.284   6.315   0.091 -0.5468  0.8448  0.9815
  181MOL    H2521985   5.178   6.179   0.119  2.1151 -0.5013  1.5507
  181MOL    C2621986   5.138   6.348   0.242  0.1821 -0.2734 -0.5819
  181MOL    F2721987   5.026   6.288   0.280 -0.3880  0.1691  0.2951
  181MOL    F2821988   5.240   6.313   0.329  0.0756 -0.0545 -0.7256
  181MOL    C2921989   5.120   6.505   0.237  0.2586 -0.6958 -0.5194
  181MOL    H3021990   5.082   6.538   0.334 -2.0508  2.1852 -2.2940
  181MOL    H3121991   5.037   6.531   0.170  0.4140  2.7729  0.5287
  181MOL    C3221992   5.246   6.591   0.198  0.1978  0.5450 -0.5685
  181MOL    F3321993   5.280   6.552   0.075  0.4280 -0.1719 -0.1724
  181MOL    F3421994   5.201   6.710   0.193  0.2255 -0.2394 -0.3582
  181MOL    C3521995   5.372   6.574   0.285 -0.3336 -0.2642 -0.2658
  181MOL    H3621996   5.405   6.471   0.294 -0.3392 -0.2731 -0.3501
  181MOL    H3721997   5.350   6.610   0.386  2.3154 -1.3253  0.7410
  181MOL    C3821998   5.497   6.659   0.242  0.1075  0.0973  0.3278
  181MOL    F3921999   5.461   6.788   0.224  0.2588 -0.3141  0.2882
  181MOL    F4022000   5.576   6.652   0.341 -0.2369 -0.5087  0.6779
  181MOL    C4122001   5.568   6.606   0.124  0.1770 -0.4145  0.1451
  181MOL    H4222002   5.660   6.665   0.122 -0.9313  1.3969  0.8787
  181MOL    H4322003   5.502   6.634   0.042 -2.1156 -4.2772  0.5704
  181MOL    C4422004   5.614   6.458   0.131  0.8529  0.1305  0.3406
  181MOL    F4522005   5.688   6.444   0.241  0.0501  0.2868 -0.0546
  181MOL    F4622006   5.521   6.364   0.148 -0.0826  0.3823 -0.3246
  181MOL    C4722007   5.701   6.422   0.008  0.6250 -0.9101  0.0876
  181MOL    H4822008   5.796   6.475   0.011  0.2322 -0.3147  3.1288
  181MOL    H4922009   5.648   6.445   8.265  0.1394 -0.7904  0.3944
  181MOL    C5022010   5.736   6.276   0.003 -0.0419  0.0260  0.1501
  181MOL    F5122011   5.629   6.200   8.350  0.0673 -0.1683 -0.0916
  181MOL    F5222012   5.804   6.276   8.236  0.0309 -0.0896  0.2128
  181MOL    C5322013   5.835   6.225   0.112  0.8103  0.1692  0.7106
  181MOL    H5422014   5.772   6.205   0.199 -0.5730 -2.1002 -0.7684
  181MOL    H5522015   5.905   6.300   0.150  0.7793  0.3943  0.3260
  181MOL    C5622016   5.912   6.095   0.073 -0.1837  0.3010 -0.5043
  181MOL    F5722017   6.003   6.124   8.327  0.0781  0.2118 -0.6233
  181MOL    F5822018   5.985   6.060   0.179 -0.2668 -0.1306 -0.0654
  181MOL    C5922019   5.826   5.976   0.020 -0.3224  0.3007  0.2222
  181MOL    H6022020   5.779   6.011   8.278 -2.1007  0.9318  1.3361
  181MOL    H6122021   5.747   5.974   0.095  0.7758  0.0029  1.3955
  181MOL    C6222022   5.898   5.846   8.333  0.1432  0.3568  0.0198
  181MOL    F6322023   5.992   5.870   8.245  0.1887 -0.0932  0.1269
  181MOL    F6422024   5.961   5.788   0.082 -0.2430  0.0541 -0.1479
  181MOL    C6522025   5.790   5.751   8.273  0.1761 -0.5089  0.0855
  181MOL    H6622026   5.744   5.802   8.189 -0.0542  1.8616  1.6158
  181MOL    H6722027   5.704   5.746   8.341 -0.7567  0.9063 -0.9714
  181MOL    C6822028   5.828   5.612   8.228  0.1005 -0.1653 -0.7865
  181MOL    F6922029   5.924   5.623   8.142 -0.0785 -0.1383  0.0474
  181MOL    F7022030   5.890   5.550   8.333  0.6965  0.1419  0.3064
  181MOL    C7122031   5.724   5.513   8.164  0.0884  0.4278 -0.4027
  181MOL    H7222032   5.765   5.413   8.146 -0.9080 -0.1018  0.2165
  181MOL    H7322033   5.690   5.550   8.067  0.3918  0.9047 -0.3282
  181MOL    C7422034   5.591   5.492   8.253 -0.7231  0.1038 -1.0971
  181MOL    F7522035   5.618   5.444   0.022 -0.1403 -0.5832 -0.3987
  181MOL    F7622036   5.531   5.612   8.249  0.7269 -0.2810 -0.3781
  181MOL    C7722037   5.492   5.383   8.196  0.1866  0.2078 -0.4702
  181MOL    H7822038   5.399   5.383   8.252  1.1129  0.3694  1.0944
  181MOL    H7922039   5.549   5.290   8.206  1.4002  0.9269 -0.6015
  181MOL    C8022040   5.459   5.398   8.050 -0.1906 -0.6342  0.4459
  181MOL    F8122041   5.421   5.519   8.033 -0.1990  0.2447  0.0886
  181MOL    F8222042   5.570   5.365   7.969  1.1302 -0.0983  0.2391
  181MOL    C8322043   5.334   5.311   8.013  0.4118 -0.0640  0.2879
  181MOL    H8422044   5.239   5.354   8.044 -0.0474  0.1762 -1.4125
  181MOL    H8522045   5.343   5.226   8.081  1.2520 -1.7713 -1.9028
  181MOL    C8622046   5.325   5.276   7.866  0.8043  0.7866  0.5625
  181MOL    F8722047   5.429   5.199   7.828 -0.1464  0.3966 -0.3312
  181MOL    F8822048   5.210   5.197   7.852 -0.2183 -0.6648  0.1570
  181MOL    C8922049   5.315   5.390   7.769 -0.3031  0.2037 -0.2189
  181MOL    H9022050   5.402   5.456   7.774 -0.8063  0.8016  0.7849
  181MOL    H9122051   5.231   5.448   7.807 -1.7180 -2.7725  1.3469
  181MOL    C9222052   5.288   5.355   7.620  0.1820  0.2567  0.6014
  181MOL    F9322053   5.395   5.296   7.568 -0.0409  0.1010  0.6929
  181MOL    F9422054   5.196   5.257   7.612 -0.9209  0.5071  0.1594
  181MOL    C9522055   5.231   5.482   7.546  0.1522  0.2621 -0.2962
  181MOL    H9622056   5.138   5.501   7.600 -0.2494  0.7505 -1.1573
  181MOL    H9722057   5.205   5.451   7.445 -1.2972 -0.7160  0.3517
  181MOL    C9822058   5.318   5.607   7.535  0.4320  0.1919 -0.1770
  181MOL    F9922059   5.246   5.701   7.478 -0.3306 -0.2269  0.0329
  181MOL   F10022060   5.359   5.642   7.654  0.1001 -0.1686  0.2537
  181MOL   C10122061   5.439   5.580   7.438  0.3048 -0.1942  0.0659
  181MOL   H10222062   5.410   5.512   7.359 -0.6899 -0.0510  0.3010
  181MOL   H10322063   5.521   5.541   7.498  0.0555  1.5290  1.5863
  181MOL   C10422064   5.499   5.700   7.364 -1.1210 -0.2731 -0.3271
  181MOL   F10522065   5.549   5.794   7.443  0.2370 -0.2528 -0.4474
  181MOL   F10622066   5.611   5.659   7.314 -0.5711 -0.3262  0.1831
  181MOL   C10722067   5.404   5.761   7.265 -0.2627  0.3318 -0.6935
  181MOL   H10822068   5.342   5.834   7.316 -0.9473  0.1526 -1.2490
  181MOL   H10922069   5.335   5.686   7.225  1.9741 -0.4829 -3.1809
  181MOL   C11022070   5.480   5.811   7.137 -0.4705  0.7336  0.0029
  181MOL   F11122071   5.577   5.895   7.179 -0.0848  0.2076 -0.0582
  181MOL   F11222072   5.537   5.704   7.074 -0.3348 -0.2011  0.5669
  181MOL   C11322073   5.383   5.876   7.040 -0.1920  0.2761 -0.5378
  181MOL   H11422074   5.320   5.804   6.988  0.3997 -1.3605  0.9698
  181MOL   H11522075   5.450   5.922   6.967  0.0374 -1.1129 -1.2091
  181MOL   C11622076   5.288   5.985   7.091  0.6171 -0.0093  0.7861
  181MOL   F11722077   5.223   6.023   6.979 -0.0967  0.0378  0.0035
  181MOL   F11822078   5.190   5.944   7.175  0.1187  0.0558  0.3589
  181MOL   C11922079   5.358   6.110   7.144 -0.4959 -0.1103 -0.4258
  181MOL   H12022080   5.417   6.151   7.062 -3.7702  1.7859 -1.9531
  181MOL   H12122081   5.420   6.089   7.231 -1.3302 -3.0119 -0.4688
  181MOL   H12222082   5.287   6.184   7.181 -0.0970  1.2284 -2.2613
  182MOL     C122083   7.235   3.019   3.115  0.3274 -0.6223  0.6283
  182MOL     F222084   7.114   2.977   3.084 -0.0392  0.2630  0.1144
  182MOL     F322085   7.315   2.986   3.016  0.1946 -0.4090 -0.1084
  182MOL     C422086   7.283   2.947   3.250  0.4201 -0.8631  0.1592
  182MOL     H522087   7.289   2.839   3.233 -0.1492 -0.3798 -3.3763
  182MOL     H622088   7.202   2.950   3.323  2.1912  1.6905  2.1512
  182MOL     H722089   7.229   3.127   3.125  1.6600  0.0703 -4.8327
  182MOL     C822090   7.414   2.991   3.316 -0.8265 -0.5640  0.0191
  182MOL     F922091   7.504   2.965   3.225  0.5182  0.2700 -0.4340
  182MOL    F1022092   7.417   3.124   3.337  0.2029  0.8078  0.5503
  182MOL    C1122093   7.447   2.913   3.446  0.8104 -0.4074  1.1130
  182MOL    H1222094   7.431   2.806   3.438  1.2898 -0.3330 -1.1329
  182MOL    H1322095   7.381   2.953   3.523  1.0179  0.2103  0.9774
  182MOL    C1422096   7.584   2.926   3.516 -0.3285  0.4467  0.1458
  182MOL    F1522097   7.684   2.860   3.449 -0.1850  0.1364 -0.2819
  182MOL    F1622098   7.609   3.056   3.511 -0.0119  0.0293 -0.0053
  182MOL    C1722099   7.607   2.874   3.661 -0.1888 -0.4224 -0.2188
  182MOL    H1822100   7.708   2.852   3.695 -0.0572 -0.1021 -0.4047
  182MOL    H1922101   7.578   2.769   3.668  0.3030 -0.5269  0.2796
  182MOL    C2022102   7.536   2.964   3.763 -0.3784  0.2655  0.7370
  182MOL    F2122103   7.583   3.089   3.749  0.0045 -0.3707  0.0036
  182MOL    F2222104   7.409   2.965   3.731 -0.3413  0.0419  0.0733
  182MOL    C2322105   7.524   2.924   3.905 -0.0835  0.5774  0.0604
  182MOL    H2422106   7.467   2.832   3.920  0.9717 -0.2580 -1.0358
  182MOL    H2522107   7.469   3.005   3.953  1.8717  1.3502  1.0376
  182MOL    C2622108   7.650   2.914   3.984 -0.2722 -0.5524  1.1713
  182MOL    F2722109   7.727   2.821   3.935 -0.4899 -0.1698  0.0197
  182MOL    F2822110   7.725   3.021   3.989  0.2263 -0.5008  0.3566
  182MOL    C2922111   7.621   2.878   4.135 -0.2365 -0.7067 -0.1236
  182MOL    H3022112   7.715   2.896   4.186 -0.2838  0.6167 -0.5000
  182MOL    H3122113   7.600   2.771   4.126 -1.6479 -0.7292  2.7853
  182MOL    C3222114   7.508   2.961   4.207 -0.0061  0.5706  0.3879
  182MOL    F3322115   7.532   3.089   4.176 -0.2057 -0.2781 -0.7771
  182MOL    F3422116   7.381   2.934   4.168 -0.3177  0.4710 -0.2236
  182MOL    C3522117   7.515   2.935   4.365 -0.0284 -0.7204  0.1999
  182MOL    H3622118   7.602   2.983   4.410 -0.5425 -0.4683  0.9276
  182MOL    H3722119   7.520   2.829   4.388  1.0209 -0.6702  0.1932
  182MOL    C3822120   7.387   2.988   4.434 -0.2945 -0.6098 -0.9266
  182MOL    F3922121   7.284   2.909   4.422 -0.4665  0.3371  0.2003
  182MOL    F4022122   7.393   2.972   4.567  0.1690 -0.0984 -0.6073
  182MOL    C4122123   7.346   3.131   4.414 -0.0654  0.0031  0.0793
  182MOL    H4222124   7.255   3.159   4.467 -0.2126  0.6361 -0.5062
  182MOL    H4322125   7.322   3.136   4.308  1.4670  0.0305 -0.2758
  182MOL    C4422126   7.446   3.245   4.456  0.2500  0.4354 -1.0914
  182MOL    F4522127   7.564   3.234   4.385  0.6222  0.1883 -0.5101
  182MOL    F4622128   7.388   3.360   4.422 -0.1957 -0.2935  0.0110
  182MOL    C4722129   7.467   3.246   4.614 -0.1529 -0.2786  0.5217
  182MOL    H4822130   7.515   3.156   4.652 -0.4730 -0.9533 -0.6595
  182MOL    H4922131   7.372   3.264   4.665  0.9177  0.2011  2.4046
  182MOL    C5022132   7.564   3.354   4.649 -0.0149  0.0982  1.1738
  182MOL    F5122133   7.680   3.321   4.597  0.0093  0.0875  0.0795
  182MOL    F5222134   7.525   3.471   4.614  0.0628 -0.2300  0.1563
  182MOL    C5322135   7.575   3.359   4.800  0.3928 -0.0624 -0.7942
  182MOL    H5422136   7.626   3.272   4.840 -2.5352 -0.4612  2.2650
  182MOL    H5522137   7.480   3.367   4.853  0.3285 -0.9264 -0.7811
  182MOL    C5622138   7.649   3.481   4.853 -0.5158  0.3787  0.2470
  182MOL    F5722139   7.585   3.591   4.813  0.0101  0.4724 -0.0701
  182MOL    F5822140   7.629   3.470   4.989 -0.0538 -0.0071  0.6543
  182MOL    C5922141   7.798   3.479   4.822  0.3198  0.9007  0.0526
  182MOL    H6022142   7.819   3.488   4.715  0.2136 -0.2726 -0.0662
  182MOL    H6122143   7.837   3.382   4.855 -0.3816  1.2863  2.1184
  182MOL    C6222144   7.877   3.589   4.897 -0.9071  0.1964  0.3851
  182MOL    F6322145   7.845   3.707   4.846  0.4897 -0.0574 -0.2511
  182MOL    F6422146   7.849   3.579   5.024 -0.3298  0.2035  0.6702
  182MOL    C6522147   8.035   3.571   4.869 -0.5866 -0.2277 -1.3090
  182MOL    H6622148   8.061   3.581   4.764 -0.3016 -0.2116 -1.2365
  182MOL    H6722149   8.060   3.465   4.877 -3.0220 -0.8907 -2.0375
  182MOL    C6822150   8.130   3.663   4.955  0.5872 -0.3405  0.1105
  182MOL    F6922151   8.088   3.789   4.919  0.0986  0.1532 -0.6370
  182MOL    F7022152   8.095   3.630   5.081 -0.0240  0.3185 -0.2509
  182MOL    C7122153   8.279   3.663   4.930 -0.2301  0.2499  0.1027
  182MOL    H7222154   8.298   3.716   4.837 -1.7608  0.4541 -0.1017
  182MOL    H7322155   8.308   3.558   4.934 -2.5558 -0.3727  1.7231
  182MOL    C7422156   0.012   3.737   5.040 -0.4235  0.3510  0.5112
  182MOL    F7522157   8.314   3.863   5.062  0.1893  0.0912  0.2511
  182MOL    F7622158   0.006   3.672   5.155  0.3949  0.0034 -0.1615
  182MOL    C7722159   0.157   3.750   4.999  0.0057 -0.2880 -0.2025
  182MOL    H7822160   0.193   3.647   4.989  0.7265 -0.0241 -0.3738
  182MOL    H7922161   0.212   3.775   5.090 -0.4600 -2.8919  0.8496
  182MOL    C8022162   0.197   3.831   4.878 -0.3620  0.1902 -0.4165
  182MOL    F8122163   0.333   3.833   4.879  0.1298  0.0587 -0.7452
  182MOL    F8222164   0.159   3.774   4.761  0.1538 -0.4130 -0.2511
  182MOL    C8322165   0.142   3.976   4.873  0.5935  0.1949 -0.2826
  182MOL    H8422166   0.173   4.012   4.971  1.3472 -3.6382  0.9718
  182MOL    H8522167   0.033   3.973   4.869  0.5670 -0.5972  0.8805
  182MOL    C8622168   0.209   4.059   4.758 -0.6645 -0.2322 -0.4018
  182MOL    F8722169   0.343   4.086   4.780 -0.0988 -0.0346 -1.1358
  182MOL    F8822170   0.194   4.006   4.637 -0.2220 -0.0948 -0.3807
  182MOL    C8922171   0.145   4.200   4.739 -1.3668 -0.3925 -0.2395
  182MOL    H9022172   0.194   4.255   4.659 -1.1432 -0.4796 -0.1626
  182MOL    H9122173   0.157   4.259   4.830  0.4415  0.7681 -1.1900
  182MOL    C9222174   8.344   4.196   4.702 -0.1833  0.0900 -0.5919
  182MOL    F9322175   8.329   4.107   4.600 -0.0027 -0.0339  0.1953
  182MOL    F9422176   8.281   4.155   4.812 -0.0065 -0.1796 -0.4662
  182MOL    C9522177   8.309   4.336   4.656  0.2491  0.4101 -0.1762
  182MOL    H9622178   0.009   4.357   4.561 -1.4944 -1.1257 -1.4754
  182MOL    H9722179   8.334   4.413   4.729  2.2750  2.0534 -2.4887
  182MOL    C9822180   8.158   4.367   4.640 -0.2367  0.0705  0.6632
  182MOL    F9922181   8.121   4.268   4.553 -0.0181  0.5021  0.1518
  182MOL   F10022182   8.082   4.344   4.744 -0.3402  0.1857 -0.3173
  182MOL   C10122183   8.136   4.514   4.584  0.5417  0.3296  0.2751
  182MOL   H10222184   8.029   4.516   4.563  0.6031 -1.9396 -0.3548
  182MOL   H10322185   8.181   4.520   4.485 -1.0266 -0.8531 -0.5209
  182MOL   C10422186   8.186   4.640   4.663  0.3984  0.1452 -0.0268
  182MOL   F10522187   8.139   4.641   4.789  0.0214 -0.3097  0.0853
  182MOL   F10622188   8.320   4.639   4.651 -0.0077  0.1134 -0.2803
  182MOL   C10722189   8.129   4.766   4.598 -0.0355  0.1804 -0.3454
  182MOL   H10822190   8.167   4.849   4.657 -0.9031 -0.1916  0.7496
  182MOL   H10922191   8.020   4.766   4.608  0.0340  0.9304  0.4540
  182MOL   C11022192   8.156   4.796   4.453  0.0522 -0.1453  0.9127
  182MOL   F11122193   8.287   4.772   4.440 -0.7927 -0.5616  0.6298
  182MOL   F11222194   8.083   4.715   4.369 -0.3278 -0.4051 -0.3229
  182MOL   C11322195   8.142   4.948   4.419 -0.2426 -0.0490  0.2095
  182MOL   H11422196   8.182   4.953   4.318  0.6716  0.8612  0.6108
  182MOL   H11522197   8.212   5.000   4.484  1.1939  0.0359 -1.3915
  182MOL   C11622198   7.997   5.006   4.434 -0.1701 -0.4259 -0.8252
  182MOL   F11722199   7.957   4.999   4.564  0.9875 -0.0179 -0.0353
  182MOL   F11822200   7.999   5.132   4.402  0.2072  0.9900  0.2493
  182MOL   C11922201   7.888   4.942   4.347  0.5820  0.1018  0.1924
  182MOL   H12022202   7.876   4.837   4.372 -0.4850  0.3350  0.6542
  182MOL   H12122203   7.918   4.942   4.242 -1.7832 -0.4651 -0.5168
  182MOL   H12222204   7.790   4.989   4.346 -0.2608 -1.6160  1.2331
  183MOL     C122205   2.729   0.496   6.951 -0.0560  0.0501 -0.5001
  183MOL     F222206   2.715   0.562   6.837 -0.3353 -0.5496 -0.0735
  183MOL     F322207   2.827   0.551   7.022  0.4810  0.4210 -0.1141
  183MOL     C422208   2.748   0.345   6.926  0.0075  0.0820 -0.4136
  183MOL     H522209   2.771   0.298   7.022 -0.2439  0.5208 -0.1348
  183MOL     H622210   2.844   0.330   6.876  0.5402  0.7209  0.4052
  183MOL     H722211   2.637   0.511   7.007  0.2044  0.9279 -0.3120
  183MOL     C822212   2.614   0.289   6.847 -0.1138 -0.2082  0.4567
  183MOL     F922213   2.509   0.336   6.912 -0.0706 -0.1628  0.3488
  183MOL    F1022214   2.614   0.343   6.724 -0.4671  0.6069  0.3959
  183MOL    C1122215   2.611   0.137   6.831  0.1307  0.0072 -0.3312
  183MOL    H1222216   2.710   0.105   6.797  1.5016  0.8872  2.6982
  183MOL    H1322217   2.539   0.112   6.752 -0.2863  1.8232 -0.5397
  183MOL    C1422218   2.571   0.072   6.972 -0.0743 -0.3915 -0.5791
  183MOL    F1522219   2.664   0.095   7.067  0.3175 -0.1093  0.2957
  183MOL    F1622220   2.454   0.125   7.013 -0.1178  0.0426 -0.2626
  183MOL    C1722221   2.560   8.269   6.957 -0.2642 -0.4420 -0.7403
  183MOL    H1822222   2.483   8.241   6.885  0.7864  0.9156 -2.4261
  183MOL    H1922223   2.527   8.223   7.050 -1.3082  1.5026 -0.1166
  183MOL    C2022224   2.694   8.201   6.918  0.6079  0.2034 -0.6626
  183MOL    F2122225   2.708   8.228   6.789 -0.1998 -0.5595  0.7524
  183MOL    F2222226   2.803   8.241   6.978  0.4539 -0.6592 -0.1310
  183MOL    C2322227   2.693   8.052   6.942 -0.1565 -0.1196 -0.0554
  183MOL    H2422228   2.593   8.017   6.916 -0.6201  0.7215  0.5249
  183MOL    H2522229   2.700   8.028   7.048  0.7233 -2.3671 -0.5994
  183MOL    C2622230   2.798   7.970   6.870 -0.5296  0.3631 -0.1079
  183MOL    F2722231   2.803   7.997   6.740 -0.0415 -0.1216 -0.3045
  183MOL    F2822232   2.918   7.996   6.916 -0.3275 -0.1667  0.2938
  183MOL    C2922233   2.777   7.823   6.883 -0.9569 -0.0750  0.4014
  183MOL    H3022234   2.789   7.789   6.986  3.4732  2.1298  0.7297
  183MOL    H3122235   2.854   7.777   6.821 -0.4092  1.0247  0.2654
  183MOL    C3222236   2.649   7.758   6.825  0.9917 -0.0171  0.1181
  183MOL    F3322237   2.544   7.795   6.895  0.5034  0.3991 -0.1488
  183MOL    F3422238   2.630   7.789   6.699 -0.9533  1.0816 -0.3586
  183MOL    C3522239   2.655   7.599   6.837 -0.3669  0.3393  0.4346
  183MOL    H3622240   2.676   7.573   6.941  1.5080  0.0427 -0.0022
  183MOL    H3722241   2.725   7.555   6.766 -2.4814 -1.5491 -0.5471
  183MOL    C3822242   2.530   7.524   6.800  0.2287 -0.3151 -0.5952
  183MOL    F3922243   2.419   7.576   6.867 -0.0272  0.0783  0.7027
  183MOL    F4022244   2.518   7.543   6.669 -0.0055  0.1923 -0.8525
  183MOL    C4122245   2.545   7.381   6.831 -0.5538  0.0538 -0.0870
  183MOL    H4222246   2.548   7.382   6.940 -0.0661  0.9170 -0.1016
  183MOL    H4322247   2.636   7.343   6.783 -0.7462  0.3473 -0.6962
  183MOL    C4422248   2.434   7.280   6.787  0.3775 -0.3029 -0.3785
  183MOL    F4522249   2.323   7.309   6.857  0.5476  0.8101  0.1856
  183MOL    F4622250   2.405   7.293   6.658 -0.4902 -0.1376  0.0151
  183MOL    C4722251   2.491   7.145   6.820  0.4320  0.9881  0.8407
  183MOL    H4822252   2.539   7.141   6.918  1.6423  1.8244  0.2984
  183MOL    H4922253   2.575   7.130   6.751 -1.7455 -0.0464 -1.7046
  183MOL    C5022254   2.396   7.024   6.801  0.1394  0.0790  0.0658
  183MOL    F5122255   2.281   7.049   6.865  0.6232 -0.5472 -0.1609
  183MOL    F5222256   2.375   7.006   6.679  0.0099  0.4073 -0.0213
  183MOL    C5322257   2.455   6.894   6.860 -0.3549  0.3273 -0.3567
  183MOL    H5422258   2.386   6.815   6.828 -0.9111  0.9122 -0.6107
  183MOL    H5522259   2.457   6.886   6.969  0.8012 -0.6192 -0.4350
  183MOL    C5622260   2.594   6.860   6.814  0.0412  0.2614  0.2357
  183MOL    F5722261   2.595   6.860   6.684 -0.3694  0.1150  0.1375
  183MOL    F5822262   2.684   6.948   6.857 -0.0344 -0.1830 -0.1190
  183MOL    C5922263   2.637   6.719   6.862 -0.5588  0.7549  0.0473
  183MOL    H6022264   2.739   6.698   6.828 -0.5015  1.2159 -0.0639
  183MOL    H6122265   2.579   6.644   6.808 -0.3440 -0.3782  1.3524
  183MOL    C6222266   2.627   6.699   7.018  0.0511 -0.3237 -0.5127
  183MOL    F6322267   2.670   6.817   7.070 -0.4602  0.6067 -0.0298
  183MOL    F6422268   2.502   6.687   7.057  0.1070  0.5142 -0.5113
  183MOL    C6522269   2.723   6.592   7.072  0.4469 -0.1544 -0.0373
  183MOL    H6622270   2.721   6.574   7.179 -2.0529  0.9344  0.1174
  183MOL    H6722271   2.826   6.620   7.048  1.1349 -0.9391  1.8927
  183MOL    C6822272   2.713   6.445   7.012 -0.3795  0.3531  0.6093
  183MOL    F6922273   2.599   6.392   7.053  0.5592 -0.0808 -0.1253
  183MOL    F7022274   2.716   6.449   6.878 -0.3081 -0.1799  0.5439
  183MOL    C7122275   2.830   6.354   7.059  0.0884  0.1612  0.5082
  183MOL    H7222276   2.851   6.356   7.166  0.6551 -0.3581  0.4131
  183MOL    H7322277   2.925   6.378   7.010  0.3740 -0.9347  0.5254
  183MOL    C7422278   2.814   6.203   7.025 -0.1465 -0.5697  0.1901
  183MOL    F7522279   2.807   6.195   6.892  0.5014 -0.0622  0.6472
  183MOL    F7622280   2.926   6.141   7.066 -0.0473 -0.0773  0.0401
  183MOL    C7722281   2.685   6.133   7.080 -0.3893  0.9331 -0.3890
  183MOL    H7822282   2.696   6.025   7.063  2.4783  1.2783 -0.9257
  183MOL    H7922283   2.594   6.164   7.027 -1.4409 -1.9646 -0.3924
  183MOL    C8022284   2.674   6.141   7.237  0.7272  0.8080 -0.0451
  183MOL    F8122285   2.785   6.090   7.286  0.2529 -0.3185  0.1295
  183MOL    F8222286   2.661   6.268   7.282 -0.0885  0.1375  0.3328
  183MOL    C8322287   2.551   6.080   7.303  0.7640 -0.2283  0.3935
  183MOL    H8422288   2.468   6.147   7.280  1.2149  0.0227 -0.5197
  183MOL    H8522289   2.566   6.091   7.411  1.1894 -1.3331  0.4593
  183MOL    C8622290   2.512   5.929   7.279 -0.2085 -0.6873  0.6088
  183MOL    F8722291   2.481   5.927   7.149 -0.1255  0.2931  0.4932
  183MOL    F8822292   2.614   5.849   7.314  0.7195 -0.2489  0.1142
  183MOL    C8922293   2.380   5.886   7.354 -0.7084  0.1297  0.0278
  183MOL    H9022294   2.304   5.962   7.338 -1.1825 -0.6623 -1.6383
  183MOL    H9122295   2.411   5.887   7.459  1.8359  1.0097 -0.6925
  183MOL    C9222296   2.327   5.741   7.326 -0.3494 -0.1317  0.3488
  183MOL    F9322297   2.424   5.660   7.370  0.4476  0.4952 -0.3031
  183MOL    F9422298   2.224   5.719   7.398 -0.1122  0.5364 -0.4576
  183MOL    C9522299   2.307   5.697   7.181 -0.1909  0.2405  0.2888
  183MOL    H9622300   2.382   5.723   7.106 -0.7294 -0.2768 -0.4383
  183MOL    H9722301   2.214   5.743   7.147 -0.4222 -0.9491 -0.7120
  183MOL    C9822302   2.280   5.546   7.164  0.0491  0.4172 -0.6261
  183MOL    F9922303   2.384   5.466   7.180 -0.1099  0.2326 -0.0908
  183MOL   F10022304   2.185   5.514   7.253  0.9100  0.4274  0.7167
  183MOL   C10122305   2.222   5.511   7.022  0.0315  0.6108  0.1606
  183MOL   H10222306   2.293   5.546   6.947  0.2730 -0.4609 -0.1163
  183MOL   H10322307   2.132   5.571   7.010 -0.7676 -0.8027 -1.0447
  183MOL   C10422308   2.194   5.356   6.996  0.0151  0.9135 -0.5484
  183MOL   F10522309   2.102   5.309   7.084 -0.2433  0.1630  0.5331
  183MOL   F10622310   2.131   5.364   6.883 -0.0434 -0.2103  0.4880
  183MOL   C10722311   2.327   5.270   6.994  0.4255 -0.4918  0.7404
  183MOL   H10822312   2.379   5.257   7.089  1.3390 -1.5273  0.1069
  183MOL   H10922313   2.407   5.316   6.937 -1.0285 -0.7067 -1.5346
  183MOL   C11022314   2.320   5.131   6.929  0.2188  0.5126  0.0636
  183MOL   F11122315   2.309   5.144   6.802 -0.0778 -0.0961 -0.3370
  183MOL   F11222316   2.435   5.078   6.958  0.0516  0.1364 -0.3608
  183MOL   C11322317   2.207   5.035   6.969  0.6333  0.3299 -0.4510
  183MOL   H11422318   2.209   4.944   6.909 -1.2711 -1.5889  2.3111
  183MOL   H11522319   2.117   5.091   6.946 -0.1109 -0.7905 -0.2734
  183MOL   C11622320   2.207   4.985   7.114 -0.2617  0.1126 -0.0567
  183MOL   F11722321   2.324   4.924   7.132  0.2238 -0.3709  0.0157
  183MOL   F11822322   2.194   5.087   7.193 -0.3803  0.0022 -0.3838
  183MOL   C11922323   2.099   4.879   7.148 -1.0475  0.2336 -0.0277
  183MOL   H12022324   2.107   4.791   7.085  2.0578  1.4987 -1.4693
  183MOL   H12122325   1.999   4.917   7.125 -0.4322  3.0384  1.6127
  183MOL   H12222326   2.111   4.852   7.253  0.5138 -2.1177 -0.7675
  184MOL     C122327   3.313   1.595   6.642 -0.1308 -0.5574  0.2074
  184MOL     F222328   3.309   1.465   6.631 -0.0445  0.2544  0.3824
  184MOL     F322329   3.391   1.650   6.551  0.3369  0.1253  0.2789
  184MOL     C422330   3.365   1.625   6.783  0.4838 -0.1317 -1.0642
  184MOL     H522331   3.462   1.580   6.805  0.8288  0.8805 -0.4449
  184MOL     H622332   3.296   1.577   6.853  1.6847  0.3438  0.4854
  184MOL     H722333   3.210   1.626   6.624  0.6584  1.8121 -0.4874
  184MOL     C822334   3.376   1.777   6.803  0.1062 -0.6944  0.2384
  184MOL     F922335   3.478   1.826   6.740 -0.5019  0.2948 -0.1677
  184MOL    F1022336   3.270   1.846   6.763  0.3416 -0.4163  0.2847
  184MOL    C1122337   3.390   1.837   6.946 -0.2457  0.0306 -0.1000
  184MOL    H1222338   3.299   1.814   7.000 -0.3576 -1.5156 -0.9346
  184MOL    H1322339   3.385   1.945   6.928  0.9250  0.1804  0.4089
  184MOL    C1422340   3.517   1.799   7.025  0.7294 -0.1408  0.4922
  184MOL    F1522341   3.550   1.668   7.034  0.2717  0.0095  0.4273
  184MOL    F1622342   3.606   1.861   6.952  0.2886  0.2080  0.5990
  184MOL    C1722343   3.541   1.876   7.153  0.0834 -0.4541  0.4829
  184MOL    H1822344   3.514   1.980   7.131  2.3291  0.0864  0.1465
  184MOL    H1922345   3.648   1.878   7.175  0.2260  1.5329 -0.3043
  184MOL    C2022346   3.452   1.830   7.265 -0.0788 -0.9798  0.1136
  184MOL    F2122347   3.510   1.859   7.380  0.1273 -0.1406 -0.8782
  184MOL    F2222348   3.338   1.893   7.252 -0.2878  0.1816 -0.8444
  184MOL    C2322349   3.419   1.677   7.272 -0.2458 -0.3957 -0.1596
  184MOL    H2422350   3.512   1.625   7.294 -0.3310 -0.6216 -0.3404
  184MOL    H2522351   3.379   1.651   7.174 -0.5388  0.5291 -0.2913
  184MOL    C2622352   3.317   1.626   7.371 -0.2060  0.3399 -0.1571
  184MOL    F2722353   3.333   1.493   7.383  0.5585  0.2101 -0.3560
  184MOL    F2822354   3.334   1.687   7.485 -0.1375  0.2017  0.6874
  184MOL    C2922355   3.166   1.655   7.335 -0.8201  0.0340 -0.2375
  184MOL    H3022356   3.153   1.642   7.228 -1.1311  0.3691 -0.2439
  184MOL    H3122357   3.147   1.763   7.342  1.7147  0.5567 -0.7816
  184MOL    C3222358   3.054   1.576   7.409 -0.2142  0.0294 -0.3289
  184MOL    F3322359   2.932   1.618   7.368 -0.6793 -0.2660  0.3926
  184MOL    F3422360   3.057   1.448   7.365 -0.4028 -0.8029  0.2104
  184MOL    C3522361   3.066   1.576   7.560 -0.3260  0.0147  0.3197
  184MOL    H3622362   3.046   1.679   7.593  0.3229  1.1239 -2.6170
  184MOL    H3722363   3.167   1.556   7.593 -0.7206  1.8495  2.8078
  184MOL    C3822364   2.961   1.486   7.639  0.0030 -0.1638 -0.8562
  184MOL    F3922365   2.975   1.498   7.773  0.5747  0.2172  0.3303
  184MOL    F4022366   2.838   1.536   7.611  0.1796 -0.0703  0.3830
  184MOL    C4122367   2.964   1.338   7.624  0.0685  0.5520 -0.1870
  184MOL    H4222368   2.955   1.319   7.516  1.4324 -0.5938 -0.1182
  184MOL    H4322369   2.878   1.300   7.678  0.8260 -0.8978  0.0131
  184MOL    C4422370   3.104   1.271   7.658 -0.5918 -0.0947 -0.3838
  184MOL    F4522371   3.205   1.334   7.600 -0.1055  0.4849  0.1554
  184MOL    F4622372   3.136   1.274   7.786 -0.2125 -0.0745  0.2513
  184MOL    C4722373   3.102   1.123   7.601 -0.1202  0.5120 -0.0105
  184MOL    H4822374   3.099   1.124   7.492 -1.5662  2.1783  0.0249
  184MOL    H4922375   3.014   1.073   7.643  0.3410  0.8007  1.3224
  184MOL    C5022376   3.236   1.051   7.642  0.2577 -0.1462 -0.2112
  184MOL    F5122377   3.351   1.103   7.599 -0.1457 -0.3279  0.4521
  184MOL    F5222378   3.244   1.049   7.776  0.0715  0.5921  0.2845
  184MOL    C5322379   3.238   0.900   7.594  0.0664 -0.1526 -0.3600
  184MOL    H5422380   3.162   0.850   7.654  0.9213  0.6999  1.4640
  184MOL    H5522381   3.339   0.869   7.617  0.6561  1.8184 -0.2327
  184MOL    C5622382   3.214   0.886   7.444 -1.0104  0.7541  0.7651
  184MOL    F5722383   3.086   0.902   7.403  0.0783 -0.0475 -0.7011
  184MOL    F5822384   3.298   0.974   7.382  0.3201  0.3506 -0.0597
  184MOL    C5922385   3.249   0.745   7.386  0.7309  0.4490  0.6808
  184MOL    H6022386   3.171   0.672   7.406 -1.7154  2.7972 -0.0301
  184MOL    H6122387   3.337   0.707   7.439  0.4308 -0.5407  0.4699
  184MOL    C6222388   3.263   0.742   7.235 -0.3073 -0.3834  0.2959
  184MOL    F6322389   3.186   0.829   7.169  0.5790 -0.1673  0.0729
  184MOL    F6422390   3.391   0.771   7.210  0.4647  0.8342 -0.0439
  184MOL    C6522391   3.230   0.608   7.166 -0.8887  0.4219 -0.1796
  184MOL    H6622392   3.235   0.631   7.060  0.9431 -0.2600 -0.2503
  184MOL    H6722393   3.126   0.583   7.190  0.0728 -2.0569  1.5344
  184MOL    C6822394   3.316   0.487   7.194  0.2371 -0.4537 -0.2458
  184MOL    F6922395   3.432   0.514   7.123  0.1983  0.0242  0.0900
  184MOL    F7022396   3.354   0.485   7.332  0.1661  0.0340 -0.0578
  184MOL    C7122397   3.265   0.349   7.167  0.3890  0.2193  0.4099
  184MOL    H7222398   3.179   0.325   7.229 -0.9392 -0.4610 -1.6186
  184MOL    H7322399   3.345   0.279   7.190  0.1372 -0.3874 -0.5485
  184MOL    C7422400   3.216   0.326   7.024 -1.1694 -0.3357 -0.1628
  184MOL    F7522401   3.110   0.415   7.008 -0.5914 -0.4699  0.2975
  184MOL    F7622402   3.311   0.357   6.931  0.1771 -0.2783 -0.0269
  184MOL    C7722403   3.163   0.188   6.992  0.2786 -0.1517  0.3684
  184MOL    H7822404   3.129   0.197   6.889 -1.4430 -0.3391  0.8922
  184MOL    H7922405   3.076   0.172   7.056 -0.1055  0.1230 -0.0788
  184MOL    C8022406   3.266   0.076   6.999  0.1927  0.0732  0.2661
  184MOL    F8122407   3.390   0.107   6.957 -0.0394  0.0643  0.4323
  184MOL    F8222408   3.277   0.047   7.125  0.1598 -0.3035 -0.3452
  184MOL    C8322409   3.227   8.306   6.913 -0.0548 -0.4914  0.1909
  184MOL    H8422410   3.225   8.336   6.809 -1.5076 -1.2519 -0.0086
  184MOL    H8522411   3.123   8.281   6.934  0.1510 -1.5261  0.0019
  184MOL    C8622412   3.315   8.184   6.932  0.0365  0.3356 -0.4833
  184MOL    F8722413   3.431   8.220   6.882  0.3917  0.1314 -0.2268
  184MOL    F8822414   3.337   8.155   7.064 -0.0878 -0.2406 -0.1629
  184MOL    C8922415   3.260   8.071   6.855  0.3179  0.9459  0.0818
  184MOL    H9022416   3.256   8.091   6.749  0.2720 -1.5727 -0.4366
  184MOL    H9122417   3.155   8.065   6.885 -0.0625 -0.5856 -1.4687
  184MOL    C9222418   3.323   7.931   6.868  0.4812  0.2997 -0.0269
  184MOL    F9322419   3.449   7.934   6.827  0.3760  0.8433  0.2760
  184MOL    F9422420   3.337   7.895   6.996  0.2864 -0.1152 -0.0029
  184MOL    C9522421   3.245   7.821   6.787 -0.6890 -0.0155 -0.5865
  184MOL    H9622422   3.257   7.861   6.686  0.1159  2.5935  0.4980
  184MOL    H9722423   3.137   7.817   6.800 -0.6364  0.5119 -0.0155
  184MOL    C9822424   3.308   7.675   6.791  0.4822  0.0234  0.5204
  184MOL    F9922425   3.440   7.678   6.762 -0.4001  0.1719 -0.3158
  184MOL   F10022426   3.292   7.624   6.915  0.1413  0.1393 -0.0616
  184MOL   C10122427   3.251   7.584   6.687 -0.2153 -0.2492  0.8733
  184MOL   H10222428   3.282   7.616   6.587  1.4529 -0.5493  1.2815
  184MOL   H10322429   3.144   7.604   6.686 -0.1207  0.3406 -1.1057
  184MOL   C10422430   3.279   7.439   6.703  0.3130 -0.6621 -0.5039
  184MOL   F10522431   3.409   7.424   6.702 -0.2947 -0.6549  0.3580
  184MOL   F10622432   3.231   7.390   6.821 -0.2797 -0.0883 -0.0570
  184MOL   C10722433   3.206   7.366   6.585  0.1948  0.8825 -0.1203
  184MOL   H10822434   3.218   7.421   6.491  0.0450  1.4519  0.1880
  184MOL   H10922435   3.100   7.377   6.609 -0.2875 -1.0950 -1.2618
  184MOL   C11022436   3.240   7.217   6.565 -0.3723 -0.0813  0.2340
  184MOL   F11122437   3.142   7.173   6.482 -0.1402  0.5728 -0.3262
  184MOL   F11222438   3.357   7.209   6.507 -0.5378  0.3027  0.0564
  184MOL   C11322439   3.242   7.145   6.699  0.2097 -0.6373  0.4309
  184MOL   H11422440   3.150   7.177   6.747  0.9802  1.2386  0.6943
  184MOL   H11522441   3.321   7.188   6.761 -0.9434  0.8309  0.8968
  184MOL   C11622442   3.259   6.993   6.700  0.3840  0.5591 -0.6266
  184MOL   F11722443   3.358   6.946   6.626  0.4676 -0.0331  0.1734
  184MOL   F11822444   3.265   6.941   6.822 -0.1253 -0.3392 -0.4570
  184MOL   C11922445   3.136   6.919   6.638  0.0989 -0.4206 -0.1085
  184MOL   H12022446   3.121   6.950   6.535  1.4173  0.8511  0.0700
  184MOL   H12122447   3.043   6.945   6.689  0.9322 -0.3272  1.4177
  184MOL   H12222448   3.135   6.810   6.642  1.5166 -0.4295  0.2718
  185MOL     C122449   5.304   1.493   2.838  0.8386 -0.4330 -0.1218
  185MOL     F222450   5.281   1.360   2.824 -0.0006 -0.0420 -0.1459
  185MOL     F322451   5.239   1.544   2.945 -0.0784  0.4527 -0.3500
  185MOL     C422452   5.260   1.558   2.708  0.3393 -0.3183  0.2497
  185MOL     H522453   5.153   1.545   2.690 -0.0447  1.6071  1.0631
  185MOL     H622454   5.300   1.508   2.620  1.0300 -0.8682  0.8726
  185MOL     H722455   5.411   1.503   2.858  0.6017  0.0194  0.9744
  185MOL     C822456   5.298   1.713   2.696  0.1160 -0.1897 -0.4444
  185MOL     F922457   5.248   1.766   2.803  0.0237  0.0161 -0.4498
  185MOL    F1022458   5.423   1.731   2.699 -0.5663  0.1533 -0.1450
  185MOL    C1122459   5.231   1.780   2.568 -0.9339  0.9462  0.0218
  185MOL    H1222460   5.123   1.772   2.579 -0.9973  0.7175 -0.7269
  185MOL    H1322461   5.264   1.709   2.492  2.7646 -0.5972  2.9233
  185MOL    C1422462   5.267   1.928   2.548 -0.5004 -0.1175  0.2250
  185MOL    F1522463   5.399   1.945   2.539  0.1231  0.5231 -0.3935
  185MOL    F1622464   5.212   1.958   2.428 -0.3843 -0.1973 -0.3066
  185MOL    C1722465   5.204   2.028   2.654  0.0547  0.4580 -0.1512
  185MOL    H1822466   5.253   2.006   2.749  0.6999  1.0727 -0.3350
  185MOL    H1922467   5.097   2.012   2.658  0.0922 -0.0371 -0.9660
  185MOL    C2022468   5.214   2.177   2.612  0.5158  0.5030 -0.2606
  185MOL    F2122469   5.342   2.206   2.596 -0.5474  0.5028  0.0460
  185MOL    F2222470   5.160   2.192   2.491 -0.0159  0.0206 -0.0894
  185MOL    C2322471   5.141   2.267   2.709  0.1519  0.1089 -0.4072
  185MOL    H2422472   5.165   2.240   2.812 -2.5299 -1.6718 -0.2008
  185MOL    H2522473   5.039   2.228   2.700  0.9391 -1.9647 -0.6395
  185MOL    C2622474   5.147   2.421   2.674  0.4357 -0.5025 -0.3679
  185MOL    F2722475   5.267   2.439   2.627 -0.6008  0.1443  0.2990
  185MOL    F2822476   5.061   2.448   2.576 -0.0409 -0.5007 -0.0956
  185MOL    C2922477   5.127   2.516   2.794  0.2371  0.1497 -0.2314
  185MOL    H3022478   5.198   2.494   2.874  0.0893 -0.6444 -0.3179
  185MOL    H3122479   5.030   2.509   2.842 -0.2667 -2.9635 -1.5951
  185MOL    C3222480   5.153   2.660   2.760 -0.6780  0.6315  0.2329
  185MOL    F3322481   5.071   2.698   2.663 -0.5627 -0.3464  0.0360
  185MOL    F3422482   5.125   2.733   2.862 -0.1933 -0.3601 -0.1947
  185MOL    C3522483   5.301   2.686   2.722  0.4080  0.3818 -0.7758
  185MOL    H3622484   5.326   2.670   2.618  2.2317  2.4861 -0.6878
  185MOL    H3722485   5.352   2.606   2.775  0.6677  0.6317 -0.6462
  185MOL    C3822486   5.373   2.809   2.776 -0.1632 -0.3447  0.1966
  185MOL    F3922487   5.368   2.804   2.908 -0.0419 -0.1172 -0.3762
  185MOL    F4022488   5.500   2.790   2.741 -0.1917  0.1103 -0.0254
  185MOL    C4122489   5.305   2.939   2.728  0.6498  0.7226 -0.6539
  185MOL    H4222490   5.200   2.918   2.708  0.4850 -0.0521  0.9792
  185MOL    H4322491   5.343   2.958   2.627 -1.7277  0.6781 -1.5970
  185MOL    C4422492   5.317   3.063   2.818  0.1258 -0.2760  0.1954
  185MOL    F4522493   5.448   3.084   2.838  0.2785  0.0496 -0.1620
  185MOL    F4622494   5.262   3.156   2.738 -0.0322 -0.1975  0.2449
  185MOL    C4722495   5.230   3.051   2.941  0.3839  0.1596  0.5791
  185MOL    H4822496   5.251   2.968   3.008  0.1936 -0.9582 -0.7477
  185MOL    H4922497   5.128   3.042   2.906  1.2183  0.1339 -1.9726
  185MOL    C5022498   5.249   3.177   3.030 -0.2109 -0.0535  0.1536
  185MOL    F5122499   5.377   3.194   3.064  0.1985 -0.3681 -0.6086
  185MOL    F5222500   5.216   3.294   2.966  0.3757 -0.0970  0.6893
  185MOL    C5322501   5.162   3.172   3.160 -0.1752 -0.4889  0.1913
  185MOL    H5422502   5.200   3.229   3.245 -1.1117 -2.1963  1.8242
  185MOL    H5522503   5.176   3.071   3.200  1.5526  0.0445  0.9554
  185MOL    C5622504   5.015   3.197   3.142  0.3832 -0.6637 -0.7637
  185MOL    F5722505   4.990   3.321   3.094 -0.3353 -0.2360 -0.0787
  185MOL    F5822506   4.961   3.107   3.061  0.7428  0.2332  0.0694
  185MOL    C5922507   4.929   3.176   3.271  0.4802 -0.5068 -0.6766
  185MOL    H6022508   4.947   3.075   3.308 -1.5624 -0.0637  1.6714
  185MOL    H6122509   4.823   3.191   3.253  0.0698 -1.0628  1.2021
  185MOL    C6222510   4.973   3.259   3.393 -0.0386  0.0506  0.3193
  185MOL    F6322511   5.093   3.238   3.436  0.5218  0.1480 -0.2150
  185MOL    F6422512   4.968   3.387   3.367  1.1002  0.0786  0.9202
  185MOL    C6522513   4.879   3.228   3.519 -0.7734  0.0669  0.0727
  185MOL    H6622514   4.892   3.121   3.535 -1.3179 -0.1970 -1.1489
  185MOL    H6722515   4.773   3.248   3.506 -0.8672  1.0788  2.2568
  185MOL    C6822516   4.921   3.295   3.649 -0.0884 -0.0727  0.0944
  185MOL    F6922517   5.033   3.240   3.691 -0.0082 -0.1660  0.0004
  185MOL    F7022518   4.940   3.427   3.630 -0.6583  0.1941  0.3437
  185MOL    C7122519   4.814   3.282   3.770  0.1106 -0.2118  0.5994
  185MOL    H7222520   4.800   3.175   3.786 -2.8908  0.1649  0.8125
  185MOL    H7322521   4.715   3.306   3.731  0.2088 -1.5102 -0.4537
  185MOL    C7422522   4.861   3.349   3.899  0.6012 -0.4966  0.0334
  185MOL    F7522523   4.775   3.306   3.990  0.0953  0.1841 -0.2176
  185MOL    F7622524   4.979   3.302   3.939 -0.1705  0.5519  0.1721
  185MOL    C7722525   4.870   3.502   3.895  0.8399 -0.8438 -0.3855
  185MOL    H7822526   4.935   3.543   3.818 -1.2755  0.8498 -1.3107
  185MOL    H7922527   4.923   3.543   3.980  0.2876 -1.4355  0.2521
  185MOL    C8022528   4.735   3.583   3.878 -0.0881  0.1086 -0.0953
  185MOL    F8122529   4.672   3.555   3.764 -0.1438 -0.0463 -0.2087
  185MOL    F8222530   4.650   3.539   3.973  0.0819 -0.3086 -0.2340
  185MOL    C8322531   4.756   3.735   3.893  0.5316 -0.5479  0.7777
  185MOL    H8422532   4.840   3.750   3.825 -1.3760  0.8941 -1.3365
  185MOL    H8522533   4.794   3.761   3.992  0.6264  0.6967  0.4271
  185MOL    C8622534   4.646   3.825   3.830  0.4556 -0.0787  0.0393
  185MOL    F8722535   4.695   3.942   3.847  0.2931 -0.1421  0.2212
  185MOL    F8822536   4.621   3.795   3.704 -0.1705  0.0264  0.1843
  185MOL    C8922537   4.513   3.800   3.907 -0.0356 -0.3409  0.6739
  185MOL    H9022538   4.526   3.807   4.015  1.9097  1.5697  0.3572
  185MOL    H9122539   4.481   3.698   3.886  1.0012 -0.5849  0.2483
  185MOL    C9222540   4.406   3.904   3.872 -0.4272  0.0439 -0.2247
  185MOL    F9322541   4.439   4.009   3.955 -0.1514 -0.7473  0.1426
  185MOL    F9422542   4.415   3.935   3.743 -0.3493  0.4888 -0.0267
  185MOL    C9522543   4.263   3.848   3.894 -0.0417 -0.3056 -0.1490
  185MOL    H9622544   4.241   3.833   4.000  1.7896 -1.5519  0.0724
  185MOL    H9722545   4.258   3.751   3.846 -0.5337 -0.6312  0.5427
  185MOL    C9822546   4.143   3.938   3.850 -0.2789  0.5174  0.3203
  185MOL    F9922547   4.165   3.960   3.719  0.4860  0.4091 -0.0228
  185MOL   F10022548   4.033   3.861   3.866 -0.2732  0.1673 -0.0101
  185MOL   C10122549   4.140   4.070   3.932 -0.5255  0.1300 -0.4401
  185MOL   H10222550   4.219   4.143   3.913 -0.5355  1.1508  3.0656
  185MOL   H10322551   4.132   4.042   4.037 -3.6586  0.1064 -0.6638
  185MOL   C10422552   4.004   4.140   3.890 -0.7132 -0.3427 -0.3410
  185MOL   F10522553   3.989   4.150   3.756  0.2084 -0.5488  0.0224
  185MOL   F10622554   3.903   4.074   3.936  0.2521 -0.1835 -0.3720
  185MOL   C10722555   3.997   4.288   3.941  0.2928  0.1499  0.0666
  185MOL   H10822556   4.089   4.342   3.920  0.8974 -1.0275 -0.3877
  185MOL   H10922557   3.992   4.279   4.049  1.6989  2.5037  0.3562
  185MOL   C11022558   3.882   4.376   3.900 -0.2167 -1.0868 -0.0054
  185MOL   F11122559   3.888   4.401   3.777  0.0175 -0.2786  0.3713
  185MOL   F11222560   3.773   4.311   3.929  0.0144  0.0606 -0.0168
  185MOL   C11322561   3.865   4.503   3.985  0.1372 -0.2721  0.3697
  185MOL   H11422562   3.779   4.564   3.954  0.7775  1.3645  1.7110
  185MOL   H11522563   3.944   4.572   3.957 -1.2300  1.8330  1.5196
  185MOL   C11622564   3.862   4.480   4.128  0.8199 -0.3721 -0.0728
  185MOL   F11722565   3.773   4.387   4.176 -0.2059  0.1412  0.1450
  185MOL   F11822566   3.984   4.458   4.188  0.5581  0.2784  0.2121
  185MOL   C11922567   3.827   4.603   4.211 -0.7130  0.4236  0.2585
  185MOL   H12022568   3.740   4.659   4.175 -1.3176  0.6001  1.9696
  185MOL   H12122569   3.909   4.672   4.229  0.1275 -0.9743  1.9421
  185MOL   H12222570   3.805   4.569   4.312 -3.5189  1.2189 -0.0356
  186MOL     C122571   7.500   1.830   7.617  0.2455  0.0760  0.6376
  186MOL     F222572   7.429   1.923   7.546 -0.4969 -0.1521 -0.1996
  186MOL     F322573   7.516   1.719   7.548  0.0978  0.0055 -0.3693
  186MOL     C422574   7.406   1.793   7.739 -0.3476 -0.1031  0.4250
  186MOL     H522575   7.447   1.710   7.798 -0.6047 -0.3112  0.3115
  186MOL     H622576   7.313   1.749   7.705  0.6271 -0.6671 -1.6180
  186MOL     H722577   7.594   1.885   7.624 -0.2283  1.0606 -0.4395
  186MOL     C822578   7.367   1.916   7.829 -0.2194  0.0777  0.6443
  186MOL     F922579   7.478   1.989   7.867 -0.1803  0.4295  0.0099
  186MOL    F1022580   7.308   2.000   7.747 -0.2480 -0.0543 -0.1972
  186MOL    C1122581   7.281   1.885   7.952 -0.5445 -0.7522  0.1082
  186MOL    H1222582   7.261   1.979   8.002 -2.8073 -0.7353 -0.7535
  186MOL    H1322583   7.346   1.834   8.024 -0.3249 -0.1435  0.3427
  186MOL    C1422584   7.152   1.798   7.930 -0.1724  0.2283 -0.3272
  186MOL    F1522585   7.067   1.857   7.843  0.3762 -0.1251  0.6757
  186MOL    F1622586   7.202   1.684   7.879 -0.4048 -0.0051  0.7121
  186MOL    C1722587   7.083   1.758   8.061 -0.4296 -0.0618 -0.1055
  186MOL    H1822588   7.073   1.846   8.124 -0.0129 -1.8525  2.5120
  186MOL    H1922589   7.152   1.683   8.100  0.9446  0.5558 -1.2951
  186MOL    C2022590   6.940   1.702   8.048 -0.4476  0.6063  0.2482
  186MOL    F2122591   6.857   1.806   8.013 -0.1708  0.0236 -0.4396
  186MOL    F2222592   6.947   1.612   7.949  0.0706 -0.0175  0.1662
  186MOL    C2322593   6.881   1.624   8.167 -0.1358  0.4282 -0.1932
  186MOL    H2422594   6.896   1.685   8.256 -0.4454 -0.1437  0.2532
  186MOL    H2522595   6.939   1.532   8.181 -3.2875 -1.4768  0.9547
  186MOL    C2622596   6.735   1.581   8.161  0.1328 -0.2567  0.5502
  186MOL    F2722597   6.666   1.699   8.174 -0.0795  0.5783  0.1437
  186MOL    F2822598   6.713   1.527   8.042 -0.2817 -0.5460 -0.0675
  186MOL    C2922599   6.687   1.476   8.268  0.7199 -0.6906  0.1445
  186MOL    H3022600   6.748   1.391   8.238  1.8642 -0.3427  1.4479
  186MOL    H3122601   6.583   1.462   8.239  0.1106  1.3269  1.2617
  186MOL    C3222602   6.701   1.516   0.070  0.4141 -0.0897 -0.2045
  186MOL    F3322603   6.828   1.557   0.093  0.1321 -0.1236 -0.0327
  186MOL    F3422604   6.621   1.622   0.096 -0.3214  0.2898  0.0477
  186MOL    C3522605   6.679   1.403   0.168 -1.2509 -0.4303 -0.1311
  186MOL    H3622606   6.582   1.362   0.138 -1.4035  0.6050 -1.0899
  186MOL    H3722607   6.673   1.445   0.268 -0.3309  0.4190 -0.4233
  186MOL    C3822608   6.786   1.289   0.167 -0.0327  0.1972  0.7364
  186MOL    F3922609   6.769   1.234   0.047  0.4586 -0.3939 -0.2862
  186MOL    F4022610   6.908   1.334   0.179  0.2985  0.3168 -0.3159
  186MOL    C4122611   6.746   1.183   0.269  0.7052 -0.1281  0.3587
  186MOL    H4222612   6.643   1.157   0.247 -0.5127  2.6161  2.5321
  186MOL    H4322613   6.750   1.233   0.366 -0.0429  0.0770  0.2843
  186MOL    C4422614   6.824   1.050   0.264  0.3698 -0.3991  0.1257
  186MOL    F4522615   6.771   0.977   0.360  0.1445  0.2912 -0.2472
  186MOL    F4622616   6.804   0.986   0.151 -0.0994  0.9176 -0.1541
  186MOL    C4722617   6.973   1.065   0.272 -0.0014  0.0584 -0.3282
  186MOL    H4822618   7.008   1.143   0.339  0.3717 -0.5289  0.1693
  186MOL    H4922619   7.010   1.103   0.176  2.5922 -0.7141  0.3320
  186MOL    C5022620   7.059   0.937   0.318 -0.3777  0.2565  0.4914
  186MOL    F5122621   7.179   0.976   0.296  0.1791 -0.8768  0.0847
  186MOL    F5222622   7.047   0.924   0.445  0.0187  0.5672  0.6787
  186MOL    C5322623   7.016   0.812   0.255  0.5556  0.5806 -0.1146
  186MOL    H5422624   7.006   0.830   0.148 -2.5039 -1.7854 -0.2921
  186MOL    H5522625   6.918   0.785   0.293 -0.1495  1.2674 -1.4561
  186MOL    C5622626   7.110   0.688   0.291 -0.0788 -0.5079  0.5384
  186MOL    F5722627   7.229   0.710   0.232  0.0593  0.7496  0.3819
  186MOL    F5822628   7.135   0.672   0.419  0.2768 -0.0647 -0.7196
  186MOL    C5922629   7.035   0.562   0.236  0.1506  0.2818  0.5839
  186MOL    H6022630   7.033   0.577   0.128 -0.4552  0.0363  0.5605
  186MOL    H6122631   6.933   0.563   0.275  0.5551  2.4183  1.7048
  186MOL    C6222632   7.098   0.420   0.274  0.0830 -0.1538  0.3778
  186MOL    F6322633   7.115   0.406   0.404  0.2640 -0.4035 -0.6511
  186MOL    F6422634   7.013   0.327   0.236 -0.3072  0.4766 -0.3351
  186MOL    C6522635   7.240   0.399   0.204  0.4212  0.5118  0.7285
  186MOL    H6622636   7.296   0.321   0.255 -1.3284 -0.5133  1.1334
  186MOL    H6722637   7.295   0.494   0.202 -0.9576  1.3073 -2.0334
  186MOL    C6822638   7.233   0.367   0.053  0.3980 -1.0200  0.0919
  186MOL    F6922639   7.158   0.258   0.041 -0.1572  0.0113 -0.0739
  186MOL    F7022640   7.170   0.462   8.333  0.4227  0.2226  0.3853
  186MOL    C7122641   7.364   0.352   8.326 -0.1932  0.9882  0.4271
  186MOL    H7222642   7.406   0.450   8.304 -0.9006  1.3382  0.6386
  186MOL    H7322643   7.339   0.312   8.228  2.1956  0.7023 -0.1124
  186MOL    C7422644   7.459   0.256   0.042 -0.2795 -0.3654  0.3896
  186MOL    F7522645   7.509   0.309   0.158  0.0927 -0.1376 -0.4581
  186MOL    F7622646   7.394   0.142   0.067 -0.4125 -0.1661  0.4521
  186MOL    C7722647   7.582   0.205   8.311 -0.4514 -0.5049  0.8518
  186MOL    H7822648   7.535   0.165   8.221  0.9116  0.2279 -0.2133
  186MOL    H7922649   7.629   0.130   0.024 -0.0720  0.1943  1.4180
  186MOL    C8022650   7.692   0.302   8.262  0.1916 -0.4472  0.8551
  186MOL    F8122651   7.632   0.406   8.195 -0.1939 -0.3488 -0.1713
  186MOL    F8222652   7.755   0.357   0.022 -0.0115  0.0006  0.0725
  186MOL    C8322653   7.789   0.241   8.165 -0.0706  0.1255  0.0694
  186MOL    H8422654   7.745   0.180   8.087  3.9250  0.7724 -2.8406
  186MOL    H8522655   7.849   0.172   8.224  1.8216  0.6678 -1.1726
  186MOL    C8622656   7.878   0.338   8.081 -0.0194 -0.6180 -0.2241
  186MOL    F8722657   7.948   0.276   7.988  0.0347 -0.6281 -0.7941
  186MOL    F8822658   7.789   0.415   8.021 -0.7757 -0.5843 -0.2262
  186MOL    C8922659   7.977   0.421   8.166  0.0232 -1.0549 -0.1543
  186MOL    H9022660   7.929   0.470   8.250  0.0017  1.8084 -1.7722
  186MOL    H9122661   8.029   0.498   8.109  0.4773  0.1352  1.8566
  186MOL    C9222662   8.095   0.352   8.229  0.8731 -0.4104  0.1139
  186MOL    F9322663   8.057   0.259   8.323  0.5217 -0.0479  0.1792
  186MOL    F9422664   8.166   0.295   8.129  0.3014 -0.6035  0.2100
  186MOL    C9522665   8.177   0.451   8.308 -0.5263  0.6162  0.1813
  186MOL    H9622666   8.228   0.515   8.236  0.0503  0.3075  0.3195
  186MOL    H9722667   8.256   0.409   0.020 -0.3739  1.4084  0.5370
  186MOL    C9822668   8.101   0.534   0.057  0.8767 -0.2793  0.8892
  186MOL    F9922669   8.044   0.642   0.000  0.4261  0.3829 -0.0761
  186MOL   F10022670   8.007   0.466   0.117 -0.0364  0.2443 -0.7319
  186MOL   C10122671   8.175   0.591   0.178  0.2629 -0.1863  0.5915
  186MOL   H10222672   8.212   0.509   0.240  1.0959 -0.7153 -0.5927
  186MOL   H10322673   8.097   0.643   0.234  0.5495  1.6874 -0.7054
  186MOL   C10422674   8.278   0.704   0.158 -0.7292  0.0844  0.1556
  186MOL   F10522675   0.019   0.675   0.070 -0.2400  0.0733  0.1533
  186MOL   F10622676   8.210   0.810   0.102  0.2411  0.3488 -0.6524
  186MOL   C10722677   8.340   0.749   0.292 -0.6258  0.2074 -0.0539
  186MOL   H10822678   0.053   0.669   0.330 -0.6458 -0.0363 -0.5324
  186MOL   H10922679   8.259   0.751   0.365  1.7729 -0.2271  2.7433
  186MOL   C11022680   0.071   0.888   0.292 -0.1562  0.0276 -0.4126
  186MOL   F11122681   0.170   0.890   0.384 -0.3971 -0.4194 -0.0713
  186MOL   F11222682   0.125   0.906   0.170 -0.5732 -0.1682  0.1381
  186MOL   C11322683   8.342   1.017   0.307  0.6785  0.0807  0.1473
  186MOL   H11422684   8.271   1.014   0.389  1.2870  1.8744  0.7641
  186MOL   H11522685   8.280   1.024   0.218  0.5240 -0.8572  0.1767
  186MOL   C11622686   0.065   1.152   0.320 -0.8198  0.8366 -0.9118
  186MOL   F11722687   0.134   1.141   0.434  0.4463 -0.0649  0.0062
  186MOL   F11822688   0.145   1.170   0.217 -0.1515 -0.3487  0.0771
  186MOL   C11922689   8.321   1.272   0.327 -0.0555 -0.3018  1.3409
  186MOL   H12022690   8.264   1.255   0.418  0.7960  0.4327  2.0217
  186MOL   H12122691   8.253   1.274   0.241  2.4771 -0.5962 -0.7216
  186MOL   H12222692   0.026   1.365   0.344  0.7330 -0.1202 -1.7985
  187MOL     C122693   2.211   1.853   6.761  0.0578 -0.1681  0.3322
  187MOL     F222694   2.094   1.804   6.790  0.5871 -1.1656 -0.1227
  187MOL     F322695   2.217   1.974   6.806 -0.0046  0.0886 -0.3167
  187MOL     C422696   2.239   1.850   6.612  0.0833 -0.4156 -0.1494
  187MOL     H522697   2.342   1.886   6.609  0.1442 -0.6245 -0.6152
  187MOL     H622698   2.186   1.923   6.550 -0.6993 -0.9173 -0.0749
  187MOL     H722699   2.285   1.801   6.822 -0.5363  0.4064  1.5451
  187MOL     C822700   2.234   1.709   6.552 -1.3031  0.4962 -0.3669
  187MOL     F922701   2.307   1.630   6.633  0.1459  0.0048 -0.5716
  187MOL    F1022702   2.107   1.668   6.545  0.0464 -0.5544 -0.2863
  187MOL    C1122703   2.309   1.712   6.414  0.3382 -0.4832  0.4351
  187MOL    H1222704   2.409   1.749   6.437  1.4533 -1.7023 -2.2184
  187MOL    H1322705   2.261   1.790   6.356 -0.3043 -0.1855  1.3613
  187MOL    C1422706   2.307   1.579   6.342 -0.2551 -0.1389  0.1332
  187MOL    F1522707   2.367   1.482   6.405  0.2727  0.4409  0.1209
  187MOL    F1622708   2.180   1.544   6.340 -0.6421 -0.3019  0.2682
  187MOL    C1722709   2.362   1.582   6.201  0.0275 -0.4892  0.7380
  187MOL    H1822710   2.294   1.647   6.146  0.2378  1.1107  2.3266
  187MOL    H1922711   2.350   1.479   6.166 -0.0069 -0.0720 -0.5192
  187MOL    C2022712   2.508   1.636   6.190  0.1246 -0.2313 -0.1583
  187MOL    F2122713   2.538   1.640   6.063 -0.4731  0.0484  0.0914
  187MOL    F2222714   2.511   1.764   6.230 -0.2129  0.3422  0.0630
  187MOL    C2322715   2.623   1.560   6.263 -0.4220  0.4315  0.0903
  187MOL    H2422716   2.610   1.557   6.372 -1.0510 -0.7710 -0.0075
  187MOL    H2522717   2.715   1.615   6.246 -0.2225 -0.3636 -1.4467
  187MOL    C2622718   2.641   1.414   6.224  0.2678 -0.0736  0.3656
  187MOL    F2722719   2.531   1.347   6.249  0.1685  0.0652  0.8600
  187MOL    F2822720   2.655   1.407   6.087 -0.0620 -0.0234 -0.1919
  187MOL    C2922721   2.766   1.342   6.290 -1.0845 -0.0481 -0.4738
  187MOL    H3022722   2.777   1.356   6.397  3.2488 -0.6789 -0.7390
  187MOL    H3122723   2.856   1.392   6.257 -1.8876  1.1795 -0.8371
  187MOL    C3222724   2.796   1.194   6.273  0.9737 -0.1899 -0.1397
  187MOL    F3322725   2.810   1.171   6.137 -0.6707 -0.4232 -0.4300
  187MOL    F3422726   2.914   1.172   6.329  0.3747  0.1135  0.0525
  187MOL    C3522727   2.699   1.099   6.324 -0.4269 -0.3396  0.1218
  187MOL    H3622728   2.611   1.101   6.260 -1.1627  0.6781  1.1456
  187MOL    H3722729   2.671   1.126   6.426  0.1590  2.2614 -0.3704
  187MOL    C3822730   2.744   0.954   6.341  0.2104  0.6232 -0.2673
  187MOL    F3922731   2.827   0.956   6.443  0.2237 -0.0602  0.0460
  187MOL    F4022732   2.643   0.876   6.386  0.4426 -0.6993  0.3685
  187MOL    C4122733   2.803   0.881   6.220  0.4389 -0.4641 -0.0360
  187MOL    H4222734   2.859   0.793   6.250  1.6280  0.2178 -0.2353
  187MOL    H4322735   2.873   0.944   6.166  0.4735  1.1694  1.8361
  187MOL    C4422736   2.704   0.848   6.108  0.2761 -0.0769  0.2581
  187MOL    F4522737   2.631   0.752   6.171  0.2870  0.4012  0.1965
  187MOL    F4622738   2.634   0.953   6.067 -0.0600  0.2720 -0.1885
  187MOL    C4722739   2.791   0.790   5.994 -0.5255  0.5935  0.3787
  187MOL    H4822740   2.838   0.703   6.039 -1.6124  0.4978  1.3585
  187MOL    H4922741   2.863   0.861   5.953 -0.8939  0.2599 -0.8801
  187MOL    C5022742   2.711   0.755   5.865 -0.1789 -0.7743 -0.2895
  187MOL    F5122743   2.648   0.869   5.837 -0.2647  0.1782 -0.3887
  187MOL    F5222744   2.796   0.729   5.777 -0.6032 -0.3842  0.1834
  187MOL    C5322745   2.603   0.648   5.875 -0.2542 -0.2845 -1.2474
  187MOL    H5422746   2.527   0.658   5.952 -1.6345 -2.5730 -2.2382
  187MOL    H5522747   2.657   0.560   5.909 -0.8396 -0.2676 -0.2687
  187MOL    C5622748   2.538   0.609   5.744 -0.2647  0.3249  0.2630
  187MOL    F5722749   2.627   0.538   5.677  0.2054 -0.5268  0.6179
  187MOL    F5822750   2.434   0.536   5.777 -0.4281  0.0821  0.1310
  187MOL    C5922751   2.473   0.726   5.661 -0.8764 -0.3987 -0.5009
  187MOL    H6022752   2.561   0.784   5.632 -2.8219  1.6005 -2.5740
  187MOL    H6122753   2.420   0.791   5.730  0.1115  0.9291 -0.9716
  187MOL    C6222754   2.395   0.685   5.539  0.2948 -0.5488 -0.5246
  187MOL    F6322755   2.286   0.622   5.576  0.0922 -0.2200  0.1488
  187MOL    F6422756   2.364   0.803   5.481  0.2535  0.1236  0.3485
  187MOL    C6522757   2.483   0.601   5.436 -0.5081  0.2690 -0.6408
  187MOL    H6622758   2.515   0.504   5.474 -1.0548  0.3517  0.0401
  187MOL    H6722759   2.579   0.645   5.410  1.1647 -2.3130  0.8526
  187MOL    C6822760   2.416   0.574   5.305 -0.0144  0.4451  0.1466
  187MOL    F6922761   2.300   0.519   5.332  0.4570 -0.3532  0.0710
  187MOL    F7022762   2.393   0.687   5.243 -0.0395 -0.0050 -0.7263
  187MOL    C7122763   2.497   0.484   5.207  0.3886 -0.4213 -0.5245
  187MOL    H7222764   2.587   0.542   5.187  2.4658 -3.4586 -0.3245
  187MOL    H7322765   2.423   0.468   5.129  0.9332 -0.5729 -1.0083
  187MOL    C7422766   2.540   0.344   5.264 -0.2130 -0.4752  0.3659
  187MOL    F7522767   2.637   0.356   5.349  0.4261  0.3345  0.0374
  187MOL    F7622768   2.438   0.283   5.322  0.4802 -0.4372 -0.3843
  187MOL    C7722769   2.585   0.245   5.150  0.0386 -0.1232 -0.6862
  187MOL    H7822770   2.612   0.154   5.203 -0.9488 -0.8778 -1.4599
  187MOL    H7922771   2.676   0.290   5.110 -0.0602 -0.2829 -1.0888
  187MOL    C8022772   2.492   0.210   5.030  0.7262  0.3383  0.4645
  187MOL    F8122773   2.372   0.183   5.078  0.2036 -0.4067 -0.1572
  187MOL    F8222774   2.477   0.311   4.943 -0.4873  0.7062 -0.2492
  187MOL    C8322775   2.538   0.088   4.948 -0.2423  0.5569  0.6985
  187MOL    H8422776   2.554   0.007   5.019  0.4700  0.2337  0.1749
  187MOL    H8522777   2.634   0.118   4.906 -0.1597  1.3168  1.4135
  187MOL    C8622778   2.445   0.041   4.838  0.3348  0.4369  0.1841
  187MOL    F8722779   2.516   8.285   4.786 -0.2563  0.0377 -0.1094
  187MOL    F8822780   2.332   8.336   4.892 -0.1839  0.3804  0.0497
  187MOL    C8922781   2.408   0.146   4.725 -0.0723 -0.6028  0.1677
  187MOL    H9022782   2.496   0.208   4.710 -1.2899  0.9138 -0.7813
  187MOL    H9122783   2.342   0.217   4.775  0.8583  1.4836 -1.4910
  187MOL    C9222784   2.346   0.095   4.591  0.2326 -0.3347  0.1967
  187MOL    F9322785   2.439   0.026   4.519 -0.4352 -0.6428 -0.3957
  187MOL    F9422786   2.251   0.003   4.614 -0.1314  0.1045  0.7091
  187MOL    C9522787   2.289   0.210   4.499  0.3450  0.4963 -0.2597
  187MOL    H9622788   2.211   0.259   4.558  0.3411 -0.0209  0.1631
  187MOL    H9722789   2.243   0.156   4.416 -0.3407  0.7688 -0.0633
  187MOL    C9822790   2.396   0.312   4.460 -0.4435  0.2577 -0.0599
  187MOL    F9922791   2.441   0.374   4.566  0.0878 -0.2732 -0.1856
  187MOL   F10022792   2.494   0.243   4.404 -0.8368  0.9124 -0.6560
  187MOL   C10122793   2.337   0.408   4.358 -0.1375 -0.3191 -0.4439
  187MOL   H10222794   2.253   0.457   4.406  1.8108  0.4258  2.3229
  187MOL   H10322795   2.314   0.349   4.269  1.7832 -0.2185 -1.0297
  187MOL   C10422796   2.425   0.517   4.305  0.1288 -0.3385 -0.1576
  187MOL   F10522797   2.473   0.579   4.410  0.1663 -0.2940  0.0192
  187MOL   F10622798   2.516   0.459   4.225  0.5915  0.0588 -0.2465
  187MOL   C10722799   2.351   0.634   4.226  0.1368  0.1525  0.2331
  187MOL   H10822800   2.259   0.671   4.271  0.8125  2.6237 -0.3079
  187MOL   H10922801   2.319   0.596   4.129 -0.9875 -0.0042  0.6507
  187MOL   C11022802   2.451   0.755   4.188 -0.2335  0.1727  0.5976
  187MOL   F11122803   2.493   0.827   4.293  0.2326 -0.1419  0.1729
  187MOL   F11222804   2.572   0.712   4.131 -0.0193  0.4004 -0.0725
  187MOL   C11322805   2.396   0.855   4.083 -0.3255 -0.5388 -0.0966
  187MOL   H11422806   2.381   0.797   3.991  1.4432 -2.8949  1.0578
  187MOL   H11522807   2.467   0.936   4.065 -0.4339 -0.7007 -1.2782
  187MOL   C11622808   2.252   0.918   4.112 -1.1950 -0.1003  0.5157
  187MOL   F11722809   2.228   1.014   4.017 -0.4236 -0.1441 -0.6850
  187MOL   F11822810   2.163   0.822   4.096 -0.1904 -0.6991  0.0380
  187MOL   C11922811   2.224   0.972   4.252 -0.3362 -0.2472  0.8114
  187MOL   H12022812   2.121   1.005   4.266 -1.2803 -1.5363 -2.5555
  187MOL   H12122813   2.277   1.068   4.250 -1.2853  0.2589 -0.9538
  187MOL   H12222814   2.254   0.905   4.332  1.0713 -3.6305 -2.4340
  188MOL     C122815   6.447   3.558   1.944  1.1217 -0.4354 -0.5186
  188MOL     F222816   6.524   3.452   1.929 -0.1466  0.0225  0.0456
  188MOL     F322817   6.355   3.567   1.847 -0.5932  0.0115  0.1400
  188MOL     C422818   6.534   3.686   1.955  0.3610  0.2990 -0.1404
  188MOL     H522819   6.454   3.760   1.953 -0.7824 -0.7891  2.6751
  188MOL     H622820   6.593   3.677   1.864  0.2254 -2.5664  0.0342
  188MOL     H722821   6.387   3.532   2.032  0.2232 -0.7559 -1.2246
  188MOL     C822822   6.617   3.694   2.092  0.4258  0.1182  0.2664
  188MOL     F922823   6.530   3.674   2.194 -0.2487  0.2165 -0.2955
  188MOL    F1022824   6.715   3.600   2.090  0.0325  0.3945 -0.8315
  188MOL    C1122825   6.689   3.831   2.111  0.1096 -0.2197  0.3137
  188MOL    H1222826   6.733   3.854   2.014 -0.0040  2.7196  0.9185
  188MOL    H1322827   6.772   3.823   2.182  0.4251 -0.6096 -0.0969
  188MOL    C1422828   6.598   3.949   2.148  0.5577 -0.1337  0.8343
  188MOL    F1522829   6.501   3.957   2.058  0.0742  0.0152 -0.2138
  188MOL    F1622830   6.545   3.924   2.265 -0.5056 -0.0989 -0.1301
  188MOL    C1722831   6.682   4.077   2.160  0.3888 -0.6545 -0.0978
  188MOL    H1822832   6.725   4.103   2.063 -0.6984  3.0860  0.3510
  188MOL    H1922833   6.770   4.045   2.216  0.3831 -0.3320  0.0955
  188MOL    C2022834   6.608   4.207   2.215 -0.2452  0.6462 -0.0676
  188MOL    F2122835   6.570   4.191   2.344 -0.0005  0.0098 -0.8313
  188MOL    F2222836   6.702   4.296   2.221  0.1620 -0.5159  0.4519
  188MOL    C2322837   6.483   4.260   2.154  0.7602  0.8713  0.4912
  188MOL    H2422838   6.443   4.339   2.218 -0.7161 -0.9022  1.7923
  188MOL    H2522839   6.416   4.174   2.160  1.2889  0.2425 -2.0105
  188MOL    C2622840   6.500   4.304   2.010 -0.0011 -0.8698  0.4010
  188MOL    F2722841   6.546   4.200   1.936  0.2503 -0.2815  0.5378
  188MOL    F2822842   6.379   4.334   1.960 -0.4116  0.3357  0.2908
  188MOL    C2922843   6.588   4.424   1.982 -0.2061  0.4761 -0.0832
  188MOL    H3022844   6.570   4.433   1.875 -2.6311  2.0356  0.4093
  188MOL    H3122845   6.693   4.398   1.994 -0.5141 -0.6366  0.3036
  188MOL    C3222846   6.565   4.556   2.048  0.2863 -0.5408  0.0808
  188MOL    F3322847   6.569   4.545   2.180 -0.3364  0.3241  0.2453
  188MOL    F3422848   6.660   4.642   2.012 -0.3051  0.1414 -0.2825
  188MOL    C3522849   6.426   4.621   2.020 -0.0496 -0.3699 -0.9508
  188MOL    H3622850   6.351   4.561   2.070  1.4703 -0.6629  1.0028
  188MOL    H3722851   6.403   4.619   1.913 -1.3182  3.9307 -0.8704
  188MOL    C3822852   6.412   4.766   2.076 -0.2718  0.9682 -0.5407
  188MOL    F3922853   6.462   4.770   2.199  0.5338  0.0302 -0.3485
  188MOL    F4022854   6.467   4.855   1.998  0.2202  0.3482  0.5763
  188MOL    C4122855   6.260   4.798   2.098  0.3369  0.1404 -0.1790
  188MOL    H4222856   6.251   4.896   2.144 -2.4257 -0.5732  0.9178
  188MOL    H4322857   6.206   4.719   2.150  0.1160  0.4003 -0.0099
  188MOL    C4422858   6.184   4.823   1.961  0.7257 -0.0887  0.0641
  188MOL    F4522859   6.243   4.916   1.891  0.1083  0.1091  0.1552
  188MOL    F4622860   6.171   4.715   1.890  0.0087  0.0369 -0.2221
  188MOL    C4722861   6.032   4.873   1.977 -0.0757 -0.0182 -0.0119
  188MOL    H4822862   6.043   4.973   2.020 -0.1349 -0.5580  1.2913
  188MOL    H4922863   5.998   4.803   2.053  0.0823  0.0032  0.0778
  188MOL    C5022864   5.929   4.863   1.859 -0.0696 -0.4951 -0.4256
  188MOL    F5122865   5.901   4.740   1.854  0.2329  0.2483 -0.0367
  188MOL    F5222866   5.819   4.936   1.886  0.0610 -0.2903  0.7394
  188MOL    C5322867   5.971   4.905   1.719 -0.2132  0.3860  0.6214
  188MOL    H5422868   6.065   4.857   1.690 -0.0853  1.8929 -1.6106
  188MOL    H5522869   5.986   5.013   1.721 -3.6686  0.9099  1.7244
  188MOL    C5622870   5.865   4.894   1.609  0.1593 -0.5381 -0.1078
  188MOL    F5722871   5.826   4.776   1.604  0.5985 -0.1526 -0.4574
  188MOL    F5822872   5.764   4.979   1.643  0.1280 -0.0634  0.1044
  188MOL    C5922873   5.921   4.930   1.468  0.4008  0.4355 -0.1931
  188MOL    H6022874   6.004   4.861   1.457  0.0672  0.0977 -0.6108
  188MOL    H6122875   5.972   5.025   1.486 -0.0529  0.7383 -0.4720
  188MOL    C6222876   5.820   4.932   1.344 -0.6877  0.2575 -1.3114
  188MOL    F6322877   5.784   4.803   1.329 -0.0157 -0.1410 -0.1771
  188MOL    F6422878   5.709   5.004   1.357 -0.6176  0.1952 -0.2468
  188MOL    C6522879   5.896   4.993   1.219 -0.3293  0.0701  0.0710
  188MOL    H6622880   5.994   4.952   1.195 -0.5155  0.2269 -0.9832
  188MOL    H6722881   5.939   5.090   1.246 -0.3206  0.2168 -0.4563
  188MOL    C6822882   5.820   4.995   1.085 -0.2501 -0.2797  0.5577
  188MOL    F6922883   5.765   4.874   1.064  0.0104  0.3908  0.7647
  188MOL    F7022884   5.716   5.083   1.096  0.2491  0.2730  0.5272
  188MOL    C7122885   5.900   5.032   0.948 -0.0015  0.2717 -0.0791
  188MOL    H7222886   5.904   5.139   0.923 -0.5087  0.1285 -0.7975
  188MOL    H7322887   5.838   4.992   0.868 -1.4781  0.4262  0.9711
  188MOL    C7422888   6.029   4.961   0.933 -0.3463  0.9447 -0.6940
  188MOL    F7522889   6.118   5.026   1.012 -0.1665  0.0126 -0.1562
  188MOL    F7622890   6.033   4.833   0.977  0.1193 -0.1668  0.1024
  188MOL    C7722891   6.072   4.958   0.780  0.2580  0.4016  0.3589
  188MOL    H7822892   6.075   5.061   0.745 -0.7232  0.5260  0.6242
  188MOL    H7922893   6.000   4.915   0.710 -1.7752  1.6827  1.6413
  188MOL    C8022894   6.207   4.880   0.764 -0.5524  0.1793 -0.0194
  188MOL    F8122895   6.305   4.923   0.850  0.4430  0.2256  0.3578
  188MOL    F8222896   6.194   4.747   0.780 -0.3357  0.3644 -0.1935
  188MOL    C8322897   6.256   4.904   0.622  0.6235  0.3107  0.1741
  188MOL    H8422898   6.243   5.005   0.585  0.7284  0.2532 -0.0219
  188MOL    H8522899   6.182   4.849   0.563  0.5962  1.1810 -0.6032
  188MOL    C8622900   6.399   4.855   0.579 -0.0344  0.6804  0.6123
  188MOL    F8722901   6.489   4.947   0.604 -0.4769  0.0288  0.1563
  188MOL    F8822902   6.431   4.747   0.652  0.0772 -0.3416 -0.3871
  188MOL    C8922903   6.392   4.814   0.434  0.0204 -0.0331 -0.3241
  188MOL    H9022904   6.351   4.903   0.387 -0.7051  1.5016  3.1130
  188MOL    H9122905   6.313   4.742   0.411  1.0273 -0.7366 -1.6864
  188MOL    C9222906   6.519   4.761   0.369  0.1256 -0.5631  0.5097
  188MOL    F9322907   6.626   4.828   0.400 -0.2676 -0.3040  0.3035
  188MOL    F9422908   6.545   4.632   0.399 -0.5449 -0.6012 -0.2068
  188MOL    C9522909   6.522   4.766   0.216 -0.7218 -0.0382  0.3459
  188MOL    H9622910   6.621   4.726   0.194 -0.4892  1.3116 -1.2080
  188MOL    H9722911   6.532   4.862   0.166  0.2054 -1.4977 -2.3914
  188MOL    C9822912   6.417   4.678   0.139  0.2364 -0.8595 -0.3210
  188MOL    F9922913   6.458   4.549   0.168 -0.3266  0.2742 -0.4183
  188MOL   F10022914   6.301   4.693   0.190  0.0285  0.0372 -0.0787
  188MOL   C10122915   6.406   4.699   8.340 -0.5786 -0.0517 -1.0565
  188MOL   H10222916   6.508   4.677   8.309 -0.5749  0.9601 -1.7730
  188MOL   H10322917   6.383   4.802   8.311  0.0789  0.5634  0.5065
  188MOL   C10422918   6.307   4.626   8.249 -0.1762  0.4515 -0.9581
  188MOL   F10522919   6.186   4.648   8.297  0.1110 -0.1893  0.2134
  188MOL   F10622920   6.304   4.649   8.117  0.1308  0.0507 -0.4311
  188MOL   C10722921   6.310   4.475   8.262  0.2878  0.6149  0.2528
  188MOL   H10822922   6.222   4.435   8.212  1.1721 -2.4467  1.0637
  188MOL   H10922923   6.277   4.450   0.013  2.3771 -0.2614  0.7332
  188MOL   C11022924   6.440   4.397   8.219 -0.1088  0.5599  0.1161
  188MOL   F11122925   6.458   4.418   8.086  0.7698  0.0366 -0.1788
  188MOL   F11222926   6.546   4.445   8.284 -0.6222 -0.0270 -0.0435
  188MOL   C11322927   6.417   4.245   8.249 -0.2823 -0.8370  0.0512
  188MOL   H11422928   6.345   4.220   8.171  1.0104  2.2685 -2.2149
  188MOL   H11522929   6.364   4.242   8.344  2.0190  2.1946  1.4995
  188MOL   C11622930   6.541   4.157   8.257  0.6462 -1.0724 -0.0272
  188MOL   F11722931   6.604   4.198   0.014  0.0731 -0.1986  0.0846
  188MOL   F11822932   6.501   4.029   8.273  0.4811 -0.4346 -0.1197
  188MOL   C11922933   6.633   4.162   8.128 -0.4493  0.0753 -0.5263
  188MOL   H12022934   6.708   4.082   8.123  1.7776  1.8084  3.3746
  188MOL   H12122935   6.695   4.251   8.129 -0.4323  0.0915  3.1266
  188MOL   H12222936   6.575   4.142   8.037  0.0543 -2.6388 -0.3163
  189MOL     C122937   5.072   4.292   6.812  0.2775 -0.0110 -0.3511
  189MOL     F222938   4.968   4.217   6.778  0.0468 -0.0814 -0.0971
  189MOL     F322939   5.142   4.298   6.695  0.0538 -0.3779  0.3765
  189MOL     C422940   5.150   4.212   6.931  0.0183  0.6564  0.4557
  189MOL     H522941   5.168   4.113   6.891  1.1368  0.8840  0.3775
  189MOL     H622942   5.085   4.207   7.019 -1.8162 -1.0360 -0.9670
  189MOL     H722943   5.039   4.390   6.846  0.3223  0.3439 -1.2949
  189MOL     C822944   5.276   4.291   6.981 -0.4209 -0.2876  0.3549
  189MOL     F922945   5.241   4.407   7.045  0.0933 -0.5523  0.3022
  189MOL    F1022946   5.323   4.203   7.074 -0.2963 -0.2400  0.0548
  189MOL    C1122947   5.390   4.319   6.870  0.1255  0.3151  0.7841
  189MOL    H1222948   5.362   4.390   6.793  0.1203 -0.3307  0.1818
  189MOL    H1322949   5.403   4.222   6.822 -0.1473  1.5510 -1.8911
  189MOL    C1422950   5.523   4.369   6.929 -0.4204 -0.1716  0.0906
  189MOL    F1522951   5.479   4.494   6.966  0.1959  0.1439  0.0196
  189MOL    F1622952   5.558   4.291   7.029 -0.4039 -0.2947 -0.3008
  189MOL    C1722953   5.637   4.372   6.829  0.0896 -0.3821  0.2688
  189MOL    H1822954   5.602   4.427   6.742  0.6947  0.4617  0.5528
  189MOL    H1922955   5.655   4.271   6.790 -0.2646 -0.1933 -0.3964
  189MOL    C2022956   5.775   4.429   6.885  0.0397 -0.2511 -0.2998
  189MOL    F2122957   5.821   4.335   6.970 -0.6397 -0.4560 -0.2905
  189MOL    F2222958   5.863   4.428   6.781  0.7009  0.0101 -1.1220
  189MOL    C2322959   5.772   4.571   6.936  0.0689  0.4612 -0.6123
  189MOL    H2422960   5.727   4.571   7.035  0.7606  0.8901 -0.2900
  189MOL    H2522961   5.718   4.622   6.856  0.0010 -0.7339 -1.3507
  189MOL    C2622962   5.912   4.641   6.961  0.0150  0.6826 -0.3629
  189MOL    F2722963   5.958   4.651   6.839  0.5318 -0.0075  0.3113
  189MOL    F2822964   5.884   4.761   7.018 -0.0352 -0.0456 -0.0524
  189MOL    C2922965   6.012   4.572   7.059  0.3203 -0.1294  0.3414
  189MOL    H3022966   6.042   4.467   7.048  0.8109 -0.0840  1.2327
  189MOL    H3122967   5.966   4.562   7.157  0.4331 -0.5695  0.3505
  189MOL    C3222968   6.154   4.644   7.061 -0.1828  0.3225 -0.0066
  189MOL    F3322969   6.240   4.594   6.973 -0.2157 -0.0184  0.2199
  189MOL    F3422970   6.137   4.773   7.034  0.6880  0.5362  0.1759
  189MOL    C3522971   6.220   4.629   7.199 -0.1159 -0.1817  0.0832
  189MOL    H3622972   6.173   4.693   7.274 -1.6542 -0.5358 -0.5583
  189MOL    H3722973   6.321   4.668   7.192  1.1096 -2.5967  3.1118
  189MOL    C3822974   6.237   4.479   7.238 -0.1793 -0.2366  0.0028
  189MOL    F3922975   6.122   4.445   7.286  0.3273  0.8750 -0.3198
  189MOL    F4022976   6.272   4.398   7.134  0.2537  0.2157 -0.3946
  189MOL    C4122977   6.340   4.444   7.346 -0.1489  0.3437 -0.0063
  189MOL    H4222978   6.341   4.517   7.428  0.1871 -1.4485  1.6045
  189MOL    H4322979   6.437   4.469   7.302  0.0455  1.5232  1.0627
  189MOL    C4422980   6.332   4.316   7.420 -0.0731 -0.2134 -0.5964
  189MOL    F4522981   6.248   4.332   7.520 -0.9202  0.3234  1.1101
  189MOL    F4622982   6.283   4.221   7.343  0.0204 -0.0150  0.3841
  189MOL    C4722983   6.469   4.290   7.480 -0.2225  0.6887 -0.3644
  189MOL    H4822984   6.500   4.381   7.532  1.1815  0.3734 -0.6231
  189MOL    H4922985   6.528   4.269   7.391 -0.5666 -1.0327 -0.1991
  189MOL    C5022986   6.494   4.169   7.574 -0.9996  0.2872 -0.2828
  189MOL    F5122987   6.628   4.183   7.599  0.2904  0.2459  0.0998
  189MOL    F5222988   6.423   4.186   7.684 -0.6459  0.0370  0.3623
  189MOL    C5322989   6.467   4.028   7.516 -0.1534  0.0750  0.4154
  189MOL    H5422990   6.507   4.017   7.415 -1.8993 -1.1646 -0.1752
  189MOL    H5522991   6.359   4.015   7.505 -0.1584  1.0318 -0.7855
  189MOL    C5622992   6.526   3.907   7.597 -0.3211  0.6360  0.6909
  189MOL    F5722993   6.655   3.923   7.616 -0.1169 -0.5136  0.0214
  189MOL    F5822994   6.461   3.907   7.717  0.4585 -0.1014  0.3419
  189MOL    C5922995   6.506   3.762   7.536 -0.2686  0.4986 -0.1061
  189MOL    H6022996   6.555   3.771   7.439  0.0628 -3.0648 -0.3498
  189MOL    H6122997   6.399   3.757   7.515 -0.3393  1.1642  0.0777
  189MOL    C6222998   6.565   3.637   7.607  0.4285  0.0132  0.2316
  189MOL    F6322999   6.533   3.525   7.536  0.0237 -0.0333 -0.1846
  189MOL    F6423000   6.698   3.646   7.601 -0.4442  0.0429 -0.5591
  189MOL    C6523001   6.516   3.621   7.755 -1.1799 -0.1432 -0.5211
  189MOL    H6623002   6.542   3.708   7.815 -0.8784  0.1169 -1.0325
  189MOL    H6723003   6.582   3.540   7.789  0.3617  0.3921 -2.1742
  189MOL    C6823004   6.370   3.583   7.782  0.0792  0.5639 -0.2311
  189MOL    F6923005   6.286   3.643   7.699 -0.0140 -0.1781 -0.1031
  189MOL    F7023006   6.349   3.452   7.766  0.4213 -0.3467  0.3956
  189MOL    C7123007   6.335   3.623   7.935 -0.7559  0.3525  0.1543
  189MOL    H7223008   6.227   3.625   7.949 -0.7806  1.0247 -0.1073
  189MOL    H7323009   6.366   3.723   7.962 -1.0878  0.3595  0.5158
  189MOL    C7423010   6.390   3.516   8.044 -0.1339  0.3618  0.0247
  189MOL    F7523011   6.352   3.390   8.024  0.1581  0.1409 -0.3190
  189MOL    F7623012   6.524   3.515   8.044 -0.3994 -0.0809 -0.3801
  189MOL    C7723013   6.338   3.554   8.185  0.6218 -0.2675 -0.3441
  189MOL    H7823014   6.230   3.564   8.178  0.6917  0.5868 -0.2210
  189MOL    H7923015   6.359   3.659   8.207  0.9176 -0.6070  1.0156
  189MOL    C8023016   6.380   3.462   8.300 -0.1852 -0.6794 -0.0914
  189MOL    F8123017   6.323   3.341   8.298 -0.1358  0.2231 -0.1343
  189MOL    F8223018   6.511   3.440   8.294  0.0925  0.4215  0.2778
  189MOL    C8323019   6.355   3.528   0.091 -0.0782  0.5285 -0.3197
  189MOL    H8423020   6.411   3.622   0.094  2.1543 -0.7629 -0.6004
  189MOL    H8523021   6.400   3.461   0.163  1.0007  0.2290 -1.2536
  189MOL    C8623022   6.205   3.550   0.140 -0.1435  0.3724 -0.1539
  189MOL    F8723023   6.144   3.622   0.049 -0.3505  0.4507 -0.4960
  189MOL    F8823024   6.144   3.431   0.161  0.4370  0.4114 -0.0004
  189MOL    C8923025   6.193   3.629   0.270  0.0872  0.5067 -0.0878
  189MOL    H9023026   6.091   3.664   0.284  0.5764  1.4075  1.3520
  189MOL    H9123027   6.253   3.719   0.260  1.1768 -0.2333 -0.2685
  189MOL    C9223028   6.233   3.570   0.400 -0.2972  0.9594  0.2375
  189MOL    F9323029   6.182   3.447   0.411 -0.3792  0.0263  0.1517
  189MOL    F9423030   6.364   3.565   0.417 -0.4547  0.0456  0.9451
  189MOL    C9523031   6.187   3.664   0.519 -0.2253 -0.2438 -0.0835
  189MOL    H9623032   6.079   3.657   0.522 -0.4105  2.1326 -0.3691
  189MOL    H9723033   6.200   3.770   0.495 -2.5009 -0.1643 -1.0656
  189MOL    C9823034   6.242   3.640   0.659 -0.7401 -0.2179  0.2162
  189MOL    F9923035   6.375   3.642   0.654 -0.1769 -0.4414 -0.0806
  189MOL   F10023036   6.197   3.744   0.733  0.1583  0.0909 -0.4742
  189MOL   C10123037   6.202   3.501   0.711 -0.1064  0.3792 -0.6766
  189MOL   H10223038   6.243   3.429   0.640 -1.4171 -0.2935 -0.7604
  189MOL   H10323039   6.095   3.488   0.693 -0.4074  1.8795  0.0150
  189MOL   C10423040   6.236   3.465   0.858  0.2246  0.0889 -0.2312
  189MOL   F10523041   6.359   3.480   0.883  0.2706  0.0227  0.3277
  189MOL   F10623042   6.178   3.554   0.939 -0.3027 -0.3240 -0.1929
  189MOL   C10723043   6.213   3.319   0.894  0.4133  0.4333  0.5235
  189MOL   H10823044   6.293   3.260   0.850 -1.5930 -1.6219 -0.5289
  189MOL   H10923045   6.118   3.290   0.848  0.1435  1.3591  0.4836
  189MOL   C11023046   6.217   3.290   1.046 -0.2781 -0.9573  0.3522
  189MOL   F11123047   6.319   3.340   1.106  0.6305 -0.1340 -0.5765
  189MOL   F11223048   6.101   3.340   1.094 -0.1541 -0.8876 -0.2383
  189MOL   C11323049   6.221   3.141   1.086 -0.2928  0.4013 -0.4797
  189MOL   H11423050   6.238   3.134   1.193  2.0396  0.1788 -0.8402
  189MOL   H11523051   6.311   3.106   1.035  2.0494  1.1699  2.9769
  189MOL   C11623052   6.105   3.047   1.045 -0.5126  0.4967 -0.2549
  189MOL   F11723053   6.111   3.041   0.910  0.2861 -0.2690  0.0401
  189MOL   F11823054   6.138   2.928   1.086  0.2391  0.1482 -0.2123
  189MOL   C11923055   5.974   3.094   1.095  0.0195  0.5418  0.1755
  189MOL   H12023056   5.983   3.129   1.197  0.4855 -1.3828  0.8264
  189MOL   H12123057   5.895   3.019   1.087 -1.1147  1.7418 -0.1049
  189MOL   H12223058   5.949   3.181   1.034 -0.0687  0.0683 -0.4751
  190MOL     C123059   0.445   2.833   2.883 -0.6996  0.4473 -0.2973
  190MOL     F223060   0.522   2.741   2.948 -0.0001  0.0755  0.0290
  190MOL     F323061   0.370   2.897   2.970 -0.1436  0.1889 -0.3548
  190MOL     C423062   0.362   2.761   2.782 -0.3145  0.3608 -0.3747
  190MOL     H523063   0.308   2.678   2.827  0.3681 -0.1313 -0.4465
  190MOL     H623064   0.432   2.715   2.712 -0.5673  1.3439 -1.2811
  190MOL     H723065   0.488   2.927   2.851 -0.5667  0.2698 -0.6437
  190MOL     C823066   0.274   2.846   2.688  0.4905 -0.2730  0.0241
  190MOL     F923067   0.199   2.926   2.756 -0.7035  0.1683  0.3261
  190MOL    F1023068   0.349   2.926   2.605 -0.3865 -0.6253 -0.0110
  190MOL    C1123069   0.181   2.765   2.589 -0.1327  0.0104  0.3993
  190MOL    H1223070   0.152   2.670   2.633 -1.0556  0.3192  0.4691
  190MOL    H1323071   0.258   2.728   2.521  0.5621  0.0559  1.1571
  190MOL    C1423072   0.077   2.842   2.515  0.0318 -0.5250  0.6135
  190MOL    F1523073   8.328   2.881   2.597  0.0050 -0.0974  0.1092
  190MOL    F1623074   0.134   2.952   2.475 -0.6654  0.4576 -0.1409
  190MOL    C1723075   0.011   2.755   2.410  0.8695  0.0282 -0.1603
  190MOL    H1823076   8.286   2.820   2.364  0.2667  0.3029  1.1928
  190MOL    H1923077   8.306   2.676   2.460  0.6310  1.6465  2.2072
  190MOL    C2023078   0.094   2.703   2.291  0.2564  0.5745 -0.3870
  190MOL    F2123079   0.181   2.787   2.245 -0.0717 -0.0737  0.0259
  190MOL    F2223080   0.163   2.594   2.332 -0.0728  0.1376  0.3793
  190MOL    C2323081   0.014   2.665   2.166 -0.6919 -0.0649  0.5164
  190MOL    H2423082   0.087   2.621   2.097  0.1964  2.9572 -0.5600
  190MOL    H2523083   8.311   2.751   2.125  2.7968  2.1972  0.4876
  190MOL    C2623084   8.251   2.566   2.191  0.2835  0.0710 -0.1405
  190MOL    F2723085   8.290   2.457   2.248  0.0764  0.3921 -0.2861
  190MOL    F2823086   8.155   2.612   2.276  0.1646 -0.1797  0.3580
  190MOL    C2923087   8.176   2.527   2.063 -0.8596 -0.2662  0.4959
  190MOL    H3023088   8.252   2.520   1.985  1.7350  2.9577  2.5634
  190MOL    H3123089   8.113   2.613   2.038  0.1440  0.2949 -0.1174
  190MOL    C3223090   8.083   2.404   2.069  0.6021  0.6241 -0.4316
  190MOL    F3323091   7.985   2.422   2.158  0.1361  0.0642 -0.1815
  190MOL    F3423092   8.028   2.402   1.948  0.2139  0.2154  0.3118
  190MOL    C3523093   8.144   2.268   2.098  0.2777 -0.2645 -0.0107
  190MOL    H3623094   8.060   2.198   2.090  0.6013 -0.6067 -0.4767
  190MOL    H3723095   8.183   2.263   2.199  2.0255  0.3769 -0.6389
  190MOL    C3823096   8.252   2.210   1.996 -0.5524  0.1222  0.2248
  190MOL    F3923097   8.197   2.188   1.875  0.0758 -0.2274 -0.0214
  190MOL    F4023098   8.349   2.293   1.965  0.7500 -0.3194 -0.1312
  190MOL    C4123099   8.321   2.078   2.036 -0.6207 -0.3976 -0.0839
  190MOL    H4223100   0.046   2.100   2.113  0.5246 -1.5214 -0.8485
  190MOL    H4323101   0.037   2.045   1.956 -0.0340  1.3759 -0.3356
  190MOL    C4423102   8.227   1.955   2.075 -0.4847  0.4877 -0.2225
  190MOL    F4523103   8.153   1.979   2.184  0.7673  0.2559 -0.3215
  190MOL    F4623104   8.145   1.927   1.969 -0.1418  0.1006 -0.6167
  190MOL    C4723105   8.301   1.828   2.110  0.1338 -0.1161  0.7104
  190MOL    H4823106   8.229   1.749   2.135 -1.6585  1.4073  0.5140
  190MOL    H4923107   8.346   1.842   2.208  0.8276 -3.2822  0.8910
  190MOL    C5023108   0.058   1.781   2.003 -0.0712 -0.1601 -0.0142
  190MOL    F5123109   0.009   1.789   1.877  0.4129 -0.5214  0.2252
  190MOL    F5223110   0.159   1.859   2.012 -0.0250 -0.0683 -0.2653
  190MOL    C5323111   0.092   1.627   2.035 -0.3793  0.5598 -0.0295
  190MOL    H5423112   0.005   1.566   2.011  0.1852 -1.0076  1.7235
  190MOL    H5523113   0.121   1.614   2.140 -1.5019  3.5926  0.7189
  190MOL    C5623114   0.211   1.575   1.940  0.1589  0.2924  0.1789
  190MOL    F5723115   0.163   1.556   1.816  0.0936  0.2124 -0.2588
  190MOL    F5823116   0.313   1.656   1.927  0.2213 -0.0524 -0.4752
  190MOL    C5923117   0.265   1.439   1.995  0.3933 -0.0225  0.3920
  190MOL    H6023118   0.179   1.372   1.999 -0.6183  1.1523 -0.9904
  190MOL    H6123119   0.297   1.441   2.099 -0.7971 -0.3117  0.7761
  190MOL    C6223120   0.373   1.375   1.914 -0.0555  0.2933  0.0653
  190MOL    F6323121   0.385   1.258   1.978 -0.3648 -0.0877 -0.0093
  190MOL    F6423122   0.326   1.346   1.790  0.1183 -0.1821  0.0002
  190MOL    C6523123   0.513   1.448   1.914  0.6007  0.4491 -0.2249
  190MOL    H6623124   0.536   1.490   2.012  0.0631  2.6658 -1.0282
  190MOL    H6723125   0.506   1.532   1.845  0.3306  1.0114  0.4762
  190MOL    C6823126   0.635   1.387   1.855 -0.3204  0.1304 -0.3806
  190MOL    F6923127   0.734   1.472   1.887  0.0833  0.0376  0.0463
  190MOL    F7023128   0.656   1.263   1.917 -0.4411  0.2244  0.1722
  190MOL    C7123129   0.629   1.376   1.698  0.2187 -0.3689 -0.2160
  190MOL    H7223130   0.589   1.470   1.661 -2.5190 -0.3814  2.5655
  190MOL    H7323131   0.549   1.308   1.669 -0.4414 -0.1316  1.0219
  190MOL    C7423132   0.753   1.321   1.618 -0.5366 -0.4215 -0.0879
  190MOL    F7523133   0.844   1.420   1.615  0.0215  0.0006  0.4753
  190MOL    F7623134   0.794   1.210   1.691 -0.4567  0.5165 -0.5199
  190MOL    C7723135   0.720   1.281   1.478 -0.2530 -0.0663 -0.2615
  190MOL    H7823136   0.667   1.186   1.475 -0.1545 -0.0899 -1.1347
  190MOL    H7923137   0.814   1.247   1.435 -0.9658 -1.7647 -0.5401
  190MOL    C8023138   0.653   1.387   1.389 -0.1895 -0.2028 -0.1544
  190MOL    F8123139   0.523   1.401   1.421 -0.3534 -0.1168  0.0404
  190MOL    F8223140   0.715   1.504   1.399  0.7174 -0.0074 -0.0450
  190MOL    C8323141   0.652   1.347   1.237  0.3386  0.1300  0.3888
  190MOL    H8423142   0.588   1.260   1.222 -0.2758  0.5098  0.7919
  190MOL    H8523143   0.748   1.308   1.204  0.8582  2.3553 -0.8075
  190MOL    C8623144   0.604   1.448   1.127  0.5051 -0.2194  0.0891
  190MOL    F8723145   0.690   1.547   1.118  0.2747 -0.4910 -0.2477
  190MOL    F8823146   0.599   1.382   1.013  0.2131 -0.6599  0.2162
  190MOL    C8923147   0.460   1.503   1.151  0.1942  0.3223  0.2214
  190MOL    H9023148   0.459   1.579   1.228 -0.0886  1.2260 -0.6659
  190MOL    H9123149   0.397   1.421   1.184 -0.2591  1.3772  2.0020
  190MOL    C9223150   0.411   1.569   1.031  0.0441  0.1988 -0.0612
  190MOL    F9323151   0.498   1.665   0.995  0.5094  0.1512 -0.9104
  190MOL    F9423152   0.401   1.480   0.934 -0.5629 -0.2895 -0.1064
  190MOL    C9523153   0.270   1.635   1.051 -0.6047  0.5859  0.8887
  190MOL    H9623154   0.288   1.706   1.132  1.2305  1.0744  0.0747
  190MOL    H9723155   0.212   1.549   1.084 -1.6820  1.1087  0.3774
  190MOL    C9823156   0.219   1.696   0.918 -0.6690 -0.0792  0.5954
  190MOL    F9923157   0.300   1.798   0.884  0.1389  0.3381 -0.0575
  190MOL   F10023158   0.233   1.603   0.821  0.1657 -0.2122  0.1086
  190MOL   C10123159   0.075   1.733   0.914 -0.4410 -0.3248 -0.4617
  190MOL   H10223160   0.013   1.648   0.944 -0.1581 -0.3759 -0.0302
  190MOL   H10323161   0.036   1.757   0.815 -1.8583 -1.0197 -0.0989
  190MOL   C10423162   0.039   1.860   0.995  0.4472 -0.3862  0.2873
  190MOL   F10523163   0.105   1.858   1.111 -0.3354  0.0301  0.3615
  190MOL   F10623164   0.080   1.967   0.934 -0.0872 -0.1392  0.1260
  190MOL   C10723165   8.238   1.864   1.025  0.2397 -0.5387 -0.1608
  190MOL   H10823166   8.207   1.781   1.089  1.4541  0.7758  2.2231
  190MOL   H10923167   8.180   1.857   0.933  1.0854  0.7061 -0.8049
  190MOL   C11023168   8.189   1.987   1.099  0.0160  0.4451  0.1395
  190MOL   F11123169   8.215   2.091   1.014  0.0460  0.1094 -0.4527
  190MOL   F11223170   8.055   1.978   1.106 -0.6199  0.3559 -0.6293
  190MOL   C11323171   8.240   2.004   1.248  0.0289  0.0686  0.5013
  190MOL   H11423172   8.347   2.028   1.246  0.4913 -1.8014  1.1983
  190MOL   H11523173   8.243   1.906   1.297 -0.4377 -1.3098 -2.1605
  190MOL   C11623174   8.177   2.109   1.331 -0.0235 -0.0563 -0.1840
  190MOL   F11723175   8.201   2.228   1.267 -0.4354  0.1679  0.0791
  190MOL   F11823176   8.043   2.083   1.337 -0.6030 -0.1079  0.4199
  190MOL   C11923177   8.224   2.114   1.479  0.0164  0.0974  0.8451
  190MOL   H12023178   8.201   2.015   1.518  0.6640 -0.8514 -1.1128
  190MOL   H12123179   8.168   2.197   1.523 -1.4826 -0.0133 -0.8114
  190MOL   H12223180   8.333   2.124   1.483 -0.1358  1.5077  1.7424
  191MOL     C123181   5.085   2.377   1.132 -0.5794 -0.2270 -0.2057
  191MOL     F223182   4.992   2.358   1.041  0.8055  0.0486  0.1886
  191MOL     F323183   5.167   2.273   1.134 -0.0984 -0.3647  0.2788
  191MOL     C423184   5.021   2.394   1.276 -0.2894  0.5479  0.3436
  191MOL     H523185   4.957   2.310   1.302  1.3211 -0.5485  0.8680
  191MOL     H623186   4.948   2.475   1.275 -0.5981  0.2980  1.8209
  191MOL     H723187   5.149   2.458   1.098  0.0868 -0.9002 -0.5537
  191MOL     C823188   5.129   2.419   1.385  0.5500  0.8360 -0.3549
  191MOL     F923189   5.215   2.513   1.338  0.4862 -0.4200  0.0827
  191MOL    F1023190   5.062   2.466   1.494 -0.2009  0.0487  0.3803
  191MOL    C1123191   5.197   2.281   1.413  0.5434 -0.7147  0.6340
  191MOL    H1223192   5.273   2.251   1.341  0.7689 -0.2615  0.6782
  191MOL    H1323193   5.130   2.197   1.399  0.1102 -0.6625  2.2222
  191MOL    C1423194   5.267   2.279   1.544 -0.1559  0.1084 -0.5954
  191MOL    F1523195   5.314   2.403   1.564  0.1625  0.4318  0.2687
  191MOL    F1623196   5.179   2.260   1.640 -0.3397 -0.4434 -0.0209
  191MOL    C1723197   5.401   2.197   1.558 -0.1970 -0.3945 -0.4548
  191MOL    H1823198   5.432   2.211   1.661  1.4265 -0.0634 -0.9777
  191MOL    H1923199   5.481   2.242   1.499 -0.2889  1.1644  0.6031
  191MOL    C2023200   5.393   2.047   1.540  0.0305  0.0401  0.3762
  191MOL    F2123201   5.345   2.019   1.418  0.3750 -0.1607  0.1615
  191MOL    F2223202   5.519   1.997   1.547 -0.3898 -0.5563 -0.4977
  191MOL    C2323203   5.306   1.978   1.644 -0.5853  0.1941  0.6348
  191MOL    H2423204   5.207   2.022   1.640 -1.4052 -1.6920 -0.1123
  191MOL    H2523205   5.344   1.999   1.744 -2.2661  1.1538  1.0958
  191MOL    C2623206   5.299   1.824   1.639 -0.1194  0.0686  0.3162
  191MOL    F2723207   5.416   1.757   1.650  0.3977 -0.5870 -0.7148
  191MOL    F2823208   5.231   1.794   1.746 -0.2239  0.6863  0.0597
  191MOL    C2923209   5.236   1.757   1.514  0.4973  0.7105 -0.1891
  191MOL    H3023210   5.238   1.648   1.524 -0.5582  0.5876 -1.2089
  191MOL    H3123211   5.296   1.776   1.424  0.6502 -0.5312 -0.3597
  191MOL    C3223212   5.098   1.795   1.481  0.3968  0.0634 -0.1015
  191MOL    F3323213   5.026   1.758   1.584  0.1622 -0.3526 -0.2893
  191MOL    F3423214   5.082   1.930   1.467 -0.2103 -0.3677 -0.7297
  191MOL    C3523215   5.051   1.736   1.343  0.8763  1.0003 -0.4761
  191MOL    H3623216   5.101   1.790   1.263  1.0206 -1.8176 -2.3605
  191MOL    H3723217   4.944   1.753   1.328  0.1261 -2.0877  0.8953
  191MOL    C3823218   5.064   1.582   1.322 -1.0751 -0.9894  0.0737
  191MOL    F3923219   5.197   1.558   1.309 -0.1639 -0.3492  0.7900
  191MOL    F4023220   5.020   1.517   1.431  0.0868 -0.7471 -0.2639
  191MOL    C4123221   4.998   1.535   1.190  0.5061  0.1287 -0.5453
  191MOL    H4223222   5.047   1.580   1.104  1.8459 -3.3461 -1.6971
  191MOL    H4323223   4.901   1.583   1.181  0.3890 -0.1718 -0.9236
  191MOL    C4423224   4.983   1.380   1.164 -0.6841 -0.8552  0.0629
  191MOL    F4523225   4.907   1.331   1.263  0.5672 -0.7007  0.1710
  191MOL    F4623226   4.923   1.361   1.051  0.1187 -0.1020  0.2983
  191MOL    C4723227   5.118   1.297   1.155 -0.0359  0.3106  1.0121
  191MOL    H4823228   5.189   1.328   1.231  0.2967 -0.2270  0.9229
  191MOL    H4923229   5.179   1.330   1.071 -0.3407 -1.5239  0.0530
  191MOL    C5023230   5.090   1.147   1.153 -0.0363  0.0642 -0.0084
  191MOL    F5123231   5.038   1.119   1.268 -0.4402  0.0006 -0.1762
  191MOL    F5223232   5.027   1.112   1.046 -0.2423  0.0322  0.2896
  191MOL    C5323233   5.227   1.083   1.151 -0.0169 -0.6917  0.2481
  191MOL    H5423234   5.298   1.119   1.225 -0.1627  1.6289 -0.6947
  191MOL    H5523235   5.264   1.105   1.051  0.8000  2.5441  1.2078
  191MOL    C5623236   5.239   0.932   1.151 -0.4039  0.2029  0.3847
  191MOL    F5723237   5.155   0.879   1.059 -0.0553  0.4929 -0.0145
  191MOL    F5823238   5.360   0.883   1.129  0.3820 -0.5070  0.4223
  191MOL    C5923239   5.195   0.880   1.294 -0.0542 -0.0998  0.3259
  191MOL    H6023240   5.089   0.896   1.316  0.3625  1.7937  1.0614
  191MOL    H6123241   5.252   0.930   1.373  1.6316 -1.7698  0.2001
  191MOL    C6223242   5.229   0.734   1.319  0.2965  0.1807  0.3509
  191MOL    F6323243   5.189   0.652   1.220 -0.0077  0.5436 -0.4473
  191MOL    F6423244   5.361   0.729   1.328  0.3889  0.0639  0.1186
  191MOL    C6523245   5.161   0.681   1.449 -0.1541  0.0759 -0.0660
  191MOL    H6623246   5.183   0.575   1.455 -0.3739  0.0107 -0.4543
  191MOL    H6723247   5.054   0.689   1.434 -0.0930 -0.2713 -0.6964
  191MOL    C6823248   5.204   0.737   1.583  0.1832 -0.2350  0.1873
  191MOL    F6923249   5.331   0.744   1.596 -0.1739 -0.3700 -0.3652
  191MOL    F7023250   5.152   0.862   1.580  0.1704  0.3329 -0.0229
  191MOL    C7123251   5.144   0.654   1.697  0.2648 -0.5565  0.0712
  191MOL    H7223252   5.166   0.548   1.683  2.4515 -0.3342  1.5874
  191MOL    H7323253   5.036   0.666   1.698  0.1129 -1.8166  0.3385
  191MOL    C7423254   5.183   0.705   1.845  0.9162 -0.2322  0.2599
  191MOL    F7523255   5.116   0.620   1.920 -0.0364 -0.0371  0.0787
  191MOL    F7623256   5.311   0.686   1.860 -0.3286 -0.6003  0.0035
  191MOL    C7723257   5.140   0.851   1.879 -0.8129  0.0989 -0.4866
  191MOL    H7823258   5.042   0.874   1.837 -0.9313 -1.7158 -1.2152
  191MOL    H7923259   5.207   0.917   1.823  1.4590 -2.3909 -0.7736
  191MOL    C8023260   5.140   0.878   2.033 -0.1220 -1.1348  0.6615
  191MOL    F8123261   5.018   0.850   2.089  0.1279 -0.5117  0.3251
  191MOL    F8223262   5.233   0.797   2.090 -0.0458  0.0928  0.4963
  191MOL    C8323263   5.180   1.024   2.076  0.0594 -0.9029 -0.0139
  191MOL    H8423264   5.285   1.031   2.045 -0.1321  1.9326 -0.1259
  191MOL    H8523265   5.192   1.036   2.184 -2.0714  1.0524  0.0312
  191MOL    C8623266   5.092   1.142   2.012  0.2159 -0.0302  0.0232
  191MOL    F8723267   5.112   1.137   1.880  0.0077 -0.1333 -0.4194
  191MOL    F8823268   4.963   1.131   2.041  0.4726  0.8755 -0.1431
  191MOL    C8923269   5.146   1.279   2.070 -0.0240 -0.2780 -0.7845
  191MOL    H9023270   5.252   1.286   2.045  0.2832 -0.3411  0.4862
  191MOL    H9123271   5.140   1.278   2.178  1.4296 -2.9454 -0.6923
  191MOL    C9223272   5.092   1.414   2.002 -0.1622 -0.0723  0.4990
  191MOL    F9323273   5.113   1.404   1.874 -0.2405  0.4932 -0.1812
  191MOL    F9423274   4.962   1.420   2.027  0.1136 -0.3160  0.0751
  191MOL    C9523275   5.165   1.548   2.041  0.8580 -0.2061 -0.6346
  191MOL    H9623276   5.172   1.619   1.958 -1.2639  0.0272 -0.6366
  191MOL    H9723277   5.272   1.526   2.046  0.7220 -0.7513 -0.1642
  191MOL    C9823278   5.130   1.617   2.179  0.3587 -0.6919 -0.2887
  191MOL    F9923279   5.149   1.519   2.267  0.6575 -0.3074 -0.2494
  191MOL   F10023280   5.223   1.707   2.222 -0.0138  0.4619  0.0893
  191MOL   C10123281   4.991   1.671   2.193 -0.2923  0.0427  0.2977
  191MOL   H10223282   4.963   1.714   2.288 -1.8584 -0.8958  0.2706
  191MOL   H10323283   4.924   1.586   2.181 -1.4838  1.1200 -0.7613
  191MOL   C10423284   4.962   1.792   2.098 -0.0484 -0.1092  0.2296
  191MOL   F10523285   5.058   1.884   2.112 -0.3920 -0.0223 -0.0417
  191MOL   F10623286   4.965   1.756   1.971 -0.1934  0.5952  0.3565
  191MOL   C10723287   4.830   1.867   2.108 -0.8230  0.0210  0.9408
  191MOL   H10823288   4.745   1.799   2.096 -2.0576  1.8140 -0.7835
  191MOL   H10923289   4.825   1.927   2.017 -1.4400  0.7267  1.4292
  191MOL   C11023290   4.805   1.948   2.239 -0.8701 -0.0916  0.6014
  191MOL   F11123291   4.678   1.981   2.224  0.1948 -0.0006  0.0813
  191MOL   F11223292   4.813   1.873   2.346  0.0454 -0.6295  0.2727
  191MOL   C11323293   4.895   2.062   2.271  0.2490 -0.2422  0.8241
  191MOL   H11423294   4.926   2.117   2.182  1.2016 -0.8119  0.7999
  191MOL   H11523295   4.990   2.019   2.300  0.9137  0.2460 -0.5592
  191MOL   C11623296   4.850   2.177   2.364 -0.1875  0.3241  1.3372
  191MOL   F11723297   4.952   2.267   2.350 -0.1446  0.0402  0.0182
  191MOL   F11823298   4.740   2.234   2.316 -0.3101 -0.3833 -0.5353
  191MOL   C11923299   4.823   2.127   2.510  0.5581 -0.0574 -0.2402
  191MOL   H12023300   4.798   2.220   2.562  0.7670  1.2194 -2.3820
  191MOL   H12123301   4.919   2.097   2.553  0.1984  0.3032  0.8438
  191MOL   H12223302   4.745   2.051   2.519 -0.5420  1.1857  1.1595
  192MOL     C123303   6.513   4.056   3.340  0.3143 -0.3235  0.2570
  192MOL     F223304   6.533   3.949   3.262 -0.1972  0.1861  0.5931
  192MOL     F323305   6.384   4.068   3.366 -0.0411  0.0740 -0.3541
  192MOL     C423306   6.557   4.190   3.266  0.2089  0.6670 -1.0965
  192MOL     H523307   6.665   4.195   3.251  0.2113 -1.5437 -1.9281
  192MOL     H623308   6.536   4.268   3.340  0.0209 -1.4830  1.1976
  192MOL     H723309   6.554   4.042   3.439  1.8199  0.4989 -0.2427
  192MOL     C823310   6.489   4.215   3.125 -0.7804  0.2543  0.1510
  192MOL     F923311   6.551   4.139   3.029 -0.1267 -0.1182  0.1598
  192MOL    F1023312   6.367   4.157   3.120 -0.1178 -0.5355 -0.5394
  192MOL    C1123313   6.483   4.361   3.059  0.0720  0.1870  0.2065
  192MOL    H1223314   6.413   4.424   3.113 -0.9371 -0.2411 -0.5746
  192MOL    H1323315   6.427   4.358   2.965  0.0702 -1.3725  0.2451
  192MOL    C1423316   6.618   4.432   3.044 -0.0476 -1.3019 -0.2617
  192MOL    F1523317   6.657   4.443   3.172  0.6572 -0.1188  0.4540
  192MOL    F1623318   6.714   4.361   2.967  0.2528 -0.7979 -0.3716
  192MOL    C1723319   6.610   4.574   2.983 -0.1871  0.4833  0.1235
  192MOL    H1823320   6.556   4.632   3.058 -1.1845 -1.4927  0.9972
  192MOL    H1923321   6.554   4.576   2.890 -0.3356 -0.6713  0.1787
  192MOL    C2023322   6.738   4.654   2.963 -0.5996  0.3241  0.9415
  192MOL    F2123323   6.809   4.604   2.861 -0.5122 -0.2015  0.6859
  192MOL    F2223324   6.707   4.773   2.921  0.1463  0.3669  0.6629
  192MOL    C2323325   6.835   4.654   3.091  0.4808 -0.5049 -0.5994
  192MOL    H2423326   6.928   4.695   3.051  0.7220  0.0894  0.5529
  192MOL    H2523327   6.866   4.553   3.120 -0.8584 -0.9369 -0.6449
  192MOL    C2623328   6.790   4.743   3.213 -0.5167  0.0608  0.4140
  192MOL    F2723329   6.772   4.869   3.173 -0.3176  0.3254  0.0504
  192MOL    F2823330   6.671   4.703   3.254  0.4575  0.2759  0.1025
  192MOL    C2923331   6.898   4.740   3.326  0.7285 -0.1955  0.5625
  192MOL    H3023332   6.995   4.737   3.278 -0.4932 -0.4403 -1.9725
  192MOL    H3123333   6.879   4.639   3.363 -1.0172  0.8393  2.6911
  192MOL    C3223334   6.882   4.844   3.438 -1.1449  0.0798 -0.1339
  192MOL    F3323335   6.757   4.860   3.481 -0.4136  0.0038 -0.1999
  192MOL    F3423336   6.949   4.783   3.538 -0.0707  0.0662 -0.3062
  192MOL    C3523337   6.958   4.975   3.408 -0.0103 -0.0621 -0.1373
  192MOL    H3623338   6.939   5.008   3.306  0.3339  0.4151 -0.0489
  192MOL    H3723339   7.065   4.954   3.411  0.0096  0.2392  2.4443
  192MOL    C3823340   6.931   5.100   3.489 -0.6336 -0.6085  0.2756
  192MOL    F3923341   6.940   5.060   3.617  0.2600  0.5607 -0.0915
  192MOL    F4023342   7.024   5.187   3.459  0.0001 -0.6817  0.0085
  192MOL    C4123343   6.790   5.163   3.465 -0.9350 -0.1425 -0.3206
  192MOL    H4223344   6.718   5.095   3.510 -1.2049  0.1205 -0.3525
  192MOL    H4323345   6.754   5.174   3.363 -0.3898  2.4894 -0.2653
  192MOL    C4423346   6.751   5.301   3.529  0.4905  0.8541  0.4674
  192MOL    F4523347   6.623   5.334   3.510  0.3008 -0.0269  0.2383
  192MOL    F4623348   6.768   5.293   3.661  0.1333 -0.0538  0.4120
  192MOL    C4723349   6.828   5.429   3.481 -0.2961  0.3919 -0.3348
  192MOL    H4823350   6.931   5.427   3.516  0.4007 -1.7594 -2.4099
  192MOL    H4923351   6.782   5.521   3.517 -0.4461 -0.4464  1.6615
  192MOL    C5023352   6.835   5.451   3.331  0.1361  0.1914 -0.2775
  192MOL    F5123353   6.890   5.341   3.275 -0.5330 -0.0511  0.3846
  192MOL    F5223354   6.714   5.468   3.276 -0.0141  0.0273  0.3436
  192MOL    C5323355   6.938   5.563   3.290 -0.7749  0.4627  0.2467
  192MOL    H5423356   6.960   5.536   3.187 -0.3744 -1.9467  0.9442
  192MOL    H5523357   7.031   5.552   3.345 -0.7568 -0.4841  0.0193
  192MOL    C5623358   6.882   5.707   3.296 -0.3074 -0.1985  0.0898
  192MOL    F5723359   6.858   5.736   3.421  0.6407 -0.3542 -0.5705
  192MOL    F5823360   6.978   5.797   3.264 -0.1107 -0.2560  0.4569
  192MOL    C5923361   6.759   5.739   3.205 -0.8419 -0.1444 -0.6121
  192MOL    H6023362   6.734   5.843   3.226  0.8677 -0.3197  2.5871
  192MOL    H6123363   6.665   5.692   3.233 -1.1922  1.9466  1.9405
  192MOL    C6223364   6.765   5.706   3.058 -0.3252  0.2888 -0.1908
  192MOL    F6323365   6.880   5.753   3.007 -1.2560 -0.0954  0.1745
  192MOL    F6423366   6.761   5.582   3.037  0.3411 -0.3219 -0.1295
  192MOL    C6523367   6.646   5.774   2.988  0.3404  0.0575  0.3390
  192MOL    H6623368   6.646   5.882   3.006  1.4085  0.1021  0.0889
  192MOL    H6723369   6.551   5.737   3.029 -0.5750  1.4436 -0.4830
  192MOL    C6823370   6.630   5.744   2.833 -0.0556 -0.1901 -0.0106
  192MOL    F6923371   6.604   5.611   2.827  0.5584  0.0457  0.7789
  192MOL    F7023372   6.534   5.825   2.791 -0.2063  0.1575 -0.4670
  192MOL    C7123373   6.757   5.777   2.750 -0.2219 -0.0779  0.3348
  192MOL    H7223374   6.822   5.691   2.766  0.4738  0.1432 -1.2211
  192MOL    H7323375   6.810   5.866   2.785 -2.0930  0.2489  2.4451
  192MOL    C7423376   6.734   5.788   2.596  0.1202 -0.2683 -0.3157
  192MOL    F7523377   6.702   5.662   2.565  0.2595 -0.2638 -0.6554
  192MOL    F7623378   6.633   5.874   2.576 -0.2749  0.2222  0.1584
  192MOL    C7723379   6.853   5.842   2.519  0.5604 -0.4195  0.6397
  192MOL    H7823380   6.937   5.775   2.536  1.7854  0.8161 -0.4123
  192MOL    H7923381   6.885   5.940   2.557 -0.7379  0.2930 -0.0566
  192MOL    C8023382   6.825   5.860   2.373  0.1402  0.5519 -0.2892
  192MOL    F8123383   6.758   5.976   2.361  0.5058  0.2445 -0.1645
  192MOL    F8223384   6.944   5.886   2.322 -0.6673  0.0032  0.3701
  192MOL    C8323385   6.755   5.739   2.298  0.4935 -0.1686  0.3036
  192MOL    H8423386   6.655   5.730   2.342  1.0044  2.2779  2.0460
  192MOL    H8523387   6.812   5.647   2.314  0.1177 -0.7827 -1.7858
  192MOL    C8623388   6.742   5.756   2.142 -0.3224 -0.1029  0.4561
  192MOL    F8723389   6.867   5.733   2.100 -0.4826 -0.2035 -0.3401
  192MOL    F8823390   6.660   5.661   2.088  0.2453 -0.4942  0.2351
  192MOL    C8923391   6.707   5.891   2.085 -0.7577 -0.1427  0.2531
  192MOL    H9023392   6.728   5.887   1.978 -0.2735  0.9521  0.3057
  192MOL    H9123393   6.773   5.967   2.127  0.8451 -0.2747 -1.9298
  192MOL    C9223394   6.551   5.938   2.106  0.5515 -0.3767 -0.1973
  192MOL    F9323395   6.488   5.833   2.061  0.3000 -0.0882  0.5278
  192MOL    F9423396   6.531   5.957   2.237 -0.3878  0.0845 -0.2727
  192MOL    C9523397   6.524   6.070   2.024  0.3781 -0.3806  0.0147
  192MOL    H9623398   6.563   6.043   1.926  0.5643 -0.7023  0.1715
  192MOL    H9723399   6.588   6.147   2.067  0.1247  0.6107 -1.3859
  192MOL    C9823400   6.380   6.127   2.007  0.1069 -0.1543 -0.4638
  192MOL    F9923401   6.333   6.149   2.131 -0.0400  0.1432 -0.2805
  192MOL   F10023402   6.404   6.250   1.965  0.2902  0.0595 -0.5047
  192MOL   C10123403   6.282   6.055   1.915  0.2539  0.4886  0.5458
  192MOL   H10223404   6.182   6.074   1.952 -0.4768 -0.6211 -0.8110
  192MOL   H10323405   6.303   5.948   1.921  3.9256  0.7935 -3.5560
  192MOL   C10423406   6.273   6.080   1.765  0.0822 -0.1654  0.4302
  192MOL   F10523407   6.207   6.194   1.746 -0.4555  0.0549 -0.0056
  192MOL   F10623408   6.395   6.106   1.717  0.1650  0.4215 -1.0102
  192MOL   C10723409   6.195   5.974   1.688  1.0222  0.2867 -0.6781
  192MOL   H10823410   6.170   6.022   1.594  2.0769  0.0056 -1.1113
  192MOL   H10923411   6.094   5.963   1.726  1.3342 -0.8956 -0.1650
  192MOL   C11023412   6.262   5.831   1.668 -0.2787 -0.1912  0.1138
  192MOL   F11123413   6.276   5.772   1.787  0.3118 -0.0779  0.0557
  192MOL   F11223414   6.176   5.756   1.594 -0.0094 -0.1829  0.3400
  192MOL   C11323415   6.401   5.835   1.589 -0.0161  0.2172 -0.4059
  192MOL   H11423416   6.480   5.885   1.645  1.7999 -2.8588 -0.1128
  192MOL   H11523417   6.392   5.890   1.495  1.2298  0.6802 -0.2676
  192MOL   C11623418   6.459   5.697   1.558 -0.2516 -0.4321 -0.9070
  192MOL   F11723419   6.478   5.633   1.671  0.0764 -0.8093 -0.1294
  192MOL   F11823420   6.387   5.626   1.477 -0.4041 -0.7232  0.1948
  192MOL   C11923421   6.593   5.698   1.485  0.8838 -0.1646  0.0640
  192MOL   H12023422   6.632   5.598   1.464 -0.9466 -1.3189  1.9053
  192MOL   H12123423   6.669   5.759   1.533 -0.5628 -0.2473  2.5539
  192MOL   H12223424   6.583   5.739   1.384 -0.8636  0.8744  0.6302
  193MOL     C123425   1.497   4.370   3.458  0.1928 -0.2620  0.3445
  193MOL     F223426   1.625   4.402   3.467  0.2217  0.1530 -0.0121
  193MOL     F323427   1.440   4.363   3.581 -0.1825  0.0064 -0.4032
  193MOL     C423428   1.461   4.248   3.376  0.0607  0.4475 -0.8995
  193MOL     H523429   1.363   4.216   3.410  1.1959 -0.2181  1.9275
  193MOL     H623430   1.519   4.159   3.402  1.2258  1.2162 -0.8283
  193MOL     H723431   1.450   4.460   3.418  1.3918 -0.1017 -0.7058
  193MOL     C823432   1.467   4.263   3.226  0.3632  0.1095  0.5423
  193MOL     F923433   1.399   4.158   3.177  0.1581 -0.2755 -0.0647
  193MOL    F1023434   1.403   4.370   3.196  0.2021  0.3628 -0.3016
  193MOL    C1123435   1.607   4.282   3.169 -0.9852 -0.0942 -0.3802
  193MOL    H1223436   1.668   4.194   3.189  2.6640  2.1426 -1.1901
  193MOL    H1323437   1.651   4.349   3.243 -0.1194 -1.5669  0.4503
  193MOL    C1423438   1.622   4.334   3.021 -0.0137  0.3964  0.2930
  193MOL    F1523439   1.587   4.460   3.010  0.6400 -0.2158  0.2592
  193MOL    F1623440   1.755   4.328   2.996  0.1790  0.7434  0.6386
  193MOL    C1723441   1.547   4.259   2.914  0.7623  0.1261 -0.8404
  193MOL    H1823442   1.449   4.232   2.954  0.8006  2.4633  0.9435
  193MOL    H1923443   1.591   4.160   2.904 -0.0816 -0.5186  1.7056
  193MOL    C2023444   1.544   4.319   2.773 -1.0887 -0.0403  0.1949
  193MOL    F2123445   1.542   4.454   2.761  0.3336  0.0779  0.2528
  193MOL    F2223446   1.660   4.294   2.718 -0.8395  0.0454  0.1343
  193MOL    C2323447   1.430   4.272   2.684  0.0111 -0.7883 -0.3360
  193MOL    H2423448   1.444   4.317   2.585 -0.8590 -1.2548 -0.6794
  193MOL    H2523449   1.343   4.319   2.729  0.4237  0.1991 -0.5744
  193MOL    C2623450   1.399   4.118   2.678  0.4571  0.8960 -0.4778
  193MOL    F2723451   1.358   4.064   2.796 -0.3611 -0.2751  0.3170
  193MOL    F2823452   1.303   4.103   2.594 -0.3331  0.2305  0.3488
  193MOL    C2923453   1.512   4.036   2.617 -0.4068  0.3919 -0.1963
  193MOL    H3023454   1.601   4.045   2.679 -0.1389  1.1798 -0.6850
  193MOL    H3123455   1.530   4.073   2.516 -0.6734  1.3692  0.1132
  193MOL    C3223456   1.479   3.881   2.614  0.9772 -0.2572  0.0623
  193MOL    F3323457   1.574   3.812   2.560  0.6472  0.3465 -0.1789
  193MOL    F3423458   1.468   3.848   2.745  0.3258 -0.2970  0.5428
  193MOL    C3523459   1.347   3.838   2.538 -0.6629  0.8699  0.2242
  193MOL    H3623460   1.332   3.895   2.446 -3.0983 -1.5617 -0.9505
  193MOL    H3723461   1.258   3.867   2.595 -1.0675 -0.3062  0.2084
  193MOL    C3823462   1.326   3.695   2.520 -0.2962  0.2923  0.4170
  193MOL    F3923463   1.434   3.654   2.451 -0.2319  0.0941  0.1398
  193MOL    F4023464   1.329   3.637   2.640  0.2586 -0.2697  0.1846
  193MOL    C4123465   1.192   3.659   2.454  0.9958  0.9193  0.1564
  193MOL    H4223466   1.113   3.685   2.525  0.6519 -0.8830  0.4544
  193MOL    H4323467   1.191   3.555   2.423  2.6294  1.1940 -0.8698
  193MOL    C4423468   1.160   3.743   2.331 -0.2439  0.5336  0.1515
  193MOL    F4523469   1.120   3.862   2.373 -0.5656 -0.7921  0.2473
  193MOL    F4623470   1.272   3.771   2.259  0.0778 -0.1649  0.0324
  193MOL    C4723471   1.060   3.671   2.240 -0.2599 -0.0995  0.1678
  193MOL    H4823472   1.099   3.571   2.222 -0.4149  0.0763 -1.1645
  193MOL    H4923473   1.064   3.710   2.138 -0.1105  0.6936  0.4752
  193MOL    C5023474   0.915   3.651   2.280  0.4825  0.3747 -0.1268
  193MOL    F5123475   0.843   3.615   2.175  0.0531  0.0543  0.0341
  193MOL    F5223476   0.909   3.545   2.367  0.5361  0.2530 -0.2934
  193MOL    C5323477   0.846   3.772   2.351  1.0039  0.6698 -0.0180
  193MOL    H5423478   0.872   3.870   2.310  0.0712  1.3820  1.0758
  193MOL    H5523479   0.869   3.764   2.457  1.1517 -0.4749 -0.1297
  193MOL    C5623480   0.695   3.767   2.348 -0.4894  0.1794  0.3044
  193MOL    F5723481   0.662   3.802   2.225  0.0759  0.0553 -0.2579
  193MOL    F5823482   0.639   3.647   2.370 -0.1364  0.1742  0.2902
  193MOL    C5923483   0.635   3.873   2.446  0.5540  0.0619  0.3638
  193MOL    H6023484   0.689   3.968   2.442 -0.0279  0.3902  0.0875
  193MOL    H6123485   0.635   3.827   2.544 -0.6882  0.4704  0.5630
  193MOL    C6223486   0.490   3.909   2.418  0.2028  0.3045 -0.6356
  193MOL    F6323487   0.484   4.003   2.508 -0.1587  0.2782 -0.2468
  193MOL    F6423488   0.462   3.957   2.299  0.5863 -0.2325 -0.0253
  193MOL    C6523489   0.385   3.800   2.453  0.4974  0.1561  0.1900
  193MOL    H6623490   0.409   3.754   2.549  1.6527  0.1502 -0.0929
  193MOL    H6723491   0.404   3.729   2.372 -1.8420 -0.3848  0.0861
  193MOL    C6823492   0.237   3.848   2.442  0.1825 -0.1872  0.0669
  193MOL    F6923493   0.205   3.924   2.545  0.1715  0.0041 -0.1510
  193MOL    F7023494   0.222   3.926   2.335  0.4529  0.6893 -0.2902
  193MOL    C7123495   0.131   3.727   2.442 -0.1292 -0.3616 -0.2436
  193MOL    H7223496   0.156   3.677   2.535  0.0254 -0.0383 -0.1129
  193MOL    H7323497   0.149   3.659   2.358  1.2073  2.3554 -2.2576
  193MOL    C7423498   8.333   3.772   2.434 -0.2592  0.2938 -0.2536
  193MOL    F7523499   8.304   3.869   2.522  0.3660  0.2910  0.0040
  193MOL    F7623500   8.330   3.819   2.311 -0.5425  0.1883 -0.3021
  193MOL    C7723501   8.234   3.657   2.429 -0.1190 -0.1779 -0.2153
  193MOL    H7823502   8.264   3.593   2.346 -1.6775  1.2642 -1.9409
  193MOL    H7923503   8.138   3.694   2.394 -0.3014  0.7569  1.2604
  193MOL    C8023504   8.229   3.575   2.556  0.7539 -0.1576  0.0964
  193MOL    F8123505   8.343   3.509   2.562 -0.0571 -0.5345 -0.3827
  193MOL    F8223506   8.231   3.662   2.654  0.0293  0.1569  0.2000
  193MOL    C8323507   8.108   3.474   2.569 -0.4611  0.4054  0.0114
  193MOL    H8423508   8.097   3.400   2.490 -0.3405 -0.8504  1.1668
  193MOL    H8523509   8.012   3.521   2.546 -0.6588 -1.1450 -2.5654
  193MOL    C8623510   8.078   3.403   2.702 -0.3732  0.0457  0.4821
  193MOL    F8723511   8.097   3.486   2.802 -0.4833  0.0174 -0.1729
  193MOL    F8823512   7.954   3.355   2.706 -0.1218 -0.3686 -0.4033
  193MOL    C8923513   8.168   3.282   2.719  0.6234  1.5163 -0.9388
  193MOL    H9023514   8.273   3.305   2.701  0.9951  0.7614  0.2360
  193MOL    H9123515   8.145   3.219   2.633 -1.7542 -0.3725  1.0218
  193MOL    C9223516   8.136   3.198   2.855  0.0924 -0.1505 -0.3783
  193MOL    F9323517   8.189   3.261   2.959  0.7502 -0.0985  0.1719
  193MOL    F9423518   8.002   3.179   2.857  0.2575  0.0694 -0.2384
  193MOL    C9523519   8.201   3.052   2.853  0.1855  0.2206  0.0223
  193MOL    H9623520   8.307   3.059   2.829  0.1800 -1.3305 -0.5645
  193MOL    H9723521   8.165   3.001   2.763 -0.2380 -0.4101  0.5427
  193MOL    C9823522   8.215   2.965   2.983  0.2454  0.2428  0.0244
  193MOL    F9923523   8.088   2.939   3.028 -0.1932 -0.0818 -0.2871
  193MOL   F10023524   8.253   2.845   2.933 -0.5910 -0.1582 -0.1407
  193MOL   C10123525   8.320   3.000   3.098 -0.0870 -0.4588  0.5286
  193MOL   H10223526   8.317   3.102   3.136  0.0919 -0.8620  1.6456
  193MOL   H10323527   0.070   2.980   3.060  0.2164  1.8218  0.0497
  193MOL   C10423528   8.304   2.910   3.220  0.3688  0.2476  0.6900
  193MOL   F10523529   8.284   2.788   3.184  0.0993  0.9281  0.2067
  193MOL   F10623530   0.072   2.913   3.280  0.0349 -0.6645 -0.1474
  193MOL   C10723531   8.192   2.945   3.324  0.2718  0.2279  0.6934
  193MOL   H10823532   8.100   2.945   3.265  0.9956 -2.6558 -0.5659
  193MOL   H10923533   8.195   3.049   3.356 -0.5029  0.4082  0.2130
  193MOL   C11023534   8.169   2.847   3.443  0.4698  0.2604  0.0087
  193MOL   F11123535   8.136   2.727   3.401 -0.2199 -0.3922 -0.9566
  193MOL   F11223536   8.280   2.849   3.520 -0.3883 -0.2686 -1.0541
  193MOL   C11323537   8.048   2.889   3.534 -0.3230  0.1668 -0.0558
  193MOL   H11423538   8.055   2.820   3.619 -4.0708  0.6548  0.7292
  193MOL   H11523539   7.948   2.869   3.496 -0.2362 -0.3687 -0.0097
  193MOL   C11623540   8.058   3.031   3.596  0.2463 -0.2114  0.7608
  193MOL   F11723541   8.177   3.045   3.656  0.0534 -0.5358  0.0478
  193MOL   F11823542   8.049   3.121   3.500  0.4246  0.1090 -0.5460
  193MOL   C11923543   7.945   3.051   3.705 -0.0208  0.4256  1.0273
  193MOL   H12023544   7.935   3.144   3.761 -0.1216  1.8095 -1.2336
  193MOL   H12123545   7.963   2.979   3.785 -0.6705  2.5306  3.1222
  193MOL   H12223546   7.849   3.043   3.656 -0.6504 -1.4168  2.4991
  194MOL     C123547   6.100   1.399   1.146 -0.1817  0.7526  0.1926
  194MOL     F223548   5.966   1.370   1.141 -0.4553  0.2022 -0.2111
  194MOL     F323549   6.150   1.358   1.265  0.8908  0.7640  0.3033
  194MOL     C423550   6.114   1.554   1.131  0.0623 -1.0302  0.2339
  194MOL     H523551   6.116   1.597   1.231 -1.6139  1.2484 -0.6594
  194MOL     H623552   6.032   1.607   1.083 -0.4184 -2.1495 -0.1975
  194MOL     H723553   6.151   1.334   1.074  0.3528  1.5155 -0.1218
  194MOL     C823554   6.249   1.582   1.060 -0.3758 -0.2621 -0.1904
  194MOL     F923555   6.256   1.518   0.949 -0.7779 -0.6897 -0.4833
  194MOL    F1023556   6.258   1.712   1.041  0.3573 -0.2763 -0.1510
  194MOL    C1123557   6.368   1.545   1.146  0.3672  0.6005 -0.5222
  194MOL    H1223558   6.364   1.436   1.149  1.1935  0.6051  1.2553
  194MOL    H1323559   6.348   1.577   1.248  0.0472 -0.8281 -0.1335
  194MOL    C1423560   6.510   1.589   1.103  0.5322  0.3824  0.2874
  194MOL    F1523561   6.516   1.714   1.106 -0.0742  0.5192 -0.4730
  194MOL    F1623562   6.595   1.548   1.196 -0.3977  0.3067 -0.1153
  194MOL    C1723563   6.553   1.538   0.961  0.4981  0.6369  0.1194
  194MOL    H1823564   6.498   1.589   0.882 -0.3103  1.0890  0.9796
  194MOL    H1923565   6.521   1.434   0.960  1.4526  0.3375 -0.3483
  194MOL    C2023566   6.704   1.530   0.935 -0.0603 -0.3400  0.1046
  194MOL    F2123567   6.760   1.433   1.010 -0.0917 -0.2132  0.3328
  194MOL    F2223568   6.709   1.484   0.811 -0.2289  0.0412 -0.3728
  194MOL    C2323569   6.780   1.659   0.959 -0.1297 -0.2891  0.5757
  194MOL    H2423570   6.770   1.678   1.066 -4.5301  0.7225  0.0811
  194MOL    H2523571   6.723   1.740   0.914  0.3522 -0.1169  0.2690
  194MOL    C2623572   6.933   1.656   0.917 -0.3336  0.5784 -0.2159
  194MOL    F2723573   6.955   1.606   0.797  0.4564 -0.3201 -0.1579
  194MOL    F2823574   6.962   1.785   0.911  0.0582  0.0058  0.1430
  194MOL    C2923575   7.029   1.603   1.026  0.0314  0.6034  0.6652
  194MOL    H3023576   7.007   1.502   1.059  1.4430  0.1312  0.2048
  194MOL    H3123577   7.012   1.656   1.120 -1.0705 -2.3043  2.1504
  194MOL    C3223578   7.181   1.603   0.993  0.6185 -0.0865  0.3886
  194MOL    F3323579   7.196   1.531   0.879 -0.7339 -0.3844  0.0541
  194MOL    F3423580   7.220   1.731   0.987 -0.0670 -0.1784  0.5456
  194MOL    C3523581   7.257   1.536   1.104  0.0104  0.0144 -0.3905
  194MOL    H3623582   7.206   1.441   1.119  1.7006 -1.1204 -1.7012
  194MOL    H3723583   7.234   1.592   1.195 -2.9126 -3.7659  1.3394
  194MOL    C3823584   7.405   1.523   1.077  0.6988 -0.7095 -0.7298
  194MOL    F3923585   7.426   1.417   1.001  0.1297 -0.0600 -0.2477
  194MOL    F4023586   7.455   1.635   1.024 -0.2512 -0.1587 -0.8101
  194MOL    C4123587   7.483   1.509   1.207 -0.2606  0.1613 -0.2199
  194MOL    H4223588   7.465   1.417   1.262  0.5698  0.3959  0.4513
  194MOL    H4323589   7.443   1.585   1.275  0.1653  1.4089 -1.3468
  194MOL    C4423590   7.640   1.531   1.219 -0.4411 -0.3239  0.1479
  194MOL    F4523591   7.666   1.657   1.183 -0.0524  0.5042 -0.4511
  194MOL    F4623592   7.671   1.511   1.349  0.2824 -0.1904 -0.1860
  194MOL    C4723593   7.733   1.428   1.140  0.2077 -0.1241  0.5100
  194MOL    H4823594   7.689   1.405   1.043  1.6085  1.9946 -0.6416
  194MOL    H4923595   7.752   1.333   1.190  1.9288 -1.2600 -2.1885
  194MOL    C5023596   7.879   1.475   1.104  0.8589  0.0838  0.1525
  194MOL    F5123597   7.878   1.589   1.035 -0.0196 -0.0317  0.7816
  194MOL    F5223598   7.936   1.498   1.219  0.1210 -0.4049  0.4300
  194MOL    C5323599   7.951   1.360   1.031 -0.1679  0.4700 -0.4539
  194MOL    H5423600   7.890   1.312   0.955  2.1378 -2.0996 -0.7542
  194MOL    H5523601   7.960   1.281   1.106 -1.5414  1.3234  0.6288
  194MOL    C5623602   8.087   1.401   0.958  0.1397  0.8099  0.1164
  194MOL    F5723603   8.073   1.486   0.858  0.2055 -0.0098 -0.2532
  194MOL    F5823604   8.170   1.473   1.041  0.2906  0.3693  0.0807
  194MOL    C5923605   8.180   1.276   0.913 -0.4954 -0.5141  0.1719
  194MOL    H6023606   8.123   1.208   0.850 -0.5531  0.4315 -0.8201
  194MOL    H6123607   8.213   1.218   0.999 -0.4523  2.8430  2.5402
  194MOL    C6223608   8.308   1.312   0.841 -0.2398  0.0222  0.5798
  194MOL    F6323609   8.274   1.396   0.746 -0.2244  0.5042  0.1694
  194MOL    F6423610   0.036   1.372   0.929  0.4962 -0.4355 -0.4690
  194MOL    C6523611   0.021   1.192   0.770 -1.0675  0.2062 -0.3250
  194MOL    H6623612   0.091   1.238   0.701 -0.4883  0.6039  0.5213
  194MOL    H6723613   8.296   1.143   0.707 -1.7586  0.4637  0.2883
  194MOL    C6823614   0.107   1.093   0.861 -0.1715  0.4522  0.5441
  194MOL    F6923615   0.022   1.036   0.947  0.1121 -0.4217 -0.3396
  194MOL    F7023616   0.156   0.998   0.780  0.1228  0.3970 -0.0804
  194MOL    C7123617   0.216   1.156   0.953  0.0410  0.1600  0.5419
  194MOL    H7223618   0.155   1.198   1.032 -0.6518  0.2350 -0.0244
  194MOL    H7323619   0.270   1.245   0.920 -0.0534  0.5435  1.4171
  194MOL    C7423620   0.286   1.054   1.035  0.4043 -0.7293 -0.0424
  194MOL    F7523621   0.352   1.125   1.125 -0.3024 -0.1898  0.0260
  194MOL    F7623622   0.195   0.979   1.105 -0.3885 -0.3933  0.5928
  194MOL    C7723623   0.373   0.947   0.970 -0.1265 -0.1393  0.0772
  194MOL    H7823624   0.303   0.892   0.907 -1.5371  3.1509 -1.3190
  194MOL    H7923625   0.400   0.864   1.036  2.7550  0.1120 -0.7225
  194MOL    C8023626   0.489   0.988   0.878 -0.4591  0.0253  0.2161
  194MOL    F8123627   0.442   1.029   0.763  0.1392 -0.2471  0.6879
  194MOL    F8223628   0.548   1.091   0.936  0.3473 -0.1158  0.1189
  194MOL    C8323629   0.603   0.885   0.851 -0.6439 -0.3185 -0.4337
  194MOL    H8423630   0.562   0.790   0.817  0.3333 -0.5634 -0.9389
  194MOL    H8523631   0.645   0.861   0.949 -1.0086 -2.3114 -0.7484
  194MOL    C8623632   0.710   0.931   0.746 -0.0135  0.1817  0.5982
  194MOL    F8723633   0.807   0.840   0.739 -0.2309 -0.1285  0.2510
  194MOL    F8823634   0.636   0.932   0.626 -0.2075 -0.2632 -0.5470
  194MOL    C8923635   0.778   1.062   0.771  0.2396  0.3164 -0.7006
  194MOL    H9023636   0.711   1.146   0.754  0.4777  0.9527  1.4152
  194MOL    H9123637   0.847   1.082   0.688 -0.1218  1.3258 -0.7595
  194MOL    C9223638   0.871   1.064   0.898  0.1525  0.0246 -0.1308
  194MOL    F9323639   0.789   1.045   1.002 -0.1603 -0.1191  0.0131
  194MOL    F9423640   0.950   0.958   0.895 -0.9445 -0.1524  0.2732
  194MOL    C9523641   0.943   1.197   0.943  0.6432  0.3031  0.1074
  194MOL    H9623642   0.860   1.268   0.948  0.1984 -0.2089  0.0742
  194MOL    H9723643   1.011   1.232   0.866 -0.8962  2.1180 -0.4533
  194MOL    C9823644   1.016   1.190   1.081 -0.2716  0.1192  0.1778
  194MOL    F9923645   1.057   1.306   1.113  0.4193 -0.3130  0.3869
  194MOL   F10023646   0.940   1.140   1.176  0.4450 -0.2944 -0.1164
  194MOL   C10123647   1.150   1.110   1.083  0.2483  0.0358 -0.1844
  194MOL   H10223648   1.119   1.006   1.077  0.9071 -0.1496 -0.4736
  194MOL   H10323649   1.196   1.110   1.182  1.0019  0.2037 -0.5331
  194MOL   C10423650   1.261   1.128   0.979 -0.0037 -0.1349  0.8407
  194MOL   F10523651   1.220   1.079   0.856  0.5144  0.1339 -0.1407
  194MOL   F10623652   1.287   1.254   0.977  0.3326  0.3071 -0.4290
  194MOL   C10723653   1.391   1.045   1.014  0.3851 -0.0913 -0.0395
  194MOL   H10823654   1.372   0.940   1.034 -1.3965 -0.1919 -2.0477
  194MOL   H10923655   1.431   1.083   1.108  0.7476 -0.8579  0.1191
  194MOL   C11023656   1.501   1.050   0.905  0.3417  0.2627  0.8288
  194MOL   F11123657   1.598   0.961   0.931 -0.0116 -0.3567  0.5963
  194MOL   F11223658   1.454   1.007   0.789 -0.0092  0.1584  0.5364
  194MOL   C11323659   1.580   1.177   0.879 -0.0829 -0.6785  0.1512
  194MOL   H11423660   1.513   1.246   0.827 -0.3016 -0.7293  0.3646
  194MOL   H11523661   1.658   1.146   0.809 -0.7634 -0.8268 -0.5529
  194MOL   C11623662   1.657   1.240   0.996  0.4056 -0.4065 -0.5390
  194MOL   F11723663   1.581   1.273   1.098 -0.0505 -0.3204  0.1403
  194MOL   F11823664   1.745   1.155   1.041  0.4648 -0.6350  0.2622
  194MOL   C11923665   1.728   1.368   0.946 -0.4684 -0.4334 -0.4158
  194MOL   H12023666   1.785   1.348   0.856 -2.1391  1.1424 -1.8748
  194MOL   H12123667   1.801   1.400   1.021 -1.6144 -1.2651  1.0977
  194MOL   H12223668   1.661   1.455   0.949 -1.5614 -1.3034  1.8917
  195MOL     C123669   5.696   7.574   4.831  0.2020 -0.3053  0.1924
  195MOL     F223670   5.631   7.463   4.866 -0.5993 -0.0592  0.3674
  195MOL     F323671   5.685   7.593   4.698  0.2784  0.3948  0.4482
  195MOL     C423672   5.850   7.537   4.857  0.1914 -0.5989 -0.0274
  195MOL     H523673   5.914   7.579   4.779 -0.0444 -1.2312 -0.5575
  195MOL     H623674   5.858   7.429   4.851 -1.0177 -0.6919  0.0189
  195MOL     H723675   5.655   7.656   4.889  0.6164  0.6291 -0.8184
  195MOL     C823676   5.893   7.596   4.992  0.6611  0.5692 -0.0583
  195MOL     F923677   5.804   7.555   5.079 -0.4521  0.2935  0.1777
  195MOL    F1023678   6.014   7.545   5.022  0.2958  0.1866  0.7137
  195MOL    C1123679   5.887   7.753   5.010 -0.1374  0.7169 -0.0152
  195MOL    H1223680   5.908   7.780   5.114 -0.4926  0.7020  0.0614
  195MOL    H1323681   5.784   7.787   4.995  0.6754  2.8843 -0.9860
  195MOL    C1423682   5.982   7.835   4.918  0.1246  0.3967  0.1663
  195MOL    F1523683   6.106   7.802   4.948  0.0916  0.2761  1.0417
  195MOL    F1623684   5.955   7.810   4.792  0.0880 -0.1088 -0.0222
  195MOL    C1723685   5.944   7.982   4.947  0.5791  0.5298  0.0382
  195MOL    H1823686   5.938   7.997   5.054 -1.0693 -0.3928  0.0932
  195MOL    H1923687   5.842   8.007   4.918  0.7704  1.4152  0.1170
  195MOL    C2023688   6.034   8.095   4.882  0.5230 -0.2398 -0.4202
  195MOL    F2123689   6.028   8.078   4.748  0.1027  0.2316 -0.3971
  195MOL    F2223690   5.975   8.208   4.917 -0.1458  0.2565 -0.2480
  195MOL    C2323691   6.178   8.104   4.925 -0.5450 -0.1700 -0.1317
  195MOL    H2423692   6.217   8.194   4.878  0.6756 -0.7956 -0.3206
  195MOL    H2523693   6.226   8.013   4.888 -0.3659  0.5780 -1.8009
  195MOL    C2623694   6.212   8.096   5.075  0.0403  0.1138 -0.2853
  195MOL    F2723695   6.147   7.994   5.137  0.2664 -0.0188  0.3522
  195MOL    F2823696   6.343   8.072   5.084 -0.1648 -0.2077 -0.5488
  195MOL    C2923697   6.175   8.226   5.157  0.1875 -0.2016  0.2960
  195MOL    H3023698   6.156   8.192   5.259  0.4602 -0.7122  0.1776
  195MOL    H3123699   6.073   8.247   5.125  0.9574 -1.6143 -3.3320
  195MOL    C3223700   6.264   0.002   5.133  0.6492 -0.0165  0.1619
  195MOL    F3323701   6.395   8.326   5.165  0.8034  0.3623 -0.2763
  195MOL    F3423702   6.256   0.027   4.998 -0.7366 -0.1265  0.4521
  195MOL    C3523703   6.229   0.135   5.209  1.2825  0.9102 -0.0786
  195MOL    H3623704   6.312   0.205   5.221  1.5492  0.5416  0.2729
  195MOL    H3723705   6.205   0.101   5.310  2.5404  1.9947  0.6079
  195MOL    C3823706   6.098   0.205   5.161 -0.3759 -0.1517  0.4750
  195MOL    F3923707   6.113   0.230   5.030  0.3206 -0.3823 -0.0302
  195MOL    F4023708   6.001   0.128   5.195 -0.5018 -0.2011 -0.1169
  195MOL    C4123709   6.083   0.348   5.208 -0.0745  0.5843 -0.5737
  195MOL    H4223710   6.159   0.409   5.159 -0.0143  1.1400  0.1877
  195MOL    H4323711   6.106   0.347   5.315  0.8461 -0.2738 -0.7733
  195MOL    C4423712   5.960   0.435   5.181 -0.3889 -0.6616  0.0838
  195MOL    F4523713   5.987   0.560   5.217  0.4792 -0.1840  0.4236
  195MOL    F4623714   5.942   0.438   5.049 -0.3749  0.1889 -0.3432
  195MOL    C4723715   5.835   0.400   5.260 -0.0113 -0.1702 -0.3322
  195MOL    H4823716   5.857   0.389   5.366 -0.3008 -2.3380 -0.4579
  195MOL    H4923717   5.811   0.296   5.235 -3.7727  0.3731  0.6583
  195MOL    C5023718   5.719   0.488   5.230  0.4011 -0.6805  0.0411
  195MOL    F5123719   5.745   0.607   5.277 -0.1228  0.4452  0.3098
  195MOL    F5223720   5.686   0.490   5.105  0.3939 -0.0351  0.4957
  195MOL    C5323721   5.587   0.439   5.299 -0.2567  0.4513 -1.0836
  195MOL    H5423722   5.600   0.412   5.404 -0.1970 -1.5416 -1.5851
  195MOL    H5523723   5.554   0.352   5.244 -1.9097 -0.0519  0.6340
  195MOL    C5623724   5.463   0.534   5.302 -0.0934 -0.4109 -0.2160
  195MOL    F5723725   5.370   0.462   5.354 -0.0177 -0.1447 -0.0886
  195MOL    F5823726   5.504   0.621   5.390 -0.5236 -0.7922 -0.4384
  195MOL    C5923727   5.416   0.590   5.164  0.1716  0.0092 -0.4019
  195MOL    H6023728   5.397   0.509   5.094  1.0011  1.4991 -2.4079
  195MOL    H6123729   5.499   0.652   5.131  1.0625 -1.3454 -0.7841
  195MOL    C6223730   5.285   0.670   5.164  0.1102  0.4969 -0.7044
  195MOL    F6323731   5.271   0.711   5.037 -0.8147  0.3866  0.0963
  195MOL    F6423732   5.183   0.589   5.180  0.2934  0.3006  0.6737
  195MOL    C6523733   5.277   0.781   5.267 -0.1372  0.8389 -0.5619
  195MOL    H6623734   5.379   0.819   5.275  0.0647  0.3737 -0.9318
  195MOL    H6723735   5.261   0.745   5.369  0.9986  1.5931 -0.1105
  195MOL    C6823736   5.168   0.896   5.253  0.2473 -0.1573 -0.8472
  195MOL    F6923737   5.179   0.941   5.131  0.5406  0.9730  0.7488
  195MOL    F7023738   5.051   0.848   5.267 -0.2186 -0.4882 -0.2041
  195MOL    C7123739   5.192   1.002   5.362 -0.6558  0.6884  0.2014
  195MOL    H7223740   5.291   1.046   5.350  0.1350 -1.1609 -0.1941
  195MOL    H7323741   5.178   0.961   5.462  1.1310  0.2053  0.2707
  195MOL    C7423742   5.095   1.121   5.351 -0.4927 -0.0097 -0.2068
  195MOL    F7523743   4.965   1.100   5.357  0.3337  0.5935 -0.2075
  195MOL    F7623744   5.125   1.185   5.457  0.5558 -0.1829 -0.3673
  195MOL    C7723745   5.120   1.219   5.231  0.1461  0.1838 -0.1570
  195MOL    H7823746   5.114   1.165   5.137  0.0593 -1.3114  0.6863
  195MOL    H7923747   5.221   1.254   5.211 -0.0378  1.2229  0.7083
  195MOL    C8023748   5.046   1.353   5.226 -0.0228 -0.5643  0.1225
  195MOL    F8123749   5.076   1.416   5.115 -0.0027  0.2532  0.3548
  195MOL    F8223750   4.921   1.320   5.228  0.4096 -0.3197 -0.5250
  195MOL    C8323751   5.065   1.448   5.349 -0.2767 -0.3869  0.1415
  195MOL    H8423752   5.173   1.456   5.362 -0.4807  1.7668  0.7069
  195MOL    H8523753   5.025   1.396   5.436  0.0304 -1.1017 -0.1375
  195MOL    C8623754   4.991   1.586   5.333 -0.0167 -0.1648 -0.8181
  195MOL    F8723755   5.041   1.641   5.223 -0.0067 -0.3082  0.3627
  195MOL    F8823756   4.864   1.577   5.315 -0.5697 -0.0068 -0.6944
  195MOL    C8923757   5.023   1.676   5.445 -0.2003  0.0733  0.4204
  195MOL    H9023758   4.966   1.766   5.422  1.4594  1.1070  0.2658
  195MOL    H9123759   5.120   1.719   5.422 -0.2157 -1.0443 -1.8414
  195MOL    C9223760   4.986   1.630   5.586  0.0110  0.4870 -0.2617
  195MOL    F9323761   4.871   1.566   5.587 -0.0661 -0.0804  0.2249
  195MOL    F9423762   5.068   1.533   5.628  0.1405  0.4030  0.4180
  195MOL    C9523763   4.973   1.748   5.678  0.6115 -0.1411  0.1374
  195MOL    H9623764   4.932   1.717   5.774 -2.7196 -0.8368 -1.4335
  195MOL    H9723765   4.901   1.825   5.648  0.4883 -0.2200  0.2315
  195MOL    C9823766   5.101   1.837   5.703 -0.1742  0.2403  0.1046
  195MOL    F9923767   5.142   1.905   5.597 -0.1847  0.1359  0.3060
  195MOL   F10023768   5.055   1.931   5.784  0.9736 -0.0412 -0.0022
  195MOL   C10123769   5.233   1.779   5.763  0.4710 -0.3701  0.5830
  195MOL   H10223770   5.291   1.869   5.780  2.5443 -1.1648 -1.9749
  195MOL   H10323771   5.297   1.721   5.697 -1.1148 -0.9433 -0.5010
  195MOL   C10423772   5.218   1.705   5.890  0.3848 -0.3099  0.5067
  195MOL   F10523773   5.136   1.776   5.969  0.3702 -0.0080  0.0375
  195MOL   F10623774   5.176   1.585   5.871 -0.4512  0.0310  0.2648
  195MOL   C10723775   5.349   1.694   5.975  0.4008  0.8868 -0.0574
  195MOL   H10823776   5.318   1.671   6.077 -3.4276  1.5574 -1.0055
  195MOL   H10923777   5.385   1.796   5.988  0.8507  0.4503  2.3857
  195MOL   C11023778   5.470   1.604   5.932  0.4169 -0.2624  0.0602
  195MOL   F11123779   5.421   1.476   5.929  0.2595 -0.2989 -0.0505
  195MOL   F11223780   5.506   1.644   5.816 -0.2649 -0.5727  0.2295
  195MOL   C11323781   5.577   1.617   6.037  0.3285 -0.1691  0.8457
  195MOL   H11423782   5.539   1.609   6.139 -0.7697  2.1551  0.6664
  195MOL   H11523783   5.628   1.713   6.031 -0.3055  0.1786  0.9458
  195MOL   C11623784   5.697   1.516   6.030  0.0336  0.5546 -0.5794
  195MOL   F11723785   5.786   1.559   6.120 -0.1607  0.3736  0.3749
  195MOL   F11823786   5.665   1.387   6.059  0.9027 -0.0429  0.3852
  195MOL   C11923787   5.767   1.521   5.893 -0.4282  0.0768 -0.5546
  195MOL   H12023788   5.776   1.624   5.858 -2.4584  0.0856 -1.0712
  195MOL   H12123789   5.702   1.475   5.819  2.2815 -2.3346 -1.5710
  195MOL   H12223790   5.867   1.477   5.899 -0.4962 -0.1037 -0.7762
  196MOL     C123791   3.882   5.341   5.152 -0.4476 -0.1392  0.3140
  196MOL     F223792   4.014   5.294   5.159  0.4643  0.0731  0.0449
  196MOL     F323793   3.877   5.457   5.217  0.2778  0.3459 -0.3141
  196MOL     C423794   3.769   5.241   5.194  0.3885 -0.2842  0.0189
  196MOL     H523795   3.673   5.275   5.156  0.6952 -1.0276 -1.4544
  196MOL     H623796   3.759   5.235   5.302  2.8282 -0.4999  0.2562
  196MOL     H723797   3.872   5.358   5.045 -0.9946  0.7726  0.5121
  196MOL     C823798   3.782   5.101   5.141 -0.0305  0.3158 -0.3541
  196MOL     F923799   3.806   5.104   5.011 -0.2326  0.3155 -0.4932
  196MOL    F1023800   3.877   5.053   5.212  0.1438  0.0445  0.0583
  196MOL    C1123801   3.654   5.026   5.163 -0.1530  0.0008 -0.4079
  196MOL    H1223802   3.574   5.088   5.123  1.1221  2.7108  1.1185
  196MOL    H1323803   3.642   5.020   5.272 -1.9724 -2.5828 -0.6967
  196MOL    C1423804   3.647   4.888   5.100 -0.0954 -0.3617  0.3338
  196MOL    F1523805   3.541   4.832   5.146  0.0695 -0.1939  0.6009
  196MOL    F1623806   3.633   4.900   4.962  0.3226  0.1964 -0.0854
  196MOL    C1723807   3.769   4.799   5.141  0.2660  0.2787 -0.4205
  196MOL    H1823808   3.775   4.807   5.249 -0.9833 -0.5727 -0.2771
  196MOL    H1923809   3.863   4.836   5.101  0.8570 -1.6632 -0.8600
  196MOL    C2023810   3.754   4.654   5.094 -0.9611  0.3654  0.3034
  196MOL    F2123811   3.853   4.587   5.153 -0.2347 -0.3740  0.4007
  196MOL    F2223812   3.644   4.603   5.144  0.5777 -0.1152 -0.2448
  196MOL    C2323813   3.746   4.633   4.939 -0.4215 -0.5122 -0.0286
  196MOL    H2423814   3.838   4.681   4.904 -0.9042  1.3869  1.2199
  196MOL    H2523815   3.662   4.690   4.901 -2.8023 -1.0093  4.1441
  196MOL    C2623816   3.746   4.493   4.892  0.0638  0.1784 -0.5555
  196MOL    F2723817   3.851   4.431   4.948 -0.0381  0.4026 -0.2218
  196MOL    F2823818   3.633   4.433   4.933 -0.2884  0.1554  1.0340
  196MOL    C2923819   3.767   4.468   4.739 -0.3073 -0.3093  0.0734
  196MOL    H3023820   3.813   4.370   4.730  2.9539  1.3375 -2.0870
  196MOL    H3123821   3.842   4.537   4.701 -1.1889 -1.0674 -3.2431
  196MOL    C3223822   3.646   4.447   4.647 -0.6988 -0.8922  0.6977
  196MOL    F3323823   3.675   4.399   4.520 -0.2970 -0.1825 -0.0526
  196MOL    F3423824   3.565   4.357   4.707  0.3904 -0.1893  0.0267
  196MOL    C3523825   3.566   4.576   4.615  1.2493 -0.1024 -0.1140
  196MOL    H3623826   3.641   4.648   4.584  1.2709 -0.2117 -0.3171
  196MOL    H3723827   3.518   4.620   4.702  1.8093  1.2072 -0.4681
  196MOL    C3823828   3.455   4.572   4.509 -0.1625  0.0206  0.2731
  196MOL    F3923829   3.503   4.520   4.399  0.0736  0.2139  0.1354
  196MOL    F4023830   3.368   4.479   4.551 -0.4933 -0.1986 -0.3644
  196MOL    C4123831   3.369   4.706   4.494 -0.1258 -0.6099  0.1623
  196MOL    H4223832   3.435   4.786   4.460 -0.4461 -0.3919  0.0532
  196MOL    H4323833   3.332   4.741   4.590  1.4026  0.5047  0.3606
  196MOL    C4423834   3.250   4.689   4.398 -0.4387 -0.5881  0.0229
  196MOL    F4523835   3.278   4.620   4.290 -0.4356 -0.1964 -0.3128
  196MOL    F4623836   3.149   4.617   4.461 -0.0737  0.0466 -0.3673
  196MOL    C4723837   3.194   4.825   4.344 -0.1413 -0.0492 -0.6470
  196MOL    H4823838   3.269   4.882   4.290  2.4001 -2.4968  0.1814
  196MOL    H4923839   3.155   4.885   4.427  0.4911 -1.9483  1.0767
  196MOL    C5023840   3.082   4.806   4.241  0.1142  0.1515  0.1685
  196MOL    F5123841   3.121   4.722   4.151 -0.0173 -0.0242  0.2529
  196MOL    F5223842   2.979   4.760   4.302  0.4657  0.6260  0.0320
  196MOL    C5323843   3.042   4.939   4.173 -0.1683 -0.2510 -0.4526
  196MOL    H5423844   3.133   4.990   4.139 -1.0100  1.9212  0.4781
  196MOL    H5523845   3.002   5.003   4.252 -0.8872  2.4021 -2.8637
  196MOL    C5623846   2.952   4.929   4.050 -0.0667  0.8983 -0.3518
  196MOL    F5723847   3.019   4.886   3.939 -0.0696  0.0734  1.0055
  196MOL    F5823848   2.842   4.853   4.077 -0.0860  0.4289  0.0096
  196MOL    C5923849   2.898   5.062   4.006 -0.0858 -0.3951  0.1570
  196MOL    H6023850   2.986   5.118   3.975 -1.8072  1.4721 -1.5220
  196MOL    H6123851   2.852   5.110   4.092 -1.8432 -2.2704  0.3140
  196MOL    C6223852   2.799   5.056   3.882  0.5956 -0.7380 -0.6464
  196MOL    F6323853   2.868   5.013   3.772 -0.2320 -0.0587  0.4731
  196MOL    F6423854   2.699   4.985   3.922  0.1385  0.2982  0.0951
  196MOL    C6523855   2.763   5.212   3.857 -0.4131  0.2795 -0.7169
  196MOL    H6623856   2.856   5.269   3.848 -0.0392 -0.5869 -2.9160
  196MOL    H6723857   2.708   5.256   3.940  1.0566 -0.8027  0.8635
  196MOL    C6823858   2.664   5.228   3.735  0.3948 -0.1958  0.4604
  196MOL    F6923859   2.554   5.154   3.756 -0.5424  0.2946 -0.1536
  196MOL    F7023860   2.619   5.356   3.731  0.3756 -0.3726 -0.0780
  196MOL    C7123861   2.725   5.203   3.590  0.6972  0.1378 -0.4602
  196MOL    H7223862   2.641   5.192   3.521  0.2531 -1.4029  0.2961
  196MOL    H7323863   2.768   5.103   3.584  0.2430 -0.1907  1.4212
  196MOL    C7423864   2.825   5.313   3.527 -0.5157 -0.0227 -0.7683
  196MOL    F7523865   2.746   5.415   3.484 -0.3399 -0.1630 -0.1383
  196MOL    F7623866   2.913   5.360   3.621 -0.0014  0.3525  0.5604
  196MOL    C7723867   2.904   5.260   3.398 -0.2045  0.1492 -0.1911
  196MOL    H7823868   2.821   5.236   3.332 -0.0443  2.2603 -1.2049
  196MOL    H7923869   2.952   5.164   3.412 -0.1452  0.0074 -1.2888
  196MOL    C8023870   2.997   5.371   3.324  1.0543  0.3767 -0.2345
  196MOL    F8123871   2.913   5.472   3.286  0.2173  0.4958  0.1511
  196MOL    F8223872   3.089   5.412   3.414  0.8335  0.2406  0.2637
  196MOL    C8323873   3.067   5.315   3.196  0.6118 -0.0741 -0.2198
  196MOL    H8423874   3.113   5.392   3.133 -0.1067  0.8061  0.3269
  196MOL    H8523875   2.991   5.272   3.131  1.8866 -1.4025 -0.8565
  196MOL    C8623876   3.173   5.210   3.213 -0.3130 -0.1432 -0.2423
  196MOL    F8723877   3.271   5.260   3.292  0.9349  0.1635 -0.0182
  196MOL    F8823878   3.120   5.107   3.276 -0.4712 -0.2916 -0.6644
  196MOL    C8923879   3.233   5.179   3.074  0.6427 -0.2133 -0.2592
  196MOL    H9023880   3.294   5.266   3.052  1.1775 -0.2727  0.9488
  196MOL    H9123881   3.150   5.166   3.004 -0.1963 -0.4557  0.7535
  196MOL    C9223882   3.317   5.050   3.065  0.0564  0.0295  0.0469
  196MOL    F9323883   3.388   5.045   2.949  0.1765  0.8122 -0.2961
  196MOL    F9423884   3.410   5.050   3.166  0.0106 -0.1332 -0.2179
  196MOL    C9523885   3.231   4.921   3.060  0.0503  0.3957  0.6334
  196MOL    H9623886   3.204   4.893   2.959 -0.8427 -1.3362  1.3192
  196MOL    H9723887   3.137   4.918   3.116 -0.0675 -0.8430  0.3975
  196MOL    C9823888   3.305   4.795   3.117 -0.2046  0.7090 -0.3829
  196MOL    F9923889   3.313   4.810   3.251 -0.1680  0.1271  0.4452
  196MOL   F10023890   3.228   4.688   3.103 -0.3686  0.1456 -0.1930
  196MOL   C10123891   3.442   4.765   3.050  0.5343 -0.2115  0.1292
  196MOL   H10223892   3.503   4.854   3.036  1.0183 -0.7928 -1.6255
  196MOL   H10323893   3.416   4.739   2.947  1.2407 -0.5616  0.0396
  196MOL   C10423894   3.541   4.664   3.111  0.1478 -0.5154 -0.4066
  196MOL   F10523895   3.652   4.662   3.039 -0.3818 -0.4265  0.0250
  196MOL   F10623896   3.563   4.705   3.234  0.1271 -0.2192 -0.2577
  196MOL   C10723897   3.490   4.516   3.110  0.1141 -0.0746  0.0463
  196MOL   H10823898   3.447   4.498   3.012 -2.3742 -1.3775  1.3488
  196MOL   H10923899   3.417   4.511   3.191  0.1639 -0.0599  0.0921
  196MOL   C11023900   3.594   4.415   3.148  0.1726  0.3080 -0.1520
  196MOL   F11123901   3.685   4.406   3.053 -0.2183  0.7743 -0.1672
  196MOL   F11223902   3.641   4.448   3.266  0.1224  0.1945  0.0475
  196MOL   C11323903   3.524   4.280   3.175  0.1270  0.3838  0.1883
  196MOL   H11423904   3.480   4.283   3.275 -0.7392  1.3666 -0.2135
  196MOL   H11523905   3.601   4.203   3.170  0.4515  0.5524  2.0295
  196MOL   C11623906   3.413   4.236   3.075  0.6566 -0.1351 -0.3874
  196MOL   F11723907   3.307   4.316   3.091 -0.4465  0.3110 -0.2267
  196MOL   F11823908   3.465   4.237   2.953 -0.2539  0.1491 -0.0322
  196MOL   C11923909   3.369   4.089   3.091  0.0383  0.2557 -0.2166
  196MOL   H12023910   3.444   4.016   3.060  0.4454  0.4988  0.1918
  196MOL   H12123911   3.274   4.074   3.039 -0.0103  0.9295 -0.3261
  196MOL   H12223912   3.347   4.065   3.195  2.8065  1.5407  0.6955
  197MOL     C123913   6.398   6.547   3.707  0.7304  0.3627 -0.0118
  197MOL     F223914   6.380   6.528   3.577 -0.1642  0.2052  0.2195
  197MOL     F323915   6.338   6.659   3.737 -0.0881 -0.2406 -0.2597
  197MOL     C423916   6.547   6.563   3.744  0.4557  0.4987  0.5409
  197MOL     H523917   6.581   6.655   3.694 -0.2325  0.0261 -0.8317
  197MOL     H623918   6.597   6.483   3.689 -1.1945  0.1800 -0.5283
  197MOL     H723919   6.366   6.460   3.764  1.9011  0.9082  1.5166
  197MOL     C823920   6.586   6.575   3.892  0.2888 -0.2785  0.0828
  197MOL     F923921   6.548   6.700   3.940 -0.1403  0.2235 -0.0828
  197MOL    F1023922   6.535   6.463   3.958 -0.3860  0.6552  0.3666
  197MOL    C1123923   6.742   6.565   3.910 -0.9531 -0.3986  0.2567
  197MOL    H1223924   6.787   6.475   3.869 -0.6924 -0.7384  1.2826
  197MOL    H1323925   6.769   6.559   4.015  1.3686  1.1356 -0.1936
  197MOL    C1423926   6.830   6.684   3.856 -0.5527 -0.1037  0.2662
  197MOL    F1523927   6.873   6.657   3.736 -0.0925  0.0591 -0.3151
  197MOL    F1623928   6.756   6.790   3.839 -0.0716  0.0378 -0.4206
  197MOL    C1723929   6.946   6.723   3.949 -0.2342 -0.7936  0.0664
  197MOL    H1823930   6.917   6.751   4.051 -1.3833  2.9844 -1.2167
  197MOL    H1923931   6.988   6.818   3.916  0.6423 -0.4745  2.0102
  197MOL    C2023932   7.067   6.633   3.968  0.5115 -0.2091 -0.0811
  197MOL    F2123933   7.020   6.523   4.025 -0.2144 -0.6382 -0.0474
  197MOL    F2223934   7.119   6.617   3.849 -0.5636  0.4161  0.1150
  197MOL    C2323935   7.169   6.699   4.058 -0.4475  0.4572  0.2188
  197MOL    H2423936   7.123   6.722   4.154  2.3740  1.2603  1.4305
  197MOL    H2523937   7.204   6.793   4.017  0.4074 -0.2782 -0.7706
  197MOL    C2623938   7.291   6.610   4.088 -0.3060  0.6228  0.0029
  197MOL    F2723939   7.373   6.658   4.180  0.5675  0.1408  0.0792
  197MOL    F2823940   7.246   6.495   4.135 -0.2020  0.4069 -0.3529
  197MOL    C2923941   7.384   6.576   3.971 -0.1919 -0.0589 -0.5197
  197MOL    H3023942   7.332   6.511   3.900  1.7171 -0.8799 -1.1904
  197MOL    H3123943   7.471   6.524   4.009 -0.4464  1.0010  1.5748
  197MOL    C3223944   7.429   6.696   3.888 -0.4078  0.8124 -0.6088
  197MOL    F3323945   7.326   6.748   3.813  0.0230 -0.5731  0.2722
  197MOL    F3423946   7.468   6.788   3.969  0.1836  0.0546 -0.3196
  197MOL    C3523947   7.558   6.675   3.811  0.3966 -0.2215 -1.4604
  197MOL    H3623948   7.632   6.634   3.880  1.7228  3.1412 -0.7939
  197MOL    H3723949   7.610   6.762   3.771 -1.3299  0.6333 -1.8903
  197MOL    C3823950   7.554   6.568   3.706 -0.5374  0.2464  0.6662
  197MOL    F3923951   7.547   6.447   3.761  0.5890 -0.0516 -0.8342
  197MOL    F4023952   7.449   6.596   3.630  0.1405  0.3903 -0.2036
  197MOL    C4123953   7.680   6.564   3.620  0.3192  0.4443  0.0126
  197MOL    H4223954   7.687   6.644   3.546  0.0959  0.8406  0.4153
  197MOL    H4323955   7.656   6.479   3.557  2.6728 -1.9101  2.1597
  197MOL    C4423956   7.817   6.549   3.693  0.3598  0.2279  0.3500
  197MOL    F4523957   7.849   6.660   3.751  0.7223 -0.3362 -0.0116
  197MOL    F4623958   7.787   6.470   3.793 -0.2856 -0.0444 -0.3070
  197MOL    C4723959   7.934   6.515   3.599 -0.4653  0.5832 -0.2101
  197MOL    H4823960   7.928   6.570   3.505  0.6379  1.7779  0.3931
  197MOL    H4923961   7.917   6.416   3.557  0.0292  0.3629  0.1102
  197MOL    C5023962   8.076   6.509   3.670 -0.8555  0.0964  0.2652
  197MOL    F5123963   8.098   6.635   3.695  0.0749  0.2871 -0.3981
  197MOL    F5223964   8.066   6.458   3.790  0.1320 -0.7512 -0.8865
  197MOL    C5323965   8.193   6.450   3.588  1.0070  0.4451  0.1371
  197MOL    H5423966   8.183   6.342   3.576  0.6917  0.5891 -0.9144
  197MOL    H5523967   8.277   6.454   3.658  0.7446 -0.5417  0.5127
  197MOL    C5623968   8.235   6.503   3.452  0.8178 -0.0723  0.2905
  197MOL    F5723969   8.339   6.430   3.402  0.1230 -0.0208  0.4168
  197MOL    F5823970   8.132   6.486   3.359  0.2509 -0.6734 -0.7185
  197MOL    C5923971   8.267   6.649   3.453  0.0303 -0.2446 -0.4302
  197MOL    H6023972   8.174   6.704   3.471 -0.5221 -1.6267  1.1363
  197MOL    H6123973   8.278   6.678   3.349 -1.1144 -1.1554 -0.8086
  197MOL    C6223974   0.033   6.697   3.544 -0.0866  0.7357 -0.0634
  197MOL    F6323975   0.001   6.680   3.669  0.6290 -0.0543  0.1973
  197MOL    F6423976   0.135   6.614   3.516  0.4563 -0.2178 -0.0580
  197MOL    C6523977   0.077   6.843   3.516  0.4196 -0.1016 -0.9458
  197MOL    H6623978   0.099   6.842   3.409 -1.5631  2.2291 -1.4161
  197MOL    H6723979   0.174   6.857   3.563  0.2098  0.5884 -0.7210
  197MOL    C6823980   8.333   6.958   3.553  0.2932  0.6727  0.6862
  197MOL    F6923981   8.209   6.933   3.535 -0.1128  0.8424  0.0823
  197MOL    F7023982   8.344   6.973   3.687  0.2087 -0.0447  0.3992
  197MOL    C7123983   0.002   7.104   3.493  0.2334  0.0954 -0.8810
  197MOL    H7223984   0.104   7.130   3.520 -0.3604  0.3605  1.2459
  197MOL    H7323985   8.286   7.175   3.544  0.2597 -0.0364 -0.6639
  197MOL    C7423986   8.324   7.120   3.346 -0.2812 -0.8860 -0.3727
  197MOL    F7523987   0.062   7.044   3.278 -0.0915 -0.1969  0.0110
  197MOL    F7623988   8.205   7.077   3.323 -0.0531 -0.2571 -0.1939
  197MOL    C7723989   8.333   7.270   3.307  0.2929 -0.3536 -0.3460
  197MOL    H7823990   0.076   7.314   3.345 -0.3251  0.7931 -0.1515
  197MOL    H7923991   8.247   7.320   3.353  1.4919  1.2803  0.1946
  197MOL    C8023992   8.314   7.297   3.154  0.3908 -0.4500 -0.1279
  197MOL    F8123993   0.069   7.245   3.087  1.0452  0.2696 -0.2341
  197MOL    F8223994   8.212   7.224   3.105 -0.1261  0.2130  0.5078
  197MOL    C8323995   8.303   7.448   3.103 -0.0619  0.1638 -0.1769
  197MOL    H8423996   8.212   7.496   3.138 -0.4277  0.1554 -1.0894
  197MOL    H8523997   8.279   7.442   2.997  0.5855 -0.2394 -0.3055
  197MOL    C8623998   0.080   7.528   3.130  0.4454 -0.0891 -0.1937
  197MOL    F8723999   0.061   7.581   3.247  0.5292  0.6693  0.3895
  197MOL    F8824000   0.183   7.449   3.125  0.0091 -0.0133 -0.0439
  197MOL    C8924001   0.107   7.628   3.016  0.1202 -0.1359 -0.4342
  197MOL    H9024002   0.013   7.674   2.986 -0.0847  1.0841  1.9134
  197MOL    H9124003   0.137   7.567   2.931  2.0684 -0.1693  0.2525
  197MOL    C9224004   0.218   7.727   3.058 -0.2875 -1.1696  0.3155
  197MOL    F9324005   0.176   7.808   3.150  0.4673 -0.2316 -0.0414
  197MOL    F9424006   0.326   7.668   3.108 -0.2138 -0.3832 -0.4914
  197MOL    C9524007   0.269   7.815   2.937  0.2395  0.1852  0.6970
  197MOL    H9624008   0.314   7.905   2.979 -0.0901  2.0573 -2.7930
  197MOL    H9724009   0.177   7.840   2.884 -0.5584 -1.8262  1.1053
  197MOL    C9824010   0.367   7.754   2.832 -0.5117 -0.0713  0.6480
  197MOL    F9924011   0.316   7.646   2.779 -0.1761  0.0764  0.1598
  197MOL   F10024012   0.386   7.836   2.731 -0.1793  0.4200  0.0891
  197MOL   C10124013   0.509   7.717   2.885  0.2955 -0.6892  0.1225
  197MOL   H10224014   0.565   7.674   2.802  3.0367  3.3543 -0.2364
  197MOL   H10324015   0.494   7.648   2.969  0.6293  0.4974  1.1706
  197MOL   C10424016   0.600   7.829   2.945  0.3182 -0.0966  0.3152
  197MOL   F10524017   0.549   7.853   3.063  0.5869 -0.6888 -1.1079
  197MOL   F10624018   0.719   7.782   2.968 -0.1351  0.0598  0.0292
  197MOL   C10724019   0.619   7.947   2.850  0.6711 -0.0549 -0.4377
  197MOL   H10824020   0.523   7.999   2.841  1.7288  1.6830 -1.9188
  197MOL   H10924021   0.629   7.907   2.749  0.3652  0.2050 -0.5716
  197MOL   C11024022   0.735   8.038   2.883  0.3361  0.2648 -0.5133
  197MOL   F11124023   0.743   8.058   3.018  0.1476  0.2636 -0.4265
  197MOL   F11224024   0.849   7.975   2.854  0.0459  0.0099  0.0312
  197MOL   C11324025   0.731   8.172   2.814  0.3213 -0.7632 -0.3300
  197MOL   H11424026   0.824   8.223   2.837 -0.7194  1.4442 -0.9198
  197MOL   H11524027   0.659   8.239   2.860  3.3807  1.4150  1.4712
  197MOL   C11624028   0.707   8.173   2.664  0.3553  0.7883  0.0731
  197MOL   F11724029   0.577   8.149   2.627  0.2462 -0.5297  0.5911
  197MOL   F11824030   0.733   8.303   2.630 -0.4355  0.4245  0.4612
  197MOL   C11924031   0.814   8.082   2.592  0.1824  0.3082  0.3047
  197MOL   H12024032   0.920   8.104   2.605  0.8819 -2.2266 -0.8308
  197MOL   H12124033   0.818   8.093   2.483  1.5448 -2.5754  0.0009
  197MOL   H12224034   0.786   7.979   2.614 -1.1210  0.7217  0.6210
  198MOL     C124035   2.485   1.359   2.131  0.3703 -0.7137  0.8873
  198MOL     F224036   2.498   1.238   2.182 -0.1227 -0.2516 -0.2765
  198MOL     F324037   2.462   1.444   2.235  0.0663 -0.4255 -0.3455
  198MOL     C424038   2.368   1.367   2.026 -0.9673  0.4399  0.0547
  198MOL     H524039   2.345   1.473   2.013  0.7789  0.6619 -1.4028
  198MOL     H624040   2.275   1.341   2.075  0.7950 -2.2710  2.0739
  198MOL     H724041   2.588   1.379   2.101 -0.0321 -2.8727 -2.0978
  198MOL     C824042   2.389   1.290   1.897  0.2833  0.5108 -0.5820
  198MOL     F924043   2.475   1.364   1.829  0.5847  0.4010 -0.2002
  198MOL    F1024044   2.445   1.169   1.922  0.0012 -0.4643  0.0601
  198MOL    C1124045   2.266   1.272   1.808  0.0411 -0.3589  0.5625
  198MOL    H1224046   2.213   1.368   1.806 -0.5863 -0.7113 -0.1786
  198MOL    H1324047   2.204   1.207   1.869 -1.2591 -0.2757 -0.6491
  198MOL    C1424048   2.292   1.223   1.671 -0.6072  0.6082 -0.0788
  198MOL    F1524049   2.165   1.204   1.626  0.1201 -0.7313 -0.6044
  198MOL    F1624050   2.359   1.315   1.601 -0.1717 -0.3930  0.0713
  198MOL    C1724051   2.374   1.090   1.661 -0.6311 -0.4721 -0.0804
  198MOL    H1824052   2.338   1.018   1.735  1.1283 -2.2804 -0.9429
  198MOL    H1924053   2.479   1.107   1.681 -1.0028  1.2284  0.4977
  198MOL    C2024054   2.370   1.029   1.524  0.2580 -0.5610 -0.2857
  198MOL    F2124055   2.242   0.989   1.493  0.3872  0.2857  0.0391
  198MOL    F2224056   2.410   1.124   1.444  0.0389 -0.3274  0.2340
  198MOL    C2324057   2.469   0.915   1.509  1.0619  0.2076  0.1870
  198MOL    H2424058   2.439   0.827   1.566 -1.1618 -0.1522 -1.4585
  198MOL    H2524059   2.566   0.944   1.549  1.2680  0.8638 -0.7868
  198MOL    C2624060   2.483   0.859   1.365 -0.2379  0.0174 -0.1050
  198MOL    F2724061   2.517   0.951   1.275 -0.1597  1.0178 -0.1866
  198MOL    F2824062   2.585   0.769   1.372  0.1987 -0.2042 -0.7055
  198MOL    C2924063   2.356   0.784   1.319 -0.0171  0.0643 -0.5317
  198MOL    H3024064   2.288   0.867   1.298  0.2161  0.5750  0.6924
  198MOL    H3124065   2.321   0.731   1.408 -0.1290 -1.6292 -1.5728
  198MOL    C3224066   2.369   0.692   1.188  0.4389 -0.0122 -0.7744
  198MOL    F3324067   2.431   0.577   1.226 -0.1183 -0.3310 -0.0126
  198MOL    F3424068   2.250   0.662   1.139  0.0890 -0.0619  0.1064
  198MOL    C3524069   2.465   0.761   1.082  0.2087 -0.0184  0.4211
  198MOL    H3624070   2.568   0.773   1.114  0.8340 -0.2945 -1.4650
  198MOL    H3724071   2.436   0.866   1.078 -0.2066 -0.1796 -1.0726
  198MOL    C3824072   2.459   0.693   0.942 -0.0612 -0.1279 -1.3369
  198MOL    F3924073   2.334   0.701   0.898 -0.0408  0.0912  0.2397
  198MOL    F4024074   2.539   0.772   0.864 -0.4673  0.0983 -0.4980
  198MOL    C4124075   2.502   0.542   0.946  0.0404  0.0815  0.3511
  198MOL    H4224076   2.426   0.478   0.990 -0.3099  0.2730  0.0261
  198MOL    H4324077   2.595   0.525   1.000  0.0261 -0.8089  0.0961
  198MOL    C4424078   2.554   0.485   0.816 -0.1697 -0.2545 -0.0442
  198MOL    F4524079   2.668   0.538   0.787  0.0567 -0.2656  0.0091
  198MOL    F4624080   2.582   0.353   0.834  0.7971  0.0369 -0.1234
  198MOL    C4724081   2.459   0.494   0.695  0.6089 -0.4415 -0.0150
  198MOL    H4824082   2.521   0.468   0.610  0.2396 -0.0112 -0.4222
  198MOL    H4924083   2.428   0.598   0.678  0.4307 -0.5973 -0.6828
  198MOL    C5024084   2.319   0.420   0.703 -0.5405 -0.0312 -0.4666
  198MOL    F5124085   2.336   0.305   0.769 -0.2789  0.3230  0.6731
  198MOL    F5224086   2.228   0.494   0.757 -0.3041 -0.1900 -0.1506
  198MOL    C5324087   2.263   0.382   0.559 -0.2478  0.2934  0.4963
  198MOL    H5424088   2.173   0.320   0.557 -1.2244  1.7207  0.1156
  198MOL    H5524089   2.339   0.314   0.521  1.0971  0.8530  2.1339
  198MOL    C5624090   2.239   0.499   0.457  0.0341 -0.6058 -0.2203
  198MOL    F5724091   2.149   0.576   0.513 -0.1465  0.1790  1.0329
  198MOL    F5824092   2.348   0.577   0.439 -0.1031  0.2350  0.0701
  198MOL    C5924093   2.188   0.464   0.314  0.6644  0.1864  0.0570
  198MOL    H6024094   2.198   0.554   0.254 -1.4183  0.6361  0.3520
  198MOL    H6124095   2.083   0.438   0.321  0.7351 -0.2041 -0.3238
  198MOL    C6224096   2.255   0.342   0.240 -0.0617  0.5578  0.1221
  198MOL    F6324097   2.387   0.355   0.224  0.1309  0.0912  0.2618
  198MOL    F6424098   2.220   0.226   0.287  0.0197  0.4852  0.2555
  198MOL    C6524099   2.195   0.325   0.100  0.2596  0.0199 -0.3269
  198MOL    H6624100   2.206   0.421   0.048 -0.6544  0.0230 -0.5173
  198MOL    H6724101   2.089   0.318   0.125  0.2883 -0.2439 -0.2833
  198MOL    C6824102   2.246   0.213   0.008  0.3946  0.7554 -0.0711
  198MOL    F6924103   2.374   0.213   0.010 -0.2641 -0.2566 -0.2705
  198MOL    F7024104   2.205   0.093   0.042  0.1693 -0.3013  0.0823
  198MOL    C7124105   2.183   0.242   8.215  0.1651  0.1126  0.4552
  198MOL    H7224106   2.212   0.341   8.181 -0.5035  1.0910  2.6667
  198MOL    H7324107   2.075   0.247   8.225  0.3349  1.9807  1.5059
  198MOL    C7424108   2.197   0.140   8.098 -0.9486 -0.7734 -0.0667
  198MOL    F7524109   2.167   0.027   8.150 -0.2308 -0.6416 -0.1297
  198MOL    F7624110   2.115   0.166   7.995  0.3575  0.1965 -0.1010
  198MOL    C7724111   2.339   0.135   8.034  0.2044  0.0058 -0.7015
  198MOL    H7824112   2.319   0.056   7.961 -4.1201  0.3797 -0.0237
  198MOL    H7924113   2.404   0.095   8.112 -1.4835 -0.5124  0.4659
  198MOL    C8024114   2.395   0.267   7.971  0.1152  0.5095 -0.3107
  198MOL    F8124115   2.306   0.307   7.878 -0.2050 -0.2666 -0.0871
  198MOL    F8224116   2.404   0.365   8.063  0.2060 -0.6069 -0.7081
  198MOL    C8324117   2.529   0.253   7.905 -0.4249  0.0282  0.0021
  198MOL    H8424118   2.572   0.351   7.887  0.7290 -0.9423 -2.8987
  198MOL    H8524119   2.518   0.199   7.811 -0.0437 -2.0030  1.1005
  198MOL    C8624120   2.641   0.170   7.977  0.3746 -0.1861  0.0246
  198MOL    F8724121   2.641   0.207   8.102  0.1031 -0.3675 -0.3773
  198MOL    F8824122   2.615   0.037   7.963  0.4547 -0.0894 -0.0685
  198MOL    C8924123   2.773   0.209   7.908 -0.0993  0.4102  0.2436
  198MOL    H9024124   2.778   0.316   7.928  0.5605  0.1658  1.4448
  198MOL    H9124125   2.774   0.196   7.800 -0.7954  0.4577  0.2334
  198MOL    C9224126   2.902   0.129   7.953  0.6038  0.4815 -0.0342
  198MOL    F9324127   3.007   0.190   7.898  0.2844  0.4471 -0.0607
  198MOL    F9424128   2.903   0.138   8.086  0.3616 -0.7269 -0.3408
  198MOL    C9524129   2.914   8.326   7.913  0.5582 -0.3348 -0.4619
  198MOL    H9624130   2.897   8.329   7.806 -0.1686  1.0529 -0.3209
  198MOL    H9724131   2.824   8.277   7.950  2.9273 -2.3618  2.9789
  198MOL    C9824132   3.041   8.250   7.968 -0.8506  0.7449 -0.3629
  198MOL    F9924133   3.146   8.312   7.923 -0.1703  0.4403  0.2235
  198MOL   F10024134   3.040   8.255   8.103  0.1302 -0.3588  0.0023
  198MOL   C10124135   3.048   8.101   7.915  0.1567 -0.2026 -0.1841
  198MOL   H10224136   3.036   8.109   7.807 -0.7281  0.8457 -0.0182
  198MOL   H10324137   2.964   8.044   7.954 -0.0748  0.0656 -0.2918
  198MOL   C10424138   3.178   8.021   7.937 -0.1397  1.2602  0.0505
  198MOL   F10524139   3.139   7.899   7.885 -0.2547 -0.3261 -0.5050
  198MOL   F10624140   3.274   8.066   7.856 -0.0606 -0.3284  0.5499
  198MOL   C10724141   3.237   8.022   8.081 -0.2619  0.4753 -0.4370
  198MOL   H10824142   3.151   7.999   8.145  0.4978 -0.3173  0.3038
  198MOL   H10924143   3.267   8.126   8.093  1.9575 -0.1563 -0.4308
  198MOL   C11024144   3.330   7.900   8.120 -0.0669 -0.4852  0.0146
  198MOL   F11124145   3.442   7.908   8.045 -0.2224 -0.7950 -0.3599
  198MOL   F11224146   3.380   7.927   8.241  0.5208  0.1264  0.1870
  198MOL   C11324147   3.276   7.756   8.120 -0.1872  0.7271 -0.3527
  198MOL   H11424148   3.356   7.687   8.148  0.1308  0.7032 -1.3049
  198MOL   H11524149   3.246   7.726   8.019  1.5071 -0.3863 -0.5531
  198MOL   C11624150   3.158   7.717   8.215  0.1980  0.9207 -0.2971
  198MOL   F11724151   3.056   7.788   8.172  0.6314  0.5260  0.0622
  198MOL   F11824152   3.139   7.588   8.183 -0.1119 -0.2570  0.0637
  198MOL   C11924153   3.167   7.735   0.020 -0.5047  0.1590 -0.6713
  198MOL   H12024154   3.245   7.687   0.081 -0.0962  0.3005 -1.0805
  198MOL   H12124155   3.077   7.703   0.072  0.3637 -1.3816 -0.0667
  198MOL   H12224156   3.179   7.842   0.038  3.0071 -0.3436  0.4919
  199MOL     C124157   6.962   8.032   6.616 -0.3875 -0.0361  0.8948
  199MOL     F224158   7.080   8.076   6.669  0.5959  0.7102  0.9233
  199MOL     F324159   6.865   8.107   6.654  0.3321  0.0961 -0.2991
  199MOL     C424160   6.953   7.882   6.649  0.4942  0.3346 -0.3541
  199MOL     H524161   6.960   7.860   6.756 -1.2717 -0.5488 -0.3994
  199MOL     H624162   7.046   7.845   6.606 -0.5200 -1.6197 -0.9368
  199MOL     H724163   6.979   8.054   6.511  2.3837 -0.0127  1.3153
  199MOL     C824164   6.831   7.810   6.588  0.2021 -0.0321 -0.2643
  199MOL     F924165   6.727   7.887   6.621  0.2536  0.6034 -0.3318
  199MOL    F1024166   6.835   7.824   6.456 -0.3073 -0.0575  0.2567
  199MOL    C1124167   6.805   7.662   6.625  0.4409 -0.0453 -0.5083
  199MOL    H1224168   6.802   7.644   6.733 -0.4861  0.8671 -0.3714
  199MOL    H1324169   6.883   7.596   6.587  1.7774  0.5843  1.0256
  199MOL    C1424170   6.674   7.605   6.564 -0.0210 -0.6543 -0.3041
  199MOL    F1524171   6.563   7.676   6.593 -0.6511  0.0415  0.4652
  199MOL    F1624172   6.676   7.610   6.432  0.2236 -0.3440 -0.1667
  199MOL    C1724173   6.653   7.459   6.608 -0.5847 -0.6704  0.5455
  199MOL    H1824174   6.546   7.438   6.601 -0.6583 -0.6010  1.4644
  199MOL    H1924175   6.661   7.467   6.716 -4.3804 -2.2331  1.0265
  199MOL    C2024176   6.758   7.350   6.565 -0.5227  0.2874  0.2870
  199MOL    F2124177   6.884   7.383   6.603  0.1934 -0.0614 -0.3595
  199MOL    F2224178   6.734   7.235   6.629 -0.0806  0.2749  0.1835
  199MOL    C2324179   6.739   7.322   6.415  0.5655  0.1571 -0.1622
  199MOL    H2424180   6.781   7.396   6.347  1.9137 -1.0265 -0.6127
  199MOL    H2524181   6.634   7.334   6.388 -0.2670 -0.2057  2.7333
  199MOL    C2624182   6.805   7.194   6.364  0.2224 -0.0471 -0.2103
  199MOL    F2724183   6.936   7.201   6.390  0.7040  0.5349 -0.2808
  199MOL    F2824184   6.759   7.087   6.433  0.1848 -0.1524  0.6873
  199MOL    C2924185   6.798   7.172   6.213 -0.5651  0.4649  1.0142
  199MOL    H3024186   6.852   7.078   6.200  0.5893  1.2221  0.2006
  199MOL    H3124187   6.867   7.238   6.162  1.4805 -1.3952  1.3161
  199MOL    C3224188   6.660   7.154   6.146 -0.8758  0.0056 -0.4355
  199MOL    F3324189   6.601   7.278   6.150  0.0832  0.4028  0.4385
  199MOL    F3424190   6.679   7.123   6.014  0.7313 -0.2993  0.1322
  199MOL    C3524191   6.566   7.050   6.204  0.2877  0.6295 -0.3531
  199MOL    H3624192   6.467   7.077   6.169 -1.0855 -1.4354  1.8128
  199MOL    H3724193   6.546   7.060   6.311  3.1216  0.3413  0.2487
  199MOL    C3824194   6.609   6.906   6.174  0.5165 -0.2522 -0.5603
  199MOL    F3924195   6.634   6.883   6.043 -0.2986  0.3344  0.4425
  199MOL    F4024196   6.719   6.884   6.240  0.0104 -0.0135 -0.0180
  199MOL    C4124197   6.510   6.812   6.238  0.0360  0.4586  0.7257
  199MOL    H4224198   6.499   6.818   6.346  1.4882 -0.6502  0.9463
  199MOL    H4324199   6.558   6.714   6.237  0.5489  0.6891  1.8583
  199MOL    C4424200   6.367   6.804   6.177 -0.3754  0.1784 -0.1829
  199MOL    F4524201   6.307   6.701   6.238  0.3584 -0.1417  0.1631
  199MOL    F4624202   6.295   6.911   6.211 -0.2613 -0.5259  0.2402
  199MOL    C4724203   6.362   6.771   6.023 -0.1074 -0.3379  0.0878
  199MOL    H4824204   6.430   6.841   5.975  0.4264 -0.6833  0.3369
  199MOL    H4924205   6.257   6.791   6.001 -0.5723 -0.9859  1.6409
  199MOL    C5024206   6.401   6.634   5.970 -0.0329 -0.7440  0.2497
  199MOL    F5124207   6.527   6.599   5.995 -0.2993 -0.0198  0.4449
  199MOL    F5224208   6.324   6.538   6.029  0.2473 -0.7292 -0.0232
  199MOL    C5324209   6.394   6.605   5.813 -0.1246  0.2466  0.4441
  199MOL    H5424210   6.294   6.626   5.774 -0.6789  0.3268  1.8873
  199MOL    H5524211   6.415   6.499   5.803  0.5640  0.3504  0.7415
  199MOL    C5624212   6.496   6.677   5.722  0.0455 -0.0218 -0.0073
  199MOL    F5724213   6.465   6.807   5.734 -0.0428 -0.2989 -0.1376
  199MOL    F5824214   6.615   6.655   5.767 -0.0050  0.1107  0.0242
  199MOL    C5924215   6.491   6.626   5.577  0.0475  0.2810  0.9970
  199MOL    H6024216   6.386   6.630   5.548 -0.6216 -0.4976  3.1872
  199MOL    H6124217   6.511   6.519   5.570 -0.3236  0.2148  0.9334
  199MOL    C6224218   6.580   6.696   5.479 -0.2165  0.2415  0.2903
  199MOL    F6324219   6.529   6.817   5.452 -0.2590 -0.0582  0.2768
  199MOL    F6424220   6.701   6.701   5.523 -0.4111  0.3655 -0.0577
  199MOL    C6524221   6.575   6.624   5.342  0.1380 -0.6183  0.3309
  199MOL    H6624222   6.467   6.627   5.322  0.6394 -0.3258 -2.4850
  199MOL    H6724223   6.601   6.520   5.362  0.5073 -0.3661  1.1410
  199MOL    C6824224   6.656   6.684   5.222  0.6153 -0.7027 -0.4727
  199MOL    F6924225   6.791   6.671   5.235  0.5502  0.0186  0.6265
  199MOL    F7024226   6.611   6.609   5.115  0.3716 -0.6986 -0.0977
  199MOL    C7124227   6.628   6.836   5.200 -0.6190  0.4663  0.5399
  199MOL    H7224228   6.666   6.894   5.284 -1.1783 -0.3210  1.3485
  199MOL    H7324229   6.520   6.853   5.207 -1.0877 -1.2862 -1.6858
  199MOL    C7424230   6.672   6.896   5.067  0.6568 -0.9497 -0.5530
  199MOL    F7524231   6.583   6.846   4.977  0.2277 -0.3617 -0.2853
  199MOL    F7624232   6.648   7.025   5.081  0.0893 -0.1509  0.2906
  199MOL    C7724233   6.816   6.868   5.025 -0.2373  0.0263 -0.0305
  199MOL    H7824234   6.842   6.762   5.022  0.5654  0.2269 -0.3945
  199MOL    H7924235   6.886   6.916   5.092 -2.4440  1.6592  1.1805
  199MOL    C8024236   6.845   6.919   4.882  0.4258 -1.0388 -0.1730
  199MOL    F8124237   6.974   6.902   4.863 -0.2017  0.1051  0.1630
  199MOL    F8224238   6.775   6.847   4.789  0.0449 -0.1953 -0.5211
  199MOL    C8324239   6.811   7.066   4.866  0.0541 -0.0386  0.3099
  199MOL    H8424240   6.838   7.130   4.951 -2.6272  1.3978  0.1232
  199MOL    H8524241   6.703   7.065   4.859  0.0835 -0.5646 -0.0339
  199MOL    C8624242   6.863   7.123   4.730 -0.3417 -0.3097  0.1079
  199MOL    F8724243   6.992   7.158   4.756 -0.3775 -0.0513  0.3116
  199MOL    F8824244   6.879   7.028   4.637  0.2389 -0.5106 -0.7620
  199MOL    C8924245   6.786   7.249   4.670 -0.5035 -0.1382  0.3862
  199MOL    H9024246   6.759   7.320   4.748  0.2950  1.7977 -1.0276
  199MOL    H9124247   6.687   7.225   4.634  0.2578 -1.0634 -1.1422
  199MOL    C9224248   6.870   7.322   4.557  0.0117 -0.4316 -0.0523
  199MOL    F9324249   6.950   7.396   4.636  0.2957  0.5648  0.0119
  199MOL    F9424250   6.940   7.228   4.495 -0.7107  0.9530  0.1982
  199MOL    C9524251   6.785   7.407   4.459  0.0078  0.0841 -0.1905
  199MOL    H9624252   6.725   7.336   4.402 -0.8218  1.4157 -1.0340
  199MOL    H9724253   6.849   7.443   4.378 -1.1811  1.9506 -0.3459
  199MOL    C9824254   6.695   7.524   4.503  0.0160  0.7808  0.5420
  199MOL    F9924255   6.620   7.485   4.603  0.2002  0.1146 -0.7458
  199MOL   F10024256   6.760   7.638   4.533 -0.0808  0.2237  0.2369
  199MOL   C10124257   6.589   7.556   4.395 -0.4549  0.7212  0.3727
  199MOL   H10224258   6.520   7.630   4.436  0.2285  1.8033 -0.3794
  199MOL   H10324259   6.512   7.481   4.379  1.2655 -0.8983 -0.5139
  199MOL   C10424260   6.638   7.596   4.264 -0.6586 -0.2242  0.4042
  199MOL   F10524261   6.753   7.660   4.263 -0.8142  0.0041  0.2080
  199MOL   F10624262   6.663   7.479   4.200 -0.1649  0.3588 -0.1933
  199MOL   C10724263   6.534   7.659   4.166  0.5225  0.1421 -0.0628
  199MOL   H10824264   6.442   7.603   4.180  0.4453  0.3743  0.3758
  199MOL   H10924265   6.579   7.651   4.067 -1.1269  0.7300 -0.8872
  199MOL   C11024266   6.500   7.810   4.198  0.0179  0.3995  0.6977
  199MOL   F11124267   6.444   7.811   4.313 -0.2954 -0.1164  0.0054
  199MOL   F11224268   6.613   7.883   4.203 -0.1414  0.3038  1.0090
  199MOL   C11324269   6.402   7.878   4.100  0.3586 -0.3631 -0.3581
  199MOL   H11424270   6.369   7.977   4.132  1.5497 -0.3867  1.0025
  199MOL   H11524271   6.317   7.810   4.106 -0.9922  1.2120 -1.1524
  199MOL   C11624272   6.450   7.894   3.955 -0.2035  0.3357 -0.2990
  199MOL   F11724273   6.581   7.925   3.936 -0.6322 -0.4949  0.1874
  199MOL   F11824274   6.422   7.787   3.889  0.5148  0.3951  0.8437
  199MOL   C11924275   6.370   8.011   3.894 -0.3512 -0.1234  0.2976
  199MOL   H12024276   6.263   8.002   3.913 -0.2280 -2.6090 -0.0420
  199MOL   H12124277   6.378   7.996   3.786 -1.6575  1.2545 -0.0113
  199MOL   H12224278   6.400   8.113   3.919 -0.0718 -0.3342  0.8334
  200MOL     C124279   2.235   3.413   7.779 -0.0688 -0.3878 -0.3673
  200MOL     F224280   2.111   3.381   7.825 -0.3485 -0.0944  0.2480
  200MOL     F324281   2.217   3.487   7.666 -0.5031  0.3303 -0.0058
  200MOL     C424282   2.309   3.278   7.745 -0.1587 -0.3870 -0.8552
  200MOL     H524283   2.408   3.302   7.706  1.1802 -2.4086  1.1765
  200MOL     H624284   2.254   3.237   7.660  1.0191  1.3963 -2.5252
  200MOL     H724285   2.290   3.484   7.842 -0.0342 -0.9894  0.2846
  200MOL     C824286   2.318   3.169   7.861 -0.3884 -0.8997  0.3794
  200MOL     F924287   2.373   3.225   7.968 -0.4253  0.0037  0.1223
  200MOL    F1024288   2.190   3.136   7.894 -0.1315 -0.8574 -0.0132
  200MOL    C1124289   2.408   3.048   7.830  0.2712  1.0957  0.4024
  200MOL    H1224290   2.513   3.072   7.816  0.4136  1.6528  2.3863
  200MOL    H1324291   2.384   3.004   7.733  0.2956 -1.9921  1.7369
  200MOL    C1424292   2.399   2.935   7.939 -0.3198 -0.1354 -0.2915
  200MOL    F1524293   2.479   2.836   7.885  0.1477 -0.0906  0.0657
  200MOL    F1624294   2.450   2.978   8.048 -0.0901 -0.3581  0.8056
  200MOL    C1724295   2.260   2.870   7.973  0.0958 -1.0012 -0.0818
  200MOL    H1824296   2.216   2.849   7.875  0.8578 -1.1326 -0.3987
  200MOL    H1924297   2.196   2.947   8.016 -2.3946 -2.3719 -1.2168
  200MOL    C2024298   2.258   2.744   8.056  0.6459 -0.2654 -1.0845
  200MOL    F2124299   2.329   2.654   7.992 -0.2404 -0.0242  0.0369
  200MOL    F2224300   2.307   2.755   8.176 -0.0156 -0.1142  0.2938
  200MOL    C2324301   2.121   2.685   8.074  0.2753 -0.6670 -0.2613
  200MOL    H2424302   2.069   2.740   8.152  0.7612  1.0824 -1.1539
  200MOL    H2524303   2.125   2.580   8.102  2.3404 -0.4533  0.3181
  200MOL    C2624304   2.023   2.682   7.955  0.0417  0.0354 -0.2725
  200MOL    F2724305   1.977   2.806   7.936 -0.1822  0.2460 -0.2273
  200MOL    F2824306   2.077   2.643   7.838 -0.3746 -0.7713 -0.0646
  200MOL    C2924307   1.898   2.593   7.973  0.3534 -0.0259 -0.0166
  200MOL    H3024308   1.929   2.489   7.982  1.6287  0.3559  0.0775
  200MOL    H3124309   1.834   2.588   7.885 -2.2064  3.3306  1.5171
  200MOL    C3224310   1.803   2.629   8.091  0.5122  0.3407 -0.3762
  200MOL    F3324311   1.874   2.616   8.205 -0.0617  0.1429 -0.0976
  200MOL    F3424312   1.763   2.753   8.075  0.3979 -0.8507  0.5247
  200MOL    C3524313   1.679   2.537   8.103 -0.2674  0.4371  0.4018
  200MOL    H3624314   1.723   2.439   8.087 -1.5075 -0.5119  2.5402
  200MOL    H3724315   1.607   2.561   8.026 -0.1128 -1.3542 -0.3212
  200MOL    C3824316   1.617   2.527   8.247  0.1132  0.2521  0.1977
  200MOL    F3924317   1.523   2.435   8.235 -0.0223 -0.0746 -0.1670
  200MOL    F4024318   1.705   2.465   8.327 -0.0759 -0.7220  0.2930
  200MOL    C4124319   1.569   2.661   8.303 -0.5378  0.7252  0.5147
  200MOL    H4224320   1.503   2.703   8.227 -0.7936 -2.4277 -1.0720
  200MOL    H4324321   1.661   2.720   8.301 -0.2220  0.1977 -1.3080
  200MOL    C4424322   1.501   2.663   0.092 -0.1590  0.3734  0.4974
  200MOL    F4524323   1.383   2.605   0.063  0.3393  0.1633  0.3844
  200MOL    F4624324   1.567   2.598   0.184 -0.9252  0.3275  0.2441
  200MOL    C4724325   1.433   2.802   0.130 -0.1501 -0.2950 -0.3748
  200MOL    H4824326   1.339   2.783   0.181  0.2316 -0.0433  0.4346
  200MOL    H4924327   1.384   2.842   0.041 -0.7279 -1.6080 -0.6579
  200MOL    C5024328   1.526   2.906   0.187 -0.2039 -0.3535  0.0638
  200MOL    F5124329   1.613   2.928   0.095 -0.1153 -0.1354  0.0248
  200MOL    F5224330   1.451   3.008   0.225 -0.6463 -0.2982 -0.0542
  200MOL    C5324331   1.614   2.864   0.310 -0.1041  0.7401  0.2197
  200MOL    H5424332   1.686   2.786   0.284 -1.0744 -0.1317  0.1112
  200MOL    H5524333   1.547   2.822   0.386  1.4366 -0.1744  1.0880
  200MOL    C5624334   1.681   2.985   0.384  0.2438  0.3306  0.4072
  200MOL    F5724335   1.587   3.066   0.441 -0.0868 -0.1927 -0.1232
  200MOL    F5824336   1.746   2.924   0.486 -0.3942  0.2377 -0.2530
  200MOL    C5924337   1.783   3.067   0.311  0.4174 -0.6183 -0.5306
  200MOL    H6024338   1.736   3.100   0.218 -0.2418 -1.2602 -0.4325
  200MOL    H6124339   1.858   2.997   0.274  2.3676  1.4414 -0.5827
  200MOL    C6224340   1.842   3.191   0.388 -0.2080  0.1811  0.2753
  200MOL    F6324341   1.749   3.273   0.429 -0.5790 -0.2974  0.3940
  200MOL    F6424342   1.916   3.141   0.488  0.2008 -0.2475 -0.4201
  200MOL    C6524343   1.931   3.280   0.293 -0.0505  0.6179 -0.6892
  200MOL    H6624344   1.876   3.291   0.199 -3.0330 -1.0595  0.7871
  200MOL    H6724345   2.024   3.224   0.281 -0.9706 -1.3495  1.0378
  200MOL    C6824346   1.974   3.418   0.345  0.3658 -0.2268 -0.3706
  200MOL    F6924347   1.869   3.499   0.352  0.2329  0.2602  0.1334
  200MOL    F7024348   2.016   3.403   0.469 -0.0997  0.0005 -0.2385
  200MOL    C7124349   2.077   3.497   0.257 -0.2561  0.1216  0.1471
  200MOL    H7224350   2.041   3.508   0.155  0.4096  1.6464  0.0538
  200MOL    H7324351   2.158   3.425   0.247 -3.7421 -3.6758 -1.9588
  200MOL    C7424352   2.120   3.635   0.310 -0.1124 -0.0753  0.0843
  200MOL    F7524353   2.206   3.676   0.212  0.6953 -0.0932 -0.0947
  200MOL    F7624354   2.015   3.717   0.311 -0.7339  0.0631  0.2570
  200MOL    C7724355   2.192   3.617   0.451 -0.0299 -0.0476  0.2214
  200MOL    H7824356   2.248   3.524   0.455 -2.7436 -1.7350  0.7202
  200MOL    H7924357   2.125   3.627   0.536  1.7362  1.0114  1.4936
  200MOL    C8024358   2.285   3.730   0.489  0.0738  0.8849 -0.4903
  200MOL    F8124359   2.342   3.697   0.604  0.1998 -0.3648  0.0677
  200MOL    F8224360   2.385   3.725   0.393  0.3455  0.2544  0.6368
  200MOL    C8324361   2.217   3.867   0.489  0.3371 -0.2193 -0.3283
  200MOL    H8424362   2.128   3.878   0.550  1.8224  0.5029  1.7476
  200MOL    H8524363   2.186   3.897   0.389  1.0088 -0.2834 -0.5599
  200MOL    C8624364   2.313   3.981   0.530 -0.1866 -0.2948  0.5540
  200MOL    F8724365   2.395   3.997   0.430 -0.5981  0.6129  0.6182
  200MOL    F8824366   2.233   4.095   0.544  0.4082 -0.0563 -0.0878
  200MOL    C8924367   2.382   3.968   0.663  0.4746 -0.0283 -0.9867
  200MOL    H9024368   2.443   3.879   0.674  0.2691  0.0717  1.2458
  200MOL    H9124369   2.299   3.965   0.734  0.1941 -1.0629 -1.3567
  200MOL    C9224370   2.463   4.081   0.712  0.5783  0.4620 -0.5217
  200MOL    F9324371   2.378   4.186   0.730  0.8392  0.3295  0.0296
  200MOL    F9424372   2.516   4.041   0.832  0.0665 -0.0254  0.0986
  200MOL    C9524373   2.579   4.120   0.615 -0.4444  0.2586  0.5387
  200MOL    H9624374   2.549   4.163   0.520 -1.6754  0.2812  0.9354
  200MOL    H9724375   2.624   4.030   0.574 -1.9599 -1.3501  2.3368
  200MOL    C9824376   2.675   4.223   0.659  0.0355  0.1932  0.2194
  200MOL    F9924377   2.741   4.267   0.555 -0.0904 -0.0644 -0.0866
  200MOL   F10024378   2.603   4.325   0.703  0.5657 -0.4960  0.0784
  200MOL   C10124379   2.778   4.185   0.765 -0.2096 -0.0089  0.0213
  200MOL   H10224380   2.814   4.088   0.730  0.8785 -0.0685  1.2564
  200MOL   H10324381   2.733   4.171   0.863 -0.3615 -0.3360 -0.0958
  200MOL   C10424382   2.889   4.284   0.791  0.1761  0.0181  0.4212
  200MOL   F10524383   2.953   4.316   0.680  0.4235 -0.6806 -0.2642
  200MOL   F10624384   2.833   4.395   0.832 -0.2143  0.3154  0.2387
  200MOL   C10724385   2.992   4.239   0.896  0.2866  0.6893  0.1578
  200MOL   H10824386   3.030   4.140   0.874 -3.2604 -0.5120 -0.9477
  200MOL   H10924387   2.929   4.230   0.984 -2.2214  0.5759 -1.6028
  200MOL   C11024388   3.121   4.324   0.913 -0.7575  0.1063  1.2180
  200MOL   F11124389   3.195   4.316   0.804 -0.3677 -0.1446 -0.6354
  200MOL   F11224390   3.081   4.449   0.909 -0.1785 -0.2558 -0.2262
  200MOL   C11324391   3.197   4.288   1.042 -0.2164 -0.9881 -0.0150
  200MOL   H11424392   3.291   4.341   1.033 -1.3604  0.8169 -1.6541
  200MOL   H11524393   3.226   4.185   1.024 -0.4412 -0.5786 -3.0375
  200MOL   C11624394   3.134   4.302   1.176 -0.6058  0.3759  0.1816
  200MOL   F11724395   3.095   4.432   1.196 -0.3342 -0.0939  0.7599
  200MOL   F11824396   3.021   4.231   1.187  0.0748 -0.2620  0.0503
  200MOL   C11924397   3.224   4.253   1.285  0.5197  0.3274  0.0301
  200MOL   H12024398   3.176   4.258   1.383  2.8186  0.7567  1.1726
  200MOL   H12124399   3.320   4.305   1.290 -0.1466  1.7394 -1.2763
  200MOL   H12224400   3.250   4.152   1.254  2.1630  1.4995 -2.6241
  201MOL     C124401   8.117   8.075   4.782  0.7229 -0.2087 -0.4261
  201MOL     F224402   8.112   8.061   4.911  0.5966  0.0785 -0.2950
  201MOL     F324403   7.998   8.091   4.723  0.3041 -0.1477 -0.4659
  201MOL     C424404   8.175   7.954   4.709 -0.1224  0.1711  0.3407
  201MOL     H524405   8.105   7.870   4.723  1.7680 -1.5574 -0.3549
  201MOL     H624406   8.267   7.922   4.759  0.7685  0.9302 -0.8018
  201MOL     H724407   8.171   8.164   4.751  0.6496  0.1002  0.3358
  201MOL     C824408   8.188   7.960   4.552  0.0281  0.8264  0.1054
  201MOL     F924409   8.062   7.975   4.507 -0.1221  0.2709  0.0090
  201MOL    F1024410   8.257   8.068   4.511  0.2640 -0.2418 -0.1287
  201MOL    C1124411   8.229   7.825   4.487 -0.2650  0.0509 -0.2618
  201MOL    H1224412   8.209   7.831   4.380 -2.5887  2.0545  0.2602
  201MOL    H1324413   8.169   7.747   4.533  0.5138 -0.1590  0.4193
  201MOL    C1424414   0.030   7.792   4.508  0.0302 -0.1905  0.6077
  201MOL    F1524415   0.111   7.884   4.452 -0.2191  0.0684  0.2484
  201MOL    F1624416   0.050   7.780   4.636  0.1809  0.3736 -0.0394
  201MOL    C1724417   0.069   7.659   4.443 -0.5855  0.0276 -0.1887
  201MOL    H1824418   0.165   7.637   4.491  0.4049  1.5254 -1.4543
  201MOL    H1924419   0.108   7.674   4.342  1.2629 -0.7259  0.3982
  201MOL    C2024420   8.321   7.536   4.452  0.2718  0.2234  0.1557
  201MOL    F2124421   8.283   7.517   4.579  0.2168 -0.5684  0.1469
  201MOL    F2224422   8.217   7.561   4.376 -0.1668  0.3745  0.4641
  201MOL    C2324423   0.024   7.402   4.393 -0.0857 -0.1928  0.1768
  201MOL    H2424424   8.292   7.330   4.396  0.1997 -0.5835 -0.9123
  201MOL    H2524425   0.102   7.361   4.458 -0.6807  0.9733  1.6381
  201MOL    C2624426   0.087   7.403   4.249 -0.3520  0.3821 -0.2800
  201MOL    F2724427   0.015   7.492   4.172  0.1705 -0.1304  0.1150
  201MOL    F2824428   0.217   7.443   4.255  0.3688  0.3030 -0.2273
  201MOL    C2924429   0.069   7.274   4.180 -0.2929  0.1793 -0.4918
  201MOL    H3024430   8.312   7.257   4.196 -0.0848 -3.9985 -2.8193
  201MOL    H3124431   0.123   7.198   4.237  0.9749  1.2611 -0.2201
  201MOL    C3224432   0.107   7.254   4.030 -0.1611  0.5567  0.0074
  201MOL    F3324433   0.094   7.125   3.985 -0.0715  0.3614  0.3208
  201MOL    F3424434   0.018   7.325   3.956  0.2912  0.2379  0.3106
  201MOL    C3524435   0.246   7.308   3.992 -0.0291  0.4065 -0.9910
  201MOL    H3624436   0.309   7.255   4.063 -2.6086  1.8469  2.5140
  201MOL    H3724437   0.254   7.414   4.015 -0.4676  0.0594  0.8395
  201MOL    C3824438   0.296   7.294   3.846 -0.8274  0.0456 -0.8960
  201MOL    F3924439   0.221   7.367   3.770  0.5397  0.0354 -0.1432
  201MOL    F4024440   0.419   7.339   3.849 -0.1687 -0.2103 -0.2072
  201MOL    C4124441   0.303   7.153   3.781  0.0761  0.1022 -0.5315
  201MOL    H4224442   0.335   7.167   3.677 -0.3523 -1.1968 -0.8451
  201MOL    H4324443   0.204   7.110   3.776  0.0158  0.1261  0.3702
  201MOL    C4424444   0.398   7.049   3.846 -0.0134 -0.0652  0.8919
  201MOL    F4524445   0.521   7.096   3.872 -0.1975  0.0101 -0.0439
  201MOL    F4624446   0.346   7.021   3.956  0.1129  0.2565 -0.4717
  201MOL    C4724447   0.409   6.920   3.766 -0.1535 -0.0493  0.1547
  201MOL    H4824448   0.308   6.888   3.741 -1.1396 -0.0802  3.9139
  201MOL    H4924449   0.458   6.845   3.828  0.3283  0.4117  0.3303
  201MOL    C5024450   0.479   6.933   3.629  0.5488  0.3617 -0.3121
  201MOL    F5124451   0.386   6.987   3.546 -0.5918 -0.4718  0.3248
  201MOL    F5224452   0.574   7.020   3.646  0.1338  0.3186  0.2287
  201MOL    C5324453   0.556   6.810   3.575 -0.5363 -0.1073  0.5883
  201MOL    H5424454   0.644   6.791   3.636  0.5409 -0.9952 -1.1935
  201MOL    H5524455   0.594   6.845   3.479 -0.4634 -2.0722 -0.1228
  201MOL    C5624456   0.473   6.691   3.544  0.3816  0.1214  0.5202
  201MOL    F5724457   0.418   6.654   3.663 -0.1055 -0.5699 -0.2331
  201MOL    F5824458   0.386   6.723   3.453  0.6516 -0.3441  0.2589
  201MOL    C5924459   0.556   6.569   3.491  0.4690 -0.0922 -0.0233
  201MOL    H6024460   0.617   6.531   3.573  2.2854  2.1830 -0.2668
  201MOL    H6124461   0.620   6.597   3.408 -0.3068  3.1682  0.3955
  201MOL    C6224462   0.469   6.451   3.456  0.6332  0.0464  0.5429
  201MOL    F6324463   0.369   6.490   3.369  0.0855 -0.2591 -0.0820
  201MOL    F6424464   0.557   6.367   3.400 -0.2312 -0.1217 -0.1440
  201MOL    C6524465   0.400   6.380   3.574  0.1674  0.2280  0.0622
  201MOL    H6624466   0.312   6.435   3.606  0.0130  2.2027 -3.5282
  201MOL    H6724467   0.475   6.369   3.653 -1.1404 -3.2724  0.8914
  201MOL    C6824468   0.359   6.237   3.544 -0.1729 -0.7249  1.0409
  201MOL    F6924469   0.460   6.167   3.510  0.2810  0.3604 -0.3246
  201MOL    F7024470   0.327   6.190   3.666  0.2597 -0.0761 -0.4968
  201MOL    C7124471   0.237   6.217   3.455  0.4516 -0.6969 -0.0655
  201MOL    H7224472   0.257   6.263   3.359  0.1204 -0.1960  0.1047
  201MOL    H7324473   0.154   6.252   3.516  2.2610 -1.5218  3.0473
  201MOL    C7424474   0.202   6.068   3.420 -0.4577 -0.3673  0.0715
  201MOL    F7524475   0.316   6.026   3.364 -0.1364 -0.4043 -0.2218
  201MOL    F7624476   0.180   5.999   3.521  0.1898 -0.4382 -0.2651
  201MOL    C7724477   0.081   6.049   3.317 -0.2052  0.1354  0.0789
  201MOL    H7824478   0.099   6.120   3.236  0.4125  0.9670  0.9230
  201MOL    H7924479   8.335   6.079   3.358 -0.1291 -1.7323  1.6945
  201MOL    C8024480   0.063   5.907   3.245 -0.2659 -0.1763 -0.3883
  201MOL    F8124481   8.335   5.927   3.142 -0.5205 -0.2281  0.0110
  201MOL    F8224482   0.181   5.863   3.205  0.3398  0.1119 -0.2075
  201MOL    C8324483   8.339   5.805   3.332 -0.7438  0.5082 -0.5003
  201MOL    H8424484   0.066   5.782   3.406  0.1570 -1.8627 -2.1280
  201MOL    H8524485   8.318   5.712   3.280  2.7739  0.3953 -1.8552
  201MOL    C8624486   8.219   5.840   3.410  0.5457  0.4489  0.0014
  201MOL    F8724487   8.246   5.926   3.508 -0.0240  0.2030  0.0666
  201MOL    F8824488   8.124   5.884   3.326 -0.1163  0.1234 -0.1026
  201MOL    C8924489   8.154   5.715   3.478 -0.9621 -0.1390 -0.2148
  201MOL    H9024490   8.226   5.647   3.524  0.2471  0.0426 -1.8116
  201MOL    H9124491   8.125   5.662   3.388 -0.0222  0.6108 -0.9675
  201MOL    C9224492   8.027   5.755   3.559  0.3317  0.5563  0.4266
  201MOL    F9324493   8.054   5.815   3.670 -0.6209 -0.1846 -0.0711
  201MOL    F9424494   7.945   5.826   3.480  0.0640 -0.1047  0.1973
  201MOL    C9524495   7.964   5.618   3.599  0.3690  0.3729  0.2491
  201MOL    H9624496   8.037   5.574   3.667  0.3502  0.4463  0.3159
  201MOL    H9724497   7.949   5.547   3.517  0.6228  0.5396  0.0580
  201MOL    C9824498   7.824   5.633   3.666 -0.0870 -0.1215  0.5080
  201MOL    F9924499   7.738   5.649   3.564 -0.0751  0.2839 -0.4113
  201MOL   F10024500   7.783   5.523   3.731 -0.5757 -0.0398  0.1561
  201MOL   C10124501   7.816   5.741   3.772  0.1676  0.0500 -0.3257
  201MOL   H10224502   7.850   5.837   3.734 -0.8436  0.0156 -1.3468
  201MOL   H10324503   7.895   5.727   3.846 -0.2118  0.1766  0.1092
  201MOL   C10424504   7.685   5.764   3.858 -0.6997 -0.6627  0.8037
  201MOL   F10524505   7.586   5.777   3.762  0.1587  0.2760 -0.0741
  201MOL   F10624506   7.667   5.652   3.933 -0.6072 -0.2401 -0.3354
  201MOL   C10724507   7.685   5.891   3.950 -0.3742 -0.8649 -0.4634
  201MOL   H10824508   7.592   5.882   4.007 -0.7707 -0.3465 -1.0209
  201MOL   H10924509   7.681   5.983   3.892 -0.5945 -0.8671 -0.4546
  201MOL   C11024510   7.784   5.894   4.065 -0.2343 -0.0597  0.3611
  201MOL   F11124511   7.777   5.785   4.138 -0.4254 -0.7148  0.1679
  201MOL   F11224512   7.908   5.900   4.015  0.4162 -0.2790 -0.5793
  201MOL   C11324513   7.749   6.018   4.153  0.0805 -1.0187  0.8713
  201MOL   H11424514   7.809   5.996   4.242  0.1362 -1.0572  0.8227
  201MOL   H11524515   7.649   6.025   4.195 -0.2582 -2.2867  0.2984
  201MOL   C11624516   7.776   6.151   4.088 -0.5251  0.2278  0.6556
  201MOL   F11724517   7.872   6.144   3.999 -0.4592 -0.3691 -0.1655
  201MOL   F11824518   7.667   6.206   4.037  0.0984 -0.0794  0.0810
  201MOL   C11924519   7.833   6.252   4.186  0.4661  0.2782  1.0765
  201MOL   H12024520   7.753   6.277   4.256 -1.1939 -1.1738 -0.2458
  201MOL   H12124521   7.848   6.348   4.136  1.8470  0.3961  1.7063
  201MOL   H12224522   7.922   6.223   4.243  1.3939  0.6373 -0.1745
  202MOL     C124523   5.820   5.342   1.518  0.0462  0.7300 -0.5555
  202MOL     F224524   5.775   5.306   1.396 -0.1277 -0.3138  0.1572
  202MOL     F324525   5.756   5.257   1.597  0.1561  0.3778 -0.1726
  202MOL     C424526   5.779   5.488   1.535  0.7982 -0.3037 -0.9339
  202MOL     H524527   5.675   5.491   1.500  0.6719 -0.6391 -0.5909
  202MOL     H624528   5.839   5.548   1.467  0.5810  0.8715 -0.1048
  202MOL     H724529   5.928   5.331   1.529 -0.2521 -2.8162 -0.6597
  202MOL     C824530   5.798   5.529   1.683  0.5144  0.3532 -0.8725
  202MOL     F924531   5.704   5.465   1.761 -0.4736  0.0687 -0.0062
  202MOL    F1024532   5.915   5.491   1.726  0.7996 -0.0427  0.3676
  202MOL    C1124533   5.772   5.676   1.701 -0.6959 -0.3497 -0.7029
  202MOL    H1224534   5.666   5.694   1.683 -0.7091  0.4697  0.1158
  202MOL    H1324535   5.839   5.729   1.633  0.0798 -2.3989 -1.5726
  202MOL    C1424536   5.812   5.730   1.839  0.1032 -0.9345 -0.3093
  202MOL    F1524537   5.757   5.653   1.934  0.3345 -0.1059 -0.5031
  202MOL    F1624538   5.945   5.718   1.847  0.1767  0.1106  0.1258
  202MOL    C1724539   5.757   5.873   1.868 -0.0841 -0.7478 -0.0046
  202MOL    H1824540   5.648   5.863   1.877 -0.1212  0.5641  1.3361
  202MOL    H1924541   5.774   5.937   1.782  0.6646 -1.3311 -0.2823
  202MOL    C2024542   5.820   5.942   1.991 -0.8797 -0.4396 -0.4738
  202MOL    F2124543   5.814   5.856   2.096  0.9098  0.1725  0.3334
  202MOL    F2224544   5.946   5.967   1.971 -0.1984  0.3499  0.7787
  202MOL    C2324545   5.761   6.083   2.019  0.3849 -0.7836 -0.0350
  202MOL    H2424546   5.656   6.065   2.045 -0.1107  0.0921 -1.3830
  202MOL    H2524547   5.760   6.146   1.930  0.9973 -1.8318 -0.7914
  202MOL    C2624548   5.825   6.174   2.125 -0.4500 -0.7626  0.1839
  202MOL    F2724549   5.813   6.111   2.245  0.2528  0.3779  0.4861
  202MOL    F2824550   5.950   6.206   2.102 -0.6731  0.2856  0.1260
  202MOL    C2924551   5.758   6.304   2.149 -0.2322  0.2240  0.4799
  202MOL    H3024552   5.657   6.292   2.108  0.0137 -0.0680 -0.0541
  202MOL    H3124553   5.797   6.386   2.090 -0.0580 -0.0368  0.2272
  202MOL    C3224554   5.745   6.371   2.285  0.0610 -0.2866 -0.2904
  202MOL    F3324555   5.683   6.489   2.274 -0.3367 -0.1103 -0.1835
  202MOL    F3424556   5.660   6.295   2.363 -0.1864 -0.2055 -0.1273
  202MOL    C3524557   5.882   6.400   2.347  0.2107  0.2919 -0.4277
  202MOL    H3624558   5.939   6.313   2.378  2.2621  1.8460  0.2913
  202MOL    H3724559   5.859   6.441   2.446  2.0523 -0.6686  0.4096
  202MOL    C3824560   5.978   6.500   2.277  0.3051 -0.1359  0.6752
  202MOL    F3924561   6.000   6.455   2.154  0.1564 -0.1525  0.0022
  202MOL    F4024562   5.922   6.624   2.256 -0.0064  0.2332 -0.6507
  202MOL    C4124563   6.109   6.520   2.352 -0.4102  0.0343  0.0483
  202MOL    H4224564   6.151   6.602   2.294 -0.2365 -0.1573 -0.0961
  202MOL    H4324565   6.176   6.436   2.334  1.2157  1.7415 -2.1680
  202MOL    C4424566   6.108   6.559   2.505 -0.0433  0.4741 -0.3047
  202MOL    F4524567   6.030   6.662   2.523  0.2263 -0.3565  0.0378
  202MOL    F4624568   6.058   6.462   2.575 -0.9462  0.0843 -0.1927
  202MOL    C4724569   6.241   6.600   2.569 -0.0909  0.2248 -0.1382
  202MOL    H4824570   6.295   6.512   2.602 -0.4778  0.2275  0.5000
  202MOL    H4924571   6.216   6.653   2.660  0.6664  1.4933 -0.6670
  202MOL    C5024572   6.345   6.687   2.489 -0.6678  0.0654 -0.3634
  202MOL    F5124573   6.387   6.614   2.388 -0.2162  0.1527  0.1216
  202MOL    F5224574   6.298   6.797   2.443  0.1444  0.3229  0.4102
  202MOL    C5324575   6.463   6.736   2.573 -0.5471  0.0836 -0.6098
  202MOL    H5424576   6.505   6.645   2.615 -1.6970 -1.2154 -2.1902
  202MOL    H5524577   6.432   6.808   2.650  1.2775 -0.2313  0.4590
  202MOL    C5624578   6.585   6.806   2.503  0.4344 -0.4178 -0.6915
  202MOL    F5724579   6.620   6.721   2.404 -0.4951 -0.0940  0.5507
  202MOL    F5824580   6.549   6.916   2.447  0.0379  0.4937  0.2598
  202MOL    C5924581   6.713   6.823   2.581 -0.7091 -0.2617 -0.8274
  202MOL    H6024582   6.741   6.735   2.639  0.3539  0.4664 -0.2061
  202MOL    H6124583   6.695   6.902   2.655  0.2626  1.0330 -1.9416
  202MOL    C6224584   6.843   6.847   2.498  0.2276  0.1999  0.0049
  202MOL    F6324585   6.935   6.857   2.594  0.0617 -0.0939 -0.2690
  202MOL    F6424586   6.868   6.738   2.422  0.1497 -0.0961 -0.3092
  202MOL    C6524587   6.846   6.983   2.427  0.0773  0.1411  0.4035
  202MOL    H6624588   6.826   7.059   2.503 -2.1879 -0.2731  0.2497
  202MOL    H6724589   6.759   6.992   2.362 -1.4862 -0.8341  2.3001
  202MOL    C6824590   6.983   7.008   2.356  0.1620  0.0384  0.0226
  202MOL    F6924591   7.081   7.008   2.445 -0.1193 -0.4784  0.1716
  202MOL    F7024592   7.017   6.903   2.282  0.1431  0.3596 -0.2241
  202MOL    C7124593   7.002   7.125   2.253  0.3405  0.7402  0.0137
  202MOL    H7224594   6.910   7.162   2.207 -0.2694 -0.2690  0.3899
  202MOL    H7324595   7.051   7.076   2.169 -1.1984  0.6847 -0.8665
  202MOL    C7424596   7.086   7.245   2.312  0.3907 -0.3858 -0.4806
  202MOL    F7524597   7.086   7.348   2.227 -0.3357  0.2075 -0.2435
  202MOL    F7624598   7.021   7.287   2.425  0.5609 -0.7960  0.1875
  202MOL    C7724599   7.240   7.221   2.335  0.9937 -0.2010 -0.2445
  202MOL    H7824600   7.296   7.225   2.242 -0.3269 -1.3068 -1.1215
  202MOL    H7924601   7.262   7.119   2.366  0.9081 -1.1238 -3.0150
  202MOL    C8024602   7.313   7.326   2.417 -0.6008  0.1931 -0.3679
  202MOL    F8124603   7.435   7.288   2.420 -0.1518 -0.5722  0.3288
  202MOL    F8224604   7.309   7.443   2.356  0.0179  0.4315 -0.1402
  202MOL    C8324605   7.273   7.333   2.571 -0.2287  0.3967 -0.2414
  202MOL    H8424606   7.262   7.232   2.610 -1.3659  0.4147 -0.5113
  202MOL    H8524607   7.182   7.392   2.576 -1.2121 -1.2374  1.6046
  202MOL    C8624608   7.370   7.412   2.660  0.3924 -0.1877  0.7502
  202MOL    F8724609   7.493   7.364   2.656  0.1953  0.3452 -0.2175
  202MOL    F8824610   7.372   7.529   2.601 -0.1505 -0.1497  0.0804
  202MOL    C8924611   7.331   7.416   2.809 -0.3836 -0.5211 -0.4539
  202MOL    H9024612   7.302   7.316   2.841  0.7159 -0.7639 -0.2108
  202MOL    H9124613   7.233   7.462   2.816  0.9059  2.3681 -0.7969
  202MOL    C9224614   7.433   7.480   2.906  0.6551  0.5454 -0.5141
  202MOL    F9324615   7.550   7.416   2.900  0.1865 -0.2740 -0.0403
  202MOL    F9424616   7.461   7.606   2.873  0.3518 -0.0909  0.2024
  202MOL    C9524617   7.381   7.506   3.051  0.1883  0.2741 -0.4436
  202MOL    H9624618   7.304   7.582   3.035 -1.0148 -0.8738 -0.1755
  202MOL    H9724619   7.456   7.549   3.117 -0.2538  1.3875 -0.6471
  202MOL    C9824620   7.336   7.376   3.125  0.0056  0.0580  0.5772
  202MOL    F9924621   7.229   7.321   3.071  0.1690 -0.0055  0.0022
  202MOL   F10024622   7.438   7.289   3.115 -0.3305 -0.1162 -0.7930
  202MOL   C10124623   7.328   7.396   3.277 -0.1366  0.4370  0.0572
  202MOL   H10224624   7.424   7.434   3.313  0.1650  0.9341 -1.2294
  202MOL   H10324625   7.311   7.297   3.318 -0.8967  0.7010  0.3806
  202MOL   C10424626   7.216   7.477   3.329  0.1195  0.3839 -0.4010
  202MOL   F10524627   7.216   7.482   3.460  0.1768  0.0750  0.2583
  202MOL   F10624628   7.238   7.602   3.290  0.2881 -0.3820 -0.0650
  202MOL   C10724629   7.077   7.435   3.283  0.2757  0.4581 -0.9020
  202MOL   H10824630   7.058   7.332   3.312  1.8117 -0.1357 -1.9217
  202MOL   H10924631   7.075   7.434   3.174  3.2828  0.1616 -1.0010
  202MOL   C11024632   6.953   7.519   3.324 -0.1103  0.7438  0.0214
  202MOL   F11124633   6.948   7.510   3.460 -0.4934  0.1613  0.0391
  202MOL   F11224634   6.963   7.641   3.303  0.1041  0.2355  0.1488
  202MOL   C11324635   6.826   7.479   3.248 -0.7797  0.0521  0.2147
  202MOL   H11424636   6.845   7.492   3.141  1.2497 -0.9175  0.4347
  202MOL   H11524637   6.750   7.554   3.272  1.4444  2.3966  0.2219
  202MOL   C11624638   6.771   7.345   3.273  0.1103  0.2850  0.1529
  202MOL   F11724639   6.850   7.243   3.221  0.0532 -0.3087 -0.6221
  202MOL   F11824640   6.759   7.339   3.405  0.2713 -0.3637 -0.0445
  202MOL   C11924641   6.623   7.325   3.227  0.0661  0.4347  0.3229
  202MOL   H12024642   6.558   7.386   3.290 -1.3398  0.2692 -0.9729
  202MOL   H12124643   6.584   7.225   3.243 -2.4313  1.0379 -1.7830
  202MOL   H12224644   6.607   7.355   3.124 -1.1355 -0.2643  0.3053
  203MOL     C124645   1.030   1.520   0.728  0.2480  0.7250 -0.0441
  203MOL     F224646   0.955   1.548   0.833  0.0719  0.4253 -0.2225
  203MOL     F324647   0.989   1.407   0.672  0.3337 -0.1621  0.3650
  203MOL     C424648   1.176   1.512   0.759 -0.6286  0.3195  0.4410
  203MOL     H524649   1.177   1.422   0.821 -1.7553  0.0513  0.0739
  203MOL     H624650   1.214   1.597   0.816  1.6634 -1.1824  1.2252
  203MOL     H724651   1.000   1.594   0.654 -0.6674  0.8891  0.4859
  203MOL     C824652   1.274   1.479   0.644  0.7705  0.3862 -0.5000
  203MOL     F924653   1.253   1.568   0.547  0.6044 -0.3051 -0.1266
  203MOL    F1024654   1.384   1.517   0.701 -0.1800 -0.2237  0.1861
  203MOL    C1124655   1.275   1.331   0.594  0.2577  0.6211  0.2954
  203MOL    H1224656   1.182   1.303   0.545  0.5939 -1.0267  0.5628
  203MOL    H1324657   1.281   1.276   0.688  1.0754  2.0370  1.0921
  203MOL    C1424658   1.384   1.295   0.493 -0.1881 -1.2718 -0.1393
  203MOL    F1524659   1.499   1.310   0.551 -0.4717 -0.0321 -0.0155
  203MOL    F1624660   1.371   1.168   0.471  0.0683  0.0682 -0.0418
  203MOL    C1724661   1.393   1.377   0.354 -0.0196  0.1591 -0.8743
  203MOL    H1824662   1.480   1.334   0.304  0.1789  0.2668 -0.6241
  203MOL    H1924663   1.409   1.483   0.374  1.5904  0.0122 -1.3250
  203MOL    C2024664   1.262   1.366   0.270  0.6044  0.2407  0.3176
  203MOL    F2124665   1.229   1.236   0.268  0.7008 -0.3890 -0.0662
  203MOL    F2224666   1.156   1.419   0.339  0.3160 -0.2749  0.1498
  203MOL    C2324667   1.267   1.422   0.131 -0.0504  0.2930  0.6693
  203MOL    H2424668   1.267   1.531   0.139  0.2373  0.2709  0.9932
  203MOL    H2524669   1.173   1.400   0.081  0.3245 -1.1912  0.6076
  203MOL    C2624670   1.375   1.367   0.048 -0.3457  0.6524 -0.3960
  203MOL    F2724671   1.496   1.432   0.078  0.3954  0.0397 -0.0078
  203MOL    F2824672   1.390   1.234   0.062  0.1856 -0.2182  0.2567
  203MOL    C2924673   1.349   1.380   8.249  0.1272  0.9127  0.6811
  203MOL    H3024674   1.251   1.340   8.224 -0.6376  1.6856  2.3781
  203MOL    H3124675   1.409   1.307   8.195 -0.2970  1.1886 -0.1587
  203MOL    C3224676   1.353   1.521   8.188 -0.3335 -0.6143  0.4736
  203MOL    F3324677   1.271   1.603   8.258 -0.5471 -0.2362 -0.3348
  203MOL    F3424678   1.481   1.560   8.206 -0.6048  0.5298  0.0248
  203MOL    C3524679   1.309   1.508   8.037  0.4442 -0.5192  0.3092
  203MOL    H3624680   1.218   1.448   8.035 -0.7688  1.3375 -1.8529
  203MOL    H3724681   1.384   1.450   7.982  2.0918  0.1694  1.7697
  203MOL    C3824682   1.287   1.634   7.962  0.0704 -0.1601 -0.2281
  203MOL    F3924683   1.216   1.718   8.037  0.0353 -0.1813 -0.1261
  203MOL    F4024684   1.407   1.691   7.943  0.4430  0.2832  0.1879
  203MOL    C4124685   1.213   1.622   7.825  0.3086 -0.6884  0.5294
  203MOL    H4224686   1.217   1.717   7.771  0.9038  0.1391  2.0050
  203MOL    H4324687   1.109   1.602   7.851  0.2279 -0.2325  0.5599
  203MOL    C4424688   1.249   1.502   7.730  0.1123  1.0115 -0.4517
  203MOL    F4524689   1.379   1.500   7.703  0.3610 -0.1094  0.0030
  203MOL    F4624690   1.224   1.386   7.790 -0.3594 -0.2968  0.0819
  203MOL    C4724691   1.188   1.519   7.592  0.1155 -0.0998  0.6420
  203MOL    H4824692   1.210   1.438   7.523 -0.4847  0.5929 -0.3765
  203MOL    H4924693   1.226   1.604   7.535  0.7875  0.1280  1.4144
  203MOL    C5024694   1.031   1.532   7.589  0.3950  0.1353 -0.3358
  203MOL    F5124695   0.987   1.419   7.644  0.1197  0.3491 -0.3540
  203MOL    F5224696   0.984   1.638   7.657 -0.0512 -0.1438  0.3132
  203MOL    C5324697   0.977   1.548   7.441 -0.2838  0.5272  0.1531
  203MOL    H5424698   1.022   1.473   7.376 -0.4918  0.2677  0.3053
  203MOL    H5524699   1.011   1.645   7.406  0.6509 -0.3112 -1.2910
  203MOL    C5624700   0.822   1.530   7.425  0.0785 -0.3422 -0.1836
  203MOL    F5724701   0.796   1.395   7.423  0.2398 -0.1540  0.3075
  203MOL    F5824702   0.756   1.582   7.539 -0.3493  0.0677 -0.2273
  203MOL    C5924703   0.765   1.596   7.300 -0.0693 -0.3381 -0.0532
  203MOL    H6024704   0.776   1.704   7.313 -2.2812  0.2535 -2.5898
  203MOL    H6124705   0.657   1.582   7.309  0.3912 -3.2891  1.5271
  203MOL    C6224706   0.843   1.557   7.175  0.1766 -0.2070  0.0261
  203MOL    F6324707   0.971   1.591   7.181 -0.4539  0.1542  0.0517
  203MOL    F6424708   0.838   1.426   7.162  0.3037 -0.0282  0.5419
  203MOL    C6524709   0.783   1.639   7.049  0.3136 -0.0333  0.4943
  203MOL    H6624710   0.790   1.745   7.072  2.9835 -0.1803  0.5680
  203MOL    H6724711   0.678   1.613   7.037  0.9639 -2.8608  0.3878
  203MOL    C6824712   0.856   1.617   6.916  0.1218  0.5084 -0.3742
  203MOL    F6924713   0.786   1.685   6.835 -0.6685 -0.0879 -0.6974
  203MOL    F7024714   0.977   1.681   6.918  0.3848  0.0758  0.5480
  203MOL    C7124715   0.867   1.475   6.873  1.1650  0.1474 -0.1229
  203MOL    H7224716   0.767   1.433   6.873  0.2306  2.1529 -3.7286
  203MOL    H7324717   0.920   1.423   6.953 -0.1382  0.4688  0.9553
  203MOL    C7424718   0.960   1.454   6.742  0.8277  1.3287 -0.3535
  203MOL    F7524719   0.917   1.536   6.641 -0.5198 -0.2251 -0.1532
  203MOL    F7624720   1.086   1.480   6.777 -0.7868  0.3970  0.5787
  203MOL    C7724721   0.946   1.304   6.692 -0.7959 -0.2063 -0.3190
  203MOL    H7824722   1.020   1.297   6.613  3.1915  2.2706  3.0319
  203MOL    H7924723   0.845   1.298   6.652 -0.7332 -1.6405 -0.3063
  203MOL    C8024724   0.957   1.190   6.800  0.5098 -0.6608 -0.0513
  203MOL    F8124725   1.077   1.173   6.855  0.0889 -0.0737  0.2302
  203MOL    F8224726   0.868   1.197   6.898  0.1008  0.5716 -0.1252
  203MOL    C8324727   0.931   1.060   6.729  0.1829  0.1153 -0.1425
  203MOL    H8424728   0.996   1.046   6.643  1.3006 -2.1803  1.0226
  203MOL    H8524729   0.831   1.052   6.687  0.6778 -1.8124 -1.0020
  203MOL    C8624730   0.957   0.933   6.814  0.4848  0.0465 -0.4179
  203MOL    F8724731   1.087   0.918   6.845 -0.0779  0.0924  0.0714
  203MOL    F8824732   0.891   0.949   6.933  0.0528  0.0361  0.5084
  203MOL    C8924733   0.914   0.803   6.746 -0.3730 -0.1729 -0.1211
  203MOL    H9024734   0.978   0.785   6.660 -0.9745 -1.9440 -0.2066
  203MOL    H9124735   0.814   0.819   6.707 -0.6737  1.1795  1.1423
  203MOL    C9224736   0.917   0.679   6.845  0.9001 -0.5741  0.0394
  203MOL    F9324737   1.031   0.661   6.903 -0.2595 -0.0857 -0.0464
  203MOL    F9424738   0.825   0.696   6.939  0.1734  0.1343  0.2033
  203MOL    C9524739   0.894   0.550   6.774 -0.6390  0.6669 -0.2830
  203MOL    H9624740   0.913   0.463   6.836  1.3942  1.3891  0.1233
  203MOL    H9724741   0.969   0.531   6.697 -0.0446  1.1385  0.1813
  203MOL    C9824742   0.767   0.533   6.697 -0.8380 -0.9591  0.1684
  203MOL    F9924743   0.754   0.618   6.590 -0.0088 -0.0166  0.6516
  203MOL   F10024744   0.764   0.408   6.645 -0.0840 -0.4691  0.2468
  203MOL   C10124745   0.643   0.545   6.781 -0.3115  0.2632  0.4917
  203MOL   H10224746   0.556   0.539   6.716  0.5414  3.8026 -1.0523
  203MOL   H10324747   0.645   0.646   6.820  0.4420  0.9155 -1.1853
  203MOL   C10424748   0.639   0.444   6.894 -0.3762 -0.3148 -0.9103
  203MOL   F10524749   0.661   0.323   6.844  0.1362 -0.0827 -0.2373
  203MOL   F10624750   0.735   0.462   6.982  0.4576 -0.2428  0.7576
  203MOL   C10724751   0.506   0.445   6.979 -0.0845  0.2519 -0.1327
  203MOL   H10824752   0.520   0.368   7.055  1.0015 -2.9223 -3.3698
  203MOL   H10924753   0.431   0.416   6.906  1.1748  0.9517 -1.7631
  203MOL   C11024754   0.468   0.576   7.053  0.1118 -0.7490  0.1371
  203MOL   F11124755   0.575   0.609   7.125  0.1440  0.1408  0.5347
  203MOL   F11224756   0.432   0.672   6.963  0.1608 -0.2636  0.4450
  203MOL   C11324757   0.344   0.571   7.148 -0.0414  0.2965 -0.4911
  203MOL   H11424758   0.301   0.671   7.158 -0.3892  0.0639  0.4528
  203MOL   H11524759   0.378   0.550   7.250  0.1074  0.6062 -0.4771
  203MOL   C11624760   0.227   0.488   7.085 -0.8055  0.4411  0.2294
  203MOL   F11724761   0.228   0.534   6.963 -0.0475  0.0612 -0.1245
  203MOL   F11824762   0.245   0.354   7.083 -0.1183 -0.0055 -0.7132
  203MOL   C11924763   0.088   0.495   7.147  0.1590  0.3762 -0.2913
  203MOL   H12024764   0.075   0.603   7.148  1.5918  0.6288 -2.7056
  203MOL   H12124765   0.096   0.455   7.248 -1.1552  2.4609  0.6599
  203MOL   H12224766   0.007   0.446   7.094  1.1447  0.0523 -1.5473
  204MOL     C124767   6.760   3.814   6.715  0.7747  0.1207 -0.1804
  204MOL     F224768   6.825   3.724   6.791  0.1799 -0.4967  0.6631
  204MOL     F324769   6.787   3.786   6.590  0.2975  0.1885  0.6545
  204MOL     C424770   6.780   3.959   6.762 -0.6260 -0.3654 -0.3931
  204MOL     H524771   6.742   3.955   6.863  2.1854 -1.0620  0.6992
  204MOL     H624772   6.710   4.030   6.719  0.9697  2.7734  1.9923
  204MOL     H724773   6.658   3.778   6.727  0.6009  0.6376 -0.1193
  204MOL     C824774   6.928   4.014   6.745 -0.7616 -0.1714  0.0783
  204MOL     F924775   6.934   4.126   6.798 -0.1834 -0.2986 -0.0238
  204MOL    F1024776   7.004   3.930   6.813  0.2171 -0.1000 -0.5716
  204MOL    C1124777   6.983   4.016   6.602  0.7057  0.0706  0.0133
  204MOL    H1224778   6.995   3.911   6.574  0.0054  0.7556 -3.1421
  204MOL    H1324779   7.085   4.053   6.612  0.4171  0.9645 -0.3376
  204MOL    C1424780   6.903   4.103   6.500  0.0447 -0.4732  0.1952
  204MOL    F1524781   6.794   4.031   6.460  0.2124 -0.0413 -0.1974
  204MOL    F1624782   6.863   4.217   6.555 -0.2896  0.1173  0.1335
  204MOL    C1724783   6.976   4.154   6.377 -0.2986 -0.2726 -0.1516
  204MOL    H1824784   7.048   4.228   6.412 -0.1527 -1.0587  1.2543
  204MOL    H1924785   6.909   4.217   6.318 -3.5139 -2.0272  1.4506
  204MOL    C2024786   7.050   4.050   6.289 -0.5017  0.5560 -0.7899
  204MOL    F2124787   7.151   4.005   6.367  0.2863  0.1438  0.6610
  204MOL    F2224788   6.969   3.953   6.266 -0.0888  0.3109  0.2060
  204MOL    C2324789   7.085   4.111   6.145 -0.3558 -0.1967 -0.1889
  204MOL    H2424790   6.989   4.148   6.110 -0.3146  0.8684  0.8215
  204MOL    H2524791   7.113   4.031   6.076  0.5596 -0.1240  0.0915
  204MOL    C2624792   7.195   4.214   6.137 -0.7690  0.1024  0.7797
  204MOL    F2724793   7.179   4.308   6.227 -0.1074  0.9166  0.4646
  204MOL    F2824794   7.316   4.159   6.167  0.2813  0.1699  0.1330
  204MOL    C2924795   7.198   4.289   6.001 -0.7035  0.0502  0.3101
  204MOL    H3024796   7.264   4.376   5.993 -0.7365  0.2107  1.7407
  204MOL    H3124797   7.101   4.331   5.972 -1.2684 -1.2680  0.2573
  204MOL    C3224798   7.247   4.203   5.870  0.0626 -0.3974  0.0349
  204MOL    F3324799   7.381   4.205   5.887  0.6554  0.1369 -0.3121
  204MOL    F3424800   7.201   4.078   5.877 -0.0878 -0.4189 -0.0067
  204MOL    C3524801   7.216   4.272   5.732  0.1601  1.1771 -0.1040
  204MOL    H3624802   7.223   4.381   5.736 -0.9112  1.2958 -1.0156
  204MOL    H3724803   7.109   4.259   5.716 -0.2185 -0.8221  3.4473
  204MOL    C3824804   7.280   4.215   5.607 -0.1886 -0.8133  0.1238
  204MOL    F3924805   7.261   4.078   5.608 -0.4067 -0.3461  0.3373
  204MOL    F4024806   7.209   4.259   5.506 -0.0013 -0.3098 -0.1832
  204MOL    C4124807   7.424   4.278   5.582 -0.1796 -0.6878  0.0561
  204MOL    H4224808   7.497   4.258   5.660 -3.2072 -1.8280  2.7049
  204MOL    H4324809   7.415   4.386   5.576 -0.3399 -0.7156 -0.2019
  204MOL    C4424810   7.484   4.221   5.449 -0.0704 -0.0265  0.0532
  204MOL    F4524811   7.477   4.088   5.461  0.8757 -0.3992  0.0502
  204MOL    F4624812   7.417   4.253   5.341 -0.0280 -0.4423 -0.5406
  204MOL    C4724813   7.627   4.271   5.431  0.7184 -0.2391  0.0655
  204MOL    H4824814   7.671   4.213   5.350  0.5243  0.8971 -0.8592
  204MOL    H4924815   7.675   4.250   5.526 -0.9654  1.0890  1.2333
  204MOL    C5024816   7.654   4.422   5.411  0.2531  0.2680 -0.0352
  204MOL    F5124817   7.602   4.505   5.499 -0.3109 -0.0835  0.2215
  204MOL    F5224818   7.788   4.435   5.408  0.0394 -0.1195  0.5998
  204MOL    C5324819   7.616   4.477   5.265 -0.6765  0.2241  0.3978
  204MOL    H5424820   7.508   4.481   5.252 -1.0065 -0.8038  2.4733
  204MOL    H5524821   7.659   4.405   5.196  0.1985 -0.1739  1.3593
  204MOL    C5624822   7.675   4.616   5.223 -0.0125  0.0205  0.2860
  204MOL    F5724823   7.631   4.651   5.104  0.4669 -0.3108 -0.1703
  204MOL    F5824824   7.632   4.706   5.312 -0.1706 -0.1319  0.5130
  204MOL    C5924825   7.830   4.623   5.202  0.3744  0.9340 -0.2229
  204MOL    H6024826   7.856   4.531   5.150 -0.3417  0.6321 -0.0569
  204MOL    H6124827   7.890   4.620   5.293 -0.6404 -2.1274  0.4062
  204MOL    C6224828   7.871   4.754   5.128  0.2832  0.0766 -0.0561
  204MOL    F6324829   7.846   4.735   5.003 -0.0958 -0.7063  0.0166
  204MOL    F6424830   7.814   4.861   5.178  0.2322 -0.1661  0.0868
  204MOL    C6524831   8.021   4.783   5.131  0.5863 -0.1200  0.0068
  204MOL    H6624832   8.063   4.699   5.076  0.7782  0.3370 -0.5484
  204MOL    H6724833   8.060   4.788   5.233  3.1101 -0.5508 -0.8929
  204MOL    C6824834   8.054   4.925   5.066 -0.0635  0.5559 -0.3096
  204MOL    F6924835   7.966   4.952   4.968 -0.5983 -0.1726  0.5929
  204MOL    F7024836   8.058   5.018   5.164  0.1569 -0.2876  0.2623
  204MOL    C7124837   8.193   4.932   5.001  0.4894  0.5807  0.3479
  204MOL    H7224838   8.198   4.861   4.919  1.1759 -0.4244  1.2548
  204MOL    H7324839   8.258   4.889   5.077  1.5915  1.6504  0.0333
  204MOL    C7424840   8.248   5.073   4.972  0.4841 -0.0484  0.1197
  204MOL    F7524841   8.279   5.135   5.093 -0.3194  0.0871  0.6032
  204MOL    F7624842   0.017   5.053   4.912  0.4246 -0.1586  0.1671
  204MOL    C7724843   8.150   5.167   4.896 -0.0163  0.2588 -0.0939
  204MOL    H7824844   8.069   5.190   4.965 -1.0051  0.1203 -1.2065
  204MOL    H7924845   8.100   5.108   4.819  0.1580 -1.1084  0.8034
  204MOL    C8024846   8.221   5.293   4.838 -0.2527 -0.3772 -0.9091
  204MOL    F8124847   8.297   5.352   4.928 -0.0660  0.1917 -0.0259
  204MOL    F8224848   8.306   5.237   4.746  0.2411 -0.2724 -0.1934
  204MOL    C8324849   8.140   5.405   4.784  0.7276  0.6681  0.0368
  204MOL    H8424850   8.203   5.468   4.721  0.2558 -0.5780 -1.7141
  204MOL    H8524851   8.090   5.469   4.856  0.0067 -2.4820  2.4097
  204MOL    C8624852   8.019   5.359   4.688 -0.8679 -0.6030  1.0084
  204MOL    F8724853   8.078   5.293   4.591  0.1765  0.1877 -0.2366
  204MOL    F8824854   7.936   5.275   4.738 -0.2303 -0.0524 -0.4269
  204MOL    C8924855   7.951   5.475   4.617  0.5104 -0.2529 -0.2435
  204MOL    H9024856   7.878   5.424   4.555  0.9883 -1.2243 -0.0207
  204MOL    H9124857   8.019   5.528   4.551  0.1074  0.1501 -0.3352
  204MOL    C9224858   7.865   5.571   4.700 -0.4800 -0.2244 -0.3165
  204MOL    F9324859   7.788   5.498   4.788 -0.4528 -0.0095 -0.4584
  204MOL    F9424860   7.951   5.642   4.764  0.4095 -0.3745 -0.0399
  204MOL    C9524861   7.779   5.659   4.612  0.1589  0.3619 -0.4025
  204MOL    H9624862   7.723   5.728   4.675  0.2164  1.8013 -1.8888
  204MOL    H9724863   7.712   5.605   4.546  1.7861 -0.8102 -1.1529
  204MOL    C9824864   7.847   5.752   4.512  0.2637  0.5008 -0.0616
  204MOL    F9924865   7.909   5.686   4.411 -0.5111 -0.1691  0.2758
  204MOL   F10024866   7.744   5.815   4.446 -0.3143 -0.2116 -0.1573
  204MOL   C10124867   7.936   5.870   4.567  0.1551  0.1158 -0.8842
  204MOL   H10224868   7.969   5.921   4.477  4.4929  1.2388  1.2435
  204MOL   H10324869   8.026   5.835   4.617 -1.3254  0.8111  2.4262
  204MOL   C10424870   7.868   5.959   4.673  0.4105  0.8177  0.1161
  204MOL   F10524871   7.748   6.002   4.633  0.1432 -0.4099 -0.7021
  204MOL   F10624872   7.851   5.878   4.782  0.5072 -0.0672 -0.7595
  204MOL   C10724873   7.951   6.085   4.719  0.6565 -0.4229  0.8077
  204MOL   H10824874   8.038   6.047   4.773  0.5332 -0.3121  1.0852
  204MOL   H10924875   7.901   6.132   4.803 -1.2275  0.1886 -0.6210
  204MOL   C11024876   7.991   6.179   4.604 -0.5387 -0.4950 -0.9082
  204MOL   F11124877   8.087   6.112   4.543  0.0342  0.2143 -0.0449
  204MOL   F11224878   7.892   6.200   4.526 -0.2504 -0.4293  0.9867
  204MOL   C11324879   8.054   6.312   4.654 -0.5680 -0.1814  0.7450
  204MOL   H11424880   8.098   6.361   4.568 -2.5361 -0.7902 -0.6366
  204MOL   H11524881   8.147   6.292   4.707 -1.5598 -1.0732  2.1836
  204MOL   C11624882   7.963   6.404   4.730  0.0736 -0.1092  0.4751
  204MOL   F11724883   7.853   6.426   4.652 -0.4922 -0.0051  0.8322
  204MOL   F11824884   7.922   6.365   4.846 -0.2360  0.0592  0.0964
  204MOL   C11924885   8.019   6.543   4.750 -0.0906 -0.3959 -0.4025
  204MOL   H12024886   8.097   6.545   4.826 -0.9513  1.5527  0.4862
  204MOL   H12124887   7.953   6.621   4.788 -0.3885 -1.9073  2.2672
  204MOL   H12224888   8.068   6.583   4.661  1.5375 -1.7323 -0.1342
  205MOL     C124889   3.068   4.767   8.312 -0.7160 -0.3525  0.3865
  205MOL     F224890   3.062   4.899   8.337  0.1104 -0.2022  0.4559
  205MOL     F324891   3.157   4.713   0.044 -0.0993  0.3474 -0.0646
  205MOL     C424892   3.108   4.761   8.163 -0.1020  0.2796  0.7697
  205MOL     H524893   3.207   4.802   8.145  0.5244 -1.6256 -0.2012
  205MOL     H624894   3.042   4.816   8.096  0.0747 -0.0019  0.3672
  205MOL     H724895   2.978   4.713   8.340  1.4797 -3.3694  2.0516
  205MOL     C824896   3.125   4.620   8.119 -0.2083  0.4392  0.2803
  205MOL     F924897   3.214   4.569   8.207 -0.5222 -0.3317  0.0443
  205MOL    F1024898   3.006   4.559   8.125 -0.1052  0.8339 -0.1437
  205MOL    C1124899   3.173   4.593   7.973 -0.0093 -0.6151 -0.1563
  205MOL    H1224900   3.243   4.674   7.950  1.3763 -1.3373  1.4616
  205MOL    H1324901   3.087   4.603   7.907  0.8366  1.8330 -0.9830
  205MOL    C1424902   3.253   4.458   7.944  0.4758  0.1050  0.2104
  205MOL    F1524903   3.356   4.453   8.029  0.1953  0.4313  0.1465
  205MOL    F1624904   3.162   4.360   7.967  0.1540  0.0183 -0.2317
  205MOL    C1724905   3.305   4.454   7.795  0.6241  0.6124 -0.2427
  205MOL    H1824906   3.376   4.536   7.779 -0.1059  1.3327  0.2261
  205MOL    H1924907   3.221   4.473   7.728 -1.3869 -1.3745  1.6471
  205MOL    C2024908   3.377   4.326   7.754  0.2112 -0.5734 -0.6378
  205MOL    F2124909   3.493   4.338   7.821 -0.2556  0.6299  0.1752
  205MOL    F2224910   3.307   4.220   7.788  0.1370  0.0382  0.0040
  205MOL    C2324911   3.410   4.321   7.608  0.3888 -0.2000 -0.1406
  205MOL    H2424912   3.438   4.416   7.563  0.0876 -0.5194 -1.0073
  205MOL    H2524913   3.316   4.311   7.554  0.2012  2.2352 -0.2842
  205MOL    C2624914   3.504   4.205   7.553 -0.3189 -0.4156  0.2944
  205MOL    F2724915   3.486   4.182   7.421  0.0835  0.2058  0.3039
  205MOL    F2824916   3.633   4.231   7.575  0.0189  0.1307  0.4785
  205MOL    C2924917   3.465   4.066   7.622  0.3930 -0.2323 -0.2024
  205MOL    H3024918   3.377   4.032   7.568 -0.6812  1.5833  0.3595
  205MOL    H3124919   3.445   4.076   7.729  0.8461 -1.6045  0.0168
  205MOL    C3224920   3.559   3.940   7.596  0.4216 -0.0643 -0.9798
  205MOL    F3324921   3.578   3.922   7.467 -0.5487  0.2573 -0.1892
  205MOL    F3424922   3.680   3.955   7.649 -0.5171 -0.4071 -0.3943
  205MOL    C3524923   3.500   3.811   7.656 -0.1246 -0.2739  0.1875
  205MOL    H3624924   3.558   3.722   7.636 -0.8666 -0.6358 -0.3550
  205MOL    H3724925   3.399   3.787   7.624 -0.2023  0.1161  0.1396
  205MOL    C3824926   3.485   3.814   7.811 -0.0480  0.0540  0.8317
  205MOL    F3924927   3.604   3.846   7.874  0.1380  0.2276  0.4371
  205MOL    F4024928   3.398   3.906   7.843 -0.6680 -1.2210 -0.8551
  205MOL    C4124929   3.433   3.685   7.872  0.3696 -0.6690  0.2211
  205MOL    H4224930   3.510   3.614   7.842 -0.1045 -2.0926  2.2315
  205MOL    H4324931   3.332   3.659   7.839 -0.2128  1.2882  0.3985
  205MOL    C4424932   3.420   3.675   8.021  0.2272  0.1903  0.6228
  205MOL    F4524933   3.397   3.540   8.046 -0.7997 -0.3735  0.2611
  205MOL    F4624934   3.532   3.715   8.082 -0.2424  0.1833  0.2189
  205MOL    C4724935   3.308   3.755   8.081  0.3183 -0.0509  0.7965
  205MOL    H4824936   3.325   3.861   8.062  1.1190 -0.4420 -0.7312
  205MOL    H4924937   3.318   3.751   8.190  0.4077  2.2648  0.9114
  205MOL    C5024938   3.159   3.735   8.046  0.3144 -0.2785  0.3514
  205MOL    F5124939   3.122   3.764   7.922 -0.4588 -0.0867  0.5824
  205MOL    F5224940   3.124   3.607   8.071  0.0869  0.1819  0.2547
  205MOL    C5324941   3.071   3.815   8.143  0.7981  0.0887 -0.1677
  205MOL    H5424942   3.107   3.914   8.171  1.0057  1.1179 -3.7885
  205MOL    H5524943   3.083   3.752   8.231 -0.7077  0.2968  0.2070
  205MOL    C5624944   2.918   3.824   8.105 -0.1671 -1.0615 -0.6095
  205MOL    F5724945   2.878   3.704   8.061  0.2320 -0.0691  0.0501
  205MOL    F5824946   2.853   3.850   8.218 -0.2681  0.5910 -0.1486
  205MOL    C5924947   2.876   3.939   7.999 -0.2663  0.1903  0.2950
  205MOL    H6024948   2.770   3.956   7.983 -0.3623  0.5310  1.2308
  205MOL    H6124949   2.905   3.911   7.898 -2.0910 -0.2146 -0.1301
  205MOL    C6224950   2.941   4.073   8.044 -0.8197 -0.4865 -0.4796
  205MOL    F6324951   2.926   4.105   8.175 -0.0132  0.5926  0.1773
  205MOL    F6424952   3.077   4.078   8.030 -0.2489 -0.1059  0.6721
  205MOL    C6524953   2.890   4.194   7.955 -0.0546 -0.3879  0.2435
  205MOL    H6624954   2.942   4.285   7.984  0.1080 -1.2600  2.7425
  205MOL    H6724955   2.788   4.225   7.976  0.6681  1.9758  0.4059
  205MOL    C6824956   2.894   4.165   7.800 -0.4751  0.7355  0.2649
  205MOL    F6924957   3.012   4.116   7.761 -0.1533  0.0100 -0.5159
  205MOL    F7024958   2.800   4.079   7.756  0.1022  0.0028  0.2405
  205MOL    C7124959   2.874   4.295   7.715 -0.0062  0.5706 -0.4257
  205MOL    H7224960   2.922   4.380   7.763 -0.2044 -0.8117  2.3315
  205MOL    H7324961   2.772   4.324   7.742  0.5183  1.6544  0.4259
  205MOL    C7424962   2.883   4.286   7.560 -0.2925  0.5096  0.2158
  205MOL    F7524963   3.014   4.271   7.525 -0.2298 -0.1462 -0.6172
  205MOL    F7624964   2.809   4.175   7.536 -0.3324  0.1657  0.3473
  205MOL    C7724965   2.814   4.412   7.491 -0.3846  0.1947  0.2305
  205MOL    H7824966   2.866   4.504   7.519 -0.9668  0.5157  0.2802
  205MOL    H7924967   2.711   4.420   7.525  0.1552  1.2539  1.6286
  205MOL    C8024968   2.811   4.412   7.335  0.1035 -0.2008 -0.5832
  205MOL    F8124969   2.761   4.531   7.291 -0.1369  0.6999 -0.6711
  205MOL    F8224970   2.939   4.410   7.298  0.2748  0.1931 -0.4805
  205MOL    C8324971   2.724   4.296   7.276 -0.3686  0.0954 -0.4028
  205MOL    H8424972   2.629   4.319   7.323 -0.9139 -2.0020 -0.4277
  205MOL    H8524973   2.744   4.197   7.317 -0.8636 -0.6551 -1.9354
  205MOL    C8624974   2.705   4.282   7.118  0.2663  0.1574  0.7448
  205MOL    F8724975   2.633   4.375   7.065 -0.4792  0.6900  0.6332
  205MOL    F8824976   2.821   4.296   7.067  0.2568  0.3206  0.1066
  205MOL    C8924977   2.654   4.146   7.075 -0.1755 -0.5579  0.5315
  205MOL    H9024978   2.730   4.072   7.100  1.6540  1.7127  1.7951
  205MOL    H9124979   2.640   4.144   6.967  2.0036 -2.2267  0.2373
  205MOL    C9224980   2.523   4.114   7.142  0.6039 -0.0197 -0.7052
  205MOL    F9324981   2.541   4.088   7.273 -0.1366  0.5283 -0.4495
  205MOL    F9424982   2.432   4.209   7.133  0.3187 -0.2028  0.1403
  205MOL    C9524983   2.453   3.999   7.067  0.1706 -0.0174 -0.2961
  205MOL    H9624984   2.520   3.913   7.068  0.6132  0.3226 -0.3690
  205MOL    H9724985   2.448   4.020   6.960 -1.0170 -1.5792 -0.5741
  205MOL    C9824986   2.316   3.955   7.117 -0.1253  0.3418  0.0955
  205MOL    F9924987   2.280   3.850   7.035  0.0931 -0.0793 -0.0173
  205MOL   F10024988   2.321   3.906   7.243 -0.1585 -0.0190  0.2762
  205MOL   C10124989   2.205   4.061   7.107 -0.7820 -0.1120 -0.2145
  205MOL   H10224990   2.188   4.090   7.003 -1.3170  0.1248 -0.0671
  205MOL   H10324991   2.227   4.152   7.163 -1.8962 -0.8490  1.4599
  205MOL   C10424992   2.056   4.022   7.156 -0.3603  0.0665  0.6326
  205MOL   F10524993   1.994   3.931   7.078 -0.2204  0.0825 -0.0742
  205MOL   F10624994   2.073   3.969   7.276 -0.1495  0.3656  0.4967
  205MOL   C10724995   1.969   4.145   7.166 -0.7371  0.1102 -0.4521
  205MOL   H10824996   1.954   4.194   7.069 -0.6909 -1.0023 -1.0230
  205MOL   H10924997   2.020   4.212   7.235 -1.1669  0.4108 -0.4192
  205MOL   C11024998   1.829   4.125   7.216  0.6921 -0.5514 -0.8136
  205MOL   F11124999   1.778   4.248   7.219  0.0614  0.5568 -0.4273
  205MOL   F11225000   1.757   4.046   7.139  0.5556 -0.9131  0.2180
  205MOL   C11325001   1.829   4.070   7.362  0.6328 -0.2993 -0.2734
  205MOL   H11425002   1.912   4.104   7.424  2.3719  0.6688 -3.0279
  205MOL   H11525003   1.840   3.962   7.356  0.4028 -0.4201  1.4250
  205MOL   C11625004   1.704   4.090   7.453  0.5760  0.6847  0.5779
  205MOL   F11725005   1.746   4.043   7.569  0.2831 -0.0443  0.4131
  205MOL   F11825006   1.686   4.225   7.458  0.3120 -0.5767 -0.2125
  205MOL   C11925007   1.577   4.024   7.406 -0.9554 -0.0852  0.3769
  205MOL   H12025008   1.562   4.054   7.302  1.7481 -0.0720 -0.0537
  205MOL   H12125009   1.496   4.064   7.467 -0.4191 -0.4455  1.3304
  205MOL   H12225010   1.582   3.915   7.414  1.3199 -0.1612 -1.4127
  206MOL     C125011   0.497   5.197   1.960  0.2291  0.0726  0.2352
  206MOL     F225012   0.594   5.126   1.890 -0.0001  0.1773  0.1570
  206MOL     F325013   0.469   5.129   2.075  0.0917  0.2927 -0.2456
  206MOL     C425014   0.371   5.203   1.869 -0.5020 -0.2794 -0.3231
  206MOL     H525015   0.280   5.246   1.911 -0.6027 -1.5211  0.7644
  206MOL     H625016   0.340   5.099   1.856  0.6032 -0.7752  0.8998
  206MOL     H725017   0.536   5.297   1.976  3.1609 -1.1074  0.8091
  206MOL     C825018   0.393   5.263   1.735  0.0499 -1.0807 -0.8489
  206MOL     F925019   0.453   5.387   1.750 -0.1706 -0.1443 -0.1573
  206MOL    F1025020   0.476   5.193   1.664 -0.0142 -0.3054 -0.4813
  206MOL    C1125021   0.257   5.283   1.660  0.0436 -0.9901  0.1039
  206MOL    H1225022   0.276   5.334   1.566 -0.6559  1.2492  1.1602
  206MOL    H1325023   0.202   5.356   1.718 -0.2514  0.7157 -2.2850
  206MOL    C1425024   0.175   5.152   1.628 -0.5541 -0.0630  0.3824
  206MOL    F1525025   0.254   5.073   1.557 -0.1364  0.1398 -0.1718
  206MOL    F1625026   0.127   5.104   1.741 -0.3349 -0.1053 -0.1522
  206MOL    C1725027   0.063   5.191   1.529 -0.1207 -0.2304  0.4618
  206MOL    H1825028   0.100   5.246   1.442  0.4133  0.9106  1.3956
  206MOL    H1925029   0.004   5.268   1.579  1.7735  0.6948  1.3253
  206MOL    C2025030   8.320   5.074   1.481 -0.0068  0.7145 -0.3883
  206MOL    F2125031   8.213   5.109   1.427 -0.4038  0.0203 -0.2093
  206MOL    F2225032   0.052   4.994   1.405  0.4637  0.1461 -0.1754
  206MOL    C2325033   8.284   4.974   1.597 -0.8705  0.0746 -0.3978
  206MOL    H2425034   8.252   5.038   1.679 -1.3091 -1.8278  0.9386
  206MOL    H2525035   0.027   4.930   1.634 -0.6937  1.1056  0.4082
  206MOL    C2625036   8.184   4.857   1.570 -0.5422  0.2883  0.8661
  206MOL    F2725037   8.067   4.908   1.530  0.6245  0.6695 -0.4520
  206MOL    F2825038   8.240   4.790   1.466 -0.5198 -0.3741  0.1152
  206MOL    C2925039   8.168   4.747   1.673  0.1116 -0.1479  0.2732
  206MOL    H3025040   8.141   4.806   1.761  1.5254  2.2973 -0.8780
  206MOL    H3125041   8.264   4.701   1.693  0.3309 -1.1943 -2.9753
  206MOL    C3225042   8.074   4.635   1.644  0.0041 -0.1410  0.0696
  206MOL    F3325043   7.950   4.675   1.635  0.0024  0.5539 -0.1661
  206MOL    F3425044   8.110   4.579   1.525  0.5381 -0.1996 -0.1416
  206MOL    C3525045   8.073   4.533   1.759  0.3648  0.1787 -0.2143
  206MOL    H3625046   7.999   4.564   1.833  1.3174 -0.6401  1.1010
  206MOL    H3725047   8.167   4.521   1.812 -0.4169 -2.0493  0.7404
  206MOL    C3825048   8.047   4.389   1.709 -0.4261 -0.4101  0.3969
  206MOL    F3925049   8.150   4.356   1.627  0.4327  0.4848 -0.1533
  206MOL    F4025050   8.045   4.302   1.810  0.9136  0.1257  0.3916
  206MOL    C4125051   7.920   4.372   1.625  0.9204 -0.4604  0.2707
  206MOL    H4225052   7.903   4.445   1.546  0.3552 -1.0795 -0.1719
  206MOL    H4325053   7.834   4.389   1.691 -0.8968 -0.3477 -2.0664
  206MOL    C4425054   7.895   4.229   1.567 -0.4866 -0.2650 -0.9848
  206MOL    F4525055   7.901   4.148   1.670 -0.3585 -0.3098 -0.4922
  206MOL    F4625056   7.771   4.238   1.512 -0.4318  0.4193 -0.5425
  206MOL    C4725057   7.978   4.175   1.452  0.4860 -0.4663 -0.3517
  206MOL    H4825058   7.934   4.080   1.421 -1.5374  0.2770  0.1498
  206MOL    H4925059   8.083   4.169   1.479  0.6151  0.8122 -0.5287
  206MOL    C5025060   7.979   4.253   1.316  0.3986  0.7041  0.5355
  206MOL    F5125061   7.862   4.232   1.255  0.1482  0.5159 -0.1534
  206MOL    F5225062   7.989   4.381   1.336 -0.1948  0.1077  0.3326
  206MOL    C5325063   8.085   4.202   1.215  0.0632 -0.1821  0.0193
  206MOL    H5425064   8.078   4.093   1.209  1.9796 -0.1916 -2.9472
  206MOL    H5525065   8.184   4.231   1.251  0.1631  0.7303 -0.9679
  206MOL    C5625066   8.070   4.265   1.074 -0.0337 -0.2038 -0.4311
  206MOL    F5725067   7.983   4.194   1.010  0.3147 -0.4113  0.0377
  206MOL    F5825068   8.053   4.395   1.080 -0.6030  0.0947  0.0384
  206MOL    C5925069   8.196   4.247   0.984  0.4360 -0.3651 -0.1301
  206MOL    H6025070   8.279   4.304   1.026  0.2971 -0.1004 -0.2069
  206MOL    H6125071   8.179   4.302   0.891  0.0183  0.4665  0.4331
  206MOL    C6225072   8.255   4.107   0.960  0.3400 -0.8400  0.6348
  206MOL    F6325073   8.299   4.050   1.074  0.1189 -1.0106  0.2147
  206MOL    F6425074   8.160   4.030   0.913 -0.6345  0.7134  0.3052
  206MOL    C6525075   0.022   4.119   0.862  0.8960  0.7945  0.1024
  206MOL    H6625076   0.098   4.190   0.896  0.5097  0.3316  2.0034
  206MOL    H6725077   8.329   4.165   0.773  1.7316  1.3225 -0.0298
  206MOL    C6825078   0.080   3.979   0.812 -0.9159  0.2764  0.3477
  206MOL    F6925079   0.155   3.934   0.912 -0.3258  0.6064 -0.4870
  206MOL    F7025080   8.330   3.900   0.793  0.5318 -0.0522  0.2248
  206MOL    C7125081   0.156   3.996   0.677  0.0092  0.3778 -0.1406
  206MOL    H7225082   0.241   4.063   0.681  0.1343  0.2743 -1.0029
  206MOL    H7325083   0.078   4.023   0.606  0.3770 -0.6230 -0.9423
  206MOL    C7425084   0.204   3.854   0.624  0.3944  0.4397 -0.0874
  206MOL    F7525085   0.271   3.796   0.728  0.0333 -0.2449 -0.0362
  206MOL    F7625086   0.095   3.777   0.598 -0.5222  0.0269 -0.4621
  206MOL    C7725087   0.289   3.859   0.500 -0.2114 -0.4117 -0.2037
  206MOL    H7825088   0.311   3.754   0.481 -1.2034 -1.0669  2.2033
  206MOL    H7925089   0.382   3.910   0.527  0.0972 -0.9722 -0.1998
  206MOL    C8025090   0.232   3.931   0.378 -0.6503  1.0268 -0.5026
  206MOL    F8125091   0.117   3.875   0.346 -0.0995 -0.3552 -0.2531
  206MOL    F8225092   0.186   4.061   0.394  0.7162 -0.5553  0.0636
  206MOL    C8325093   0.322   3.934   0.253  0.3819  0.3358  0.4333
  206MOL    H8425094   0.255   3.974   0.176  0.4750 -0.8477 -0.2670
  206MOL    H8525095   0.348   3.838   0.208  1.0870  0.6250  0.2190
  206MOL    C8625096   0.435   4.029   0.249 -0.8359 -0.6260 -0.8615
  206MOL    F8725097   0.386   4.152   0.249 -0.7977 -0.3967 -0.1576
  206MOL    F8825098   0.515   4.007   0.357  0.2388 -0.1363  0.4423
  206MOL    C8925099   0.509   4.006   0.116 -0.0933 -0.1094 -0.3873
  206MOL    H9025100   0.439   4.032   0.036 -0.0487 -0.7095 -0.6282
  206MOL    H9125101   0.525   3.900   0.099 -0.5527 -0.6039  2.0627
  206MOL    C9225102   0.627   4.096   0.083  0.6866 -0.2911 -0.2100
  206MOL    F9325103   0.720   4.055   0.168  0.3587  0.3249 -0.3366
  206MOL    F9425104   0.671   4.080   8.310  0.2882 -0.2519  0.4801
  206MOL    C9525105   0.605   4.247   0.112 -0.3792 -0.1272 -0.0038
  206MOL    H9625106   0.613   4.251   0.220  0.9487 -2.2514  0.0071
  206MOL    H9725107   0.506   4.282   0.079 -0.4454 -0.9240 -0.6838
  206MOL    C9825108   0.721   4.348   0.064  0.1492  0.5846 -0.3317
  206MOL    F9925109   0.827   4.316   0.139  0.0469 -0.3652  0.2333
  206MOL   F10025110   0.746   4.322   8.292  0.1513 -0.2258  0.0020
  206MOL   C10125111   0.683   4.496   0.072  0.3960  0.0910  0.7309
  206MOL   H10225112   0.606   4.525   0.001  0.9316  1.7960  0.8100
  206MOL   H10325113   0.772   4.546   0.032  1.6425 -2.0713  0.7516
  206MOL   C10425114   0.650   4.552   0.215 -0.2929 -0.2503  0.8938
  206MOL   F10525115   0.538   4.489   0.259  0.3354  0.2564 -0.0811
  206MOL   F10625116   0.751   4.516   0.289 -0.3962  0.1154  0.6450
  206MOL   C10725117   0.619   4.700   0.187 -0.2529  0.4007 -0.2499
  206MOL   H10825118   0.535   4.697   0.119 -0.3356 -0.1193 -0.1244
  206MOL   H10925119   0.707   4.742   0.138  0.4680  2.2417  2.5092
  206MOL   C11025120   0.576   4.794   0.304 -0.9798 -0.3445  1.0012
  206MOL   F11125121   0.486   4.720   0.365 -0.5314 -0.3035  0.3229
  206MOL   F11225122   0.684   4.807   0.378 -0.2786 -0.0573 -0.3019
  206MOL   C11325123   0.526   4.935   0.271 -0.1875  0.2866  0.5068
  206MOL   H11425124   0.615   4.990   0.240 -0.2080  0.3441  0.5484
  206MOL   H11525125   0.487   4.985   0.360 -0.0035 -0.0774  0.7886
  206MOL   C11625126   0.416   4.938   0.161 -0.2500  0.6746 -0.6001
  206MOL   F11725127   0.370   5.064   0.158 -0.0829 -0.8547  0.1380
  206MOL   F11825128   0.462   4.899   0.041  0.5027 -0.3572  0.1729
  206MOL   C11925129   0.297   4.848   0.196  0.1915  0.3343 -0.3277
  206MOL   H12025130   0.257   4.862   0.296  0.6146 -1.1158  0.0510
  206MOL   H12125131   0.330   4.744   0.192 -0.0592  0.3021 -2.7869
  206MOL   H12225132   0.224   4.844   0.114 -0.5439  0.2501  0.3245
  207MOL     C125133   6.243   7.680   4.586  0.1945 -0.7822  0.2507
  207MOL     F225134   6.125   7.723   4.622 -0.7461 -0.0407  0.0737
  207MOL     F325135   6.224   7.589   4.489  0.3440  0.6596 -0.2701
  207MOL     C425136   6.321   7.624   4.707 -0.5271 -0.8946 -0.9122
  207MOL     H525137   6.316   7.690   4.793 -0.9494 -1.8090 -0.2243
  207MOL     H625138   6.428   7.615   4.688  0.1020  2.1533  0.8934
  207MOL     H725139   6.301   7.760   4.540  1.5735 -1.2183  1.2132
  207MOL     C825140   6.263   7.483   4.748  0.6113 -0.1405  0.7968
  207MOL     F925141   6.130   7.484   4.745 -0.0537  0.1063 -0.0277
  207MOL    F1025142   6.312   7.387   4.664  0.6478 -0.9344 -0.3454
  207MOL    C1125143   6.300   7.455   4.898  0.5855  0.1199 -0.1411
  207MOL    H1225144   6.271   7.538   4.964  2.7590  0.8559 -0.0659
  207MOL    H1325145   6.408   7.461   4.911  0.3963  1.5981  0.9436
  207MOL    C1425146   6.259   7.317   4.961 -0.1321 -0.8444 -0.2966
  207MOL    F1525147   6.122   7.325   4.968 -0.3492 -0.3282 -0.2885
  207MOL    F1625148   6.297   7.223   4.871  0.1966 -0.3692  0.4327
  207MOL    C1725149   6.322   7.291   5.102 -0.3768  0.0729 -0.0687
  207MOL    H1825150   6.299   7.383   5.156  0.5923  0.6267 -0.5718
  207MOL    H1925151   6.430   7.279   5.092 -0.2938 -1.5882  2.3167
  207MOL    C2025152   6.266   7.173   5.183  0.2988  0.0497  0.3278
  207MOL    F2125153   6.339   7.175   5.290 -0.1918  0.0825  0.7394
  207MOL    F2225154   6.135   7.191   5.214  0.1479 -0.0858 -0.2296
  207MOL    C2325155   6.281   7.034   5.119  0.2785 -0.1490  0.2374
  207MOL    H2425156   6.384   7.014   5.087  0.0320 -0.6989 -0.2264
  207MOL    H2525157   6.224   7.040   5.026 -1.4617  1.8546  1.4008
  207MOL    C2625158   6.235   6.907   5.192  0.0175 -0.1829  0.2131
  207MOL    F2725159   6.259   6.796   5.122 -0.1979 -0.2733 -0.1037
  207MOL    F2825160   6.308   6.900   5.307 -0.0904 -0.0480  0.2705
  207MOL    C2925161   6.087   6.898   5.226  0.5100  0.4886  0.0472
  207MOL    H3025162   6.037   6.946   5.142  0.5249 -2.0278 -1.4433
  207MOL    H3125163   6.079   6.965   5.312  0.5707  2.1396 -1.2099
  207MOL    C3225164   6.035   6.753   5.267  0.0089 -0.3236  0.4532
  207MOL    F3325165   5.920   6.783   5.314  0.0005 -0.2212  0.2698
  207MOL    F3425166   6.017   6.687   5.159 -0.1985 -0.1252  0.7108
  207MOL    C3525167   6.123   6.672   5.367  0.3271 -0.0166  0.8989
  207MOL    H3625168   6.129   6.730   5.459 -1.7525 -1.2229  1.8165
  207MOL    H3725169   6.224   6.656   5.330 -0.0436  1.3473 -0.8264
  207MOL    C3825170   6.063   6.527   5.402  0.5584 -0.1066 -0.0844
  207MOL    F3925171   6.147   6.460   5.480  0.0824 -0.1627 -0.3839
  207MOL    F4025172   5.953   6.536   5.480 -0.0549  0.1247  0.9879
  207MOL    C4125173   6.019   6.442   5.283 -0.6075  0.8733 -0.8889
  207MOL    H4225174   5.936   6.483   5.226  1.4286 -0.2831 -4.8099
  207MOL    H4325175   5.982   6.343   5.309  0.8070  0.8452  1.2011
  207MOL    C4425176   6.136   6.416   5.186 -0.1525 -0.1904  0.4295
  207MOL    F4525177   6.083   6.399   5.063 -0.4988 -0.0791 -0.5777
  207MOL    F4625178   6.225   6.510   5.171 -0.7366 -0.2324 -0.4192
  207MOL    C4725179   6.205   6.281   5.228 -0.3440  0.6995 -1.0739
  207MOL    H4825180   6.144   6.193   5.250  0.0712  0.8543  0.7624
  207MOL    H4925181   6.256   6.299   5.322 -2.8663  0.4869  0.3812
  207MOL    C5025182   6.320   6.236   5.125 -0.1149 -0.6027 -0.0462
  207MOL    F5125183   6.260   6.211   5.009  0.0350  0.1698 -0.2222
  207MOL    F5225184   6.402   6.338   5.113  0.4743  0.6566 -0.0762
  207MOL    C5325185   6.411   6.114   5.160  0.3135  0.5745 -0.1694
  207MOL    H5425186   6.478   6.129   5.245  0.1220  1.2862 -0.1383
  207MOL    H5525187   6.487   6.111   5.082  0.9927  0.6258  0.4740
  207MOL    C5625188   6.337   5.980   5.167 -0.4760 -0.0260 -0.2931
  207MOL    F5725189   6.276   5.976   5.280  0.1400 -0.2013  0.0333
  207MOL    F5825190   6.245   5.970   5.074 -0.0344  0.1519 -0.6957
  207MOL    C5925191   6.430   5.859   5.192  0.0183 -0.3928 -0.0045
  207MOL    H6025192   6.371   5.775   5.229  0.9890 -0.5201  1.2526
  207MOL    H6125193   6.507   5.889   5.262  0.0733 -0.4976 -0.0209
  207MOL    C6225194   6.497   5.800   5.061  0.4944 -0.0013  0.2985
  207MOL    F6325195   6.397   5.779   4.974 -0.1258  0.2619 -0.0084
  207MOL    F6425196   6.578   5.892   5.011 -0.0077 -0.3640  0.0431
  207MOL    C6525197   6.574   5.670   5.086  0.6634 -0.2413 -0.3821
  207MOL    H6625198   6.509   5.620   5.157 -1.3846  1.0966 -1.2861
  207MOL    H6725199   6.658   5.680   5.155  0.3528  1.6076 -0.2603
  207MOL    C6825200   6.623   5.594   4.963 -0.1930 -0.2092 -0.7628
  207MOL    F6925201   6.696   5.664   4.875 -0.2959  0.3302 -0.6144
  207MOL    F7025202   6.698   5.492   5.012 -0.2875  0.3046  0.6059
  207MOL    C7125203   6.508   5.527   4.884 -0.5896 -0.1836  0.0386
  207MOL    H7225204   6.549   5.478   4.796 -0.1833  1.8177 -0.9244
  207MOL    H7325205   6.455   5.609   4.835 -0.0788  0.3091  0.3073
  207MOL    C7425206   6.403   5.435   4.958 -0.7984  0.3718 -0.5690
  207MOL    F7525207   6.322   5.509   5.034  0.5032 -0.5731  0.5735
  207MOL    F7625208   6.319   5.396   4.860  0.1095 -0.6073 -0.6279
  207MOL    C7725209   6.477   5.320   5.024 -0.1058 -0.3729  0.1368
  207MOL    H7825210   6.555   5.357   5.092  0.5279 -0.4592 -0.5365
  207MOL    H7925211   6.530   5.258   4.952  0.2920  0.0055  0.0986
  207MOL    C8025212   6.389   5.218   5.082  0.2240  0.5935 -0.3198
  207MOL    F8125213   6.301   5.171   4.988 -0.3845  0.7063  0.3421
  207MOL    F8225214   6.458   5.107   5.123  0.3961  0.4005 -0.2294
  207MOL    C8325215   6.293   5.267   5.196  0.4724  0.0614 -0.0521
  207MOL    H8425216   6.229   5.186   5.231  1.7170 -0.9663 -0.1219
  207MOL    H8525217   6.219   5.335   5.153 -0.8017 -0.9359  0.5123
  207MOL    C8625218   6.367   5.332   5.317  0.7716  0.5917  0.3893
  207MOL    F8725219   6.450   5.238   5.356 -0.0837 -0.3116  0.0155
  207MOL    F8825220   6.441   5.436   5.276  0.0912  0.4454  0.2425
  207MOL    C8925221   6.270   5.378   5.420 -0.7703 -0.3714 -0.2280
  207MOL    H9025222   6.207   5.293   5.443  1.0359 -1.0431  2.3695
  207MOL    H9125223   6.210   5.448   5.361 -0.6047  0.6833  0.8405
  207MOL    C9225224   6.324   5.448   5.549 -0.3020 -0.4084  0.4845
  207MOL    F9325225   6.414   5.363   5.601 -0.3485  0.2777 -0.0868
  207MOL    F9425226   6.377   5.568   5.528 -0.0009  0.2785  0.1431
  207MOL    C9525227   6.212   5.479   5.658  0.0145 -0.3456  0.0519
  207MOL    H9625228   6.267   5.505   5.748 -0.7364  0.7621  0.2024
  207MOL    H9725229   6.171   5.382   5.687 -0.2047 -0.3124 -0.1398
  207MOL    C9825230   6.100   5.587   5.635  0.0685  1.1172  0.9989
  207MOL    F9925231   6.156   5.710   5.614  0.7320 -0.2221  0.1967
  207MOL   F10025232   6.029   5.560   5.531  0.5853  0.4793  0.0229
  207MOL   C10125233   6.007   5.590   5.763 -0.2522  0.8466 -0.4600
  207MOL   H10225234   6.067   5.620   5.849  0.1129 -2.0162  0.3326
  207MOL   H10325235   5.957   5.496   5.784  0.3232  0.7019  0.2640
  207MOL   C10425236   5.903   5.699   5.767 -0.1264  0.4690  0.0048
  207MOL   F10525237   5.835   5.678   5.882 -0.1279 -0.3331  0.1918
  207MOL   F10625238   5.969   5.811   5.788  0.1137  0.4429 -0.5302
  207MOL   C10725239   5.807   5.693   5.645  0.6079 -0.9094  0.3818
  207MOL   H10825240   5.772   5.590   5.648  0.9564 -1.0685 -0.7528
  207MOL   H10925241   5.855   5.706   5.548 -2.2870  3.1000 -0.6494
  207MOL   C11025242   5.683   5.787   5.666  0.0377  0.0554  0.6135
  207MOL   F11125243   5.610   5.746   5.766  0.6695  0.3051 -0.0184
  207MOL   F11225244   5.725   5.912   5.691  0.1219  0.0690 -0.1671
  207MOL   C11325245   5.592   5.794   5.540 -0.7892 -0.3872  0.4684
  207MOL   H11425246   5.659   5.834   5.464 -0.6524  1.5220  1.5588
  207MOL   H11525247   5.526   5.879   5.556 -0.7089 -0.1479 -0.4079
  207MOL   C11625248   5.521   5.676   5.485 -0.0334 -0.7409  0.0535
  207MOL   F11725249   5.603   5.578   5.464  0.0577 -0.3754 -0.2799
  207MOL   F11825250   5.434   5.636   5.583  0.0892  0.2798 -0.0499
  207MOL   C11925251   5.442   5.700   5.357 -1.1222 -0.5376  0.4645
  207MOL   H12025252   5.418   5.604   5.311  0.6488 -0.5860 -0.4045
  207MOL   H12125253   5.510   5.739   5.281 -2.2401 -0.0716 -0.2961
  207MOL   H12225254   5.358   5.769   5.360 -1.2507 -0.5690 -1.9743
  208MOL     C125255   5.686   1.549   8.027  0.2646  0.5902 -0.1941
  208MOL     F225256   5.774   1.636   8.071 -0.2047  0.0169 -0.2392
  208MOL     F325257   5.566   1.592   8.057 -0.6821  0.0417 -0.4947
  208MOL     C425258   5.726   1.419   8.088 -0.1833 -0.0074  0.1703
  208MOL     H525259   5.701   1.418   8.194 -0.0263  0.6557  0.2165
  208MOL     H625260   5.834   1.413   8.085 -0.1533 -0.4607  1.9861
  208MOL     H725261   5.707   1.544   7.920 -0.5277 -0.8047 -0.2979
  208MOL     C825262   5.647   1.302   8.020  0.2041  0.7134 -0.1917
  208MOL     F925263   5.524   1.294   8.071 -0.0277 -0.3016  0.1207
  208MOL    F1025264   5.625   1.316   7.892  0.0667 -0.0605 -0.2488
  208MOL    C1125265   5.714   1.163   8.040  0.8167 -0.8197 -0.0704
  208MOL    H1225266   5.815   1.174   7.999  1.2637  0.2427  1.2866
  208MOL    H1325267   5.669   1.091   7.971 -1.3668  1.5138 -1.1435
  208MOL    C1425268   5.733   1.105   8.186  0.8586 -0.3423  0.7722
  208MOL    F1525269   5.813   1.193   8.252 -0.6667 -0.1488 -0.5686
  208MOL    F1625270   5.626   1.085   8.248  0.1679  0.1847 -0.1479
  208MOL    C1725271   5.815   0.973   8.193  0.8081 -0.4116 -0.3208
  208MOL    H1825272   5.843   0.949   8.295 -0.7923  0.3074  0.3131
  208MOL    H1925273   5.913   0.984   8.147  1.7083  0.7957  1.8406
  208MOL    C2025274   5.746   0.846   8.135 -0.1274 -0.3283  1.2442
  208MOL    F2125275   5.622   0.844   8.190  0.1726 -0.8085 -0.6117
  208MOL    F2225276   5.732   0.860   8.005  0.5943  0.2835  0.3653
  208MOL    C2325277   5.819   0.722   8.178 -0.2599 -0.5518 -0.5315
  208MOL    H2425278   5.747   0.645   8.150  0.5531 -0.4411 -3.0428
  208MOL    H2525279   5.831   0.735   8.286 -1.0214  2.1293 -0.7278
  208MOL    C2625280   5.955   0.704   8.115  0.6729  0.5852  0.4174
  208MOL    F2725281   5.945   0.696   7.979  0.1016  0.5915 -0.1034
  208MOL    F2825282   6.045   0.799   8.147  0.2420  0.2167 -0.5164
  208MOL    C2925283   6.016   0.563   8.144 -0.4800 -0.1680 -0.0723
  208MOL    H3025284   6.118   0.563   8.108 -1.9250 -2.4569 -4.5168
  208MOL    H3125285   5.973   0.483   8.083  2.3039 -1.8708  0.0997
  208MOL    C3225286   6.015   0.528   8.295 -0.1573 -0.0920 -0.1031
  208MOL    F3325287   6.074   0.624   0.019  0.3849 -0.0195 -0.2682
  208MOL    F3425288   5.895   0.512   8.337  0.3898  0.0347 -0.0348
  208MOL    C3525289   6.092   0.394   8.328  0.3282  0.0911  0.2295
  208MOL    H3625290   6.113   0.404   0.084  0.4115  3.4499 -0.0291
  208MOL    H3725291   6.185   0.380   8.272 -0.4781  0.0841 -1.1373
  208MOL    C3825292   6.026   0.262   8.306  0.0221  0.5548 -0.0036
  208MOL    F3925293   5.924   0.257   0.046  0.1009  0.4383  0.3447
  208MOL    F4025294   5.989   0.268   8.180 -0.1744  0.1496 -0.2294
  208MOL    C4125295   6.126   0.139   8.333 -0.2087  0.1919  0.0422
  208MOL    H4225296   6.214   0.147   8.269 -1.2510  3.2876 -1.0782
  208MOL    H4325297   6.085   0.043   8.300 -0.5028 -0.4948  2.3101
  208MOL    C4425298   6.179   0.130   0.127  0.3627  0.0759  0.6517
  208MOL    F4525299   6.287   0.050   0.120 -0.6121 -0.6871 -0.0168
  208MOL    F4625300   6.247   0.244   0.158 -0.2354  0.1856 -0.1025
  208MOL    C4725301   6.091   0.108   0.249  0.1759 -0.7019 -0.3574
  208MOL    H4825302   6.011   0.182   0.246  2.5484  1.9682 -0.1653
  208MOL    H4925303   6.156   0.143   0.329  0.8208 -2.6259 -0.0086
  208MOL    C5025304   6.040   8.308   0.274 -0.0308  0.3131 -0.1808
  208MOL    F5125305   5.992   8.296   0.397 -0.3646  0.2586  0.1676
  208MOL    F5225306   5.948   8.279   0.181 -0.2269  0.1039  0.6718
  208MOL    C5325307   6.148   8.200   0.255  0.1174  0.8121 -0.7274
  208MOL    H5425308   6.240   8.220   0.310 -0.4990  2.4750 -0.2729
  208MOL    H5525309   6.176   8.204   0.150  1.7738 -1.5341 -0.4116
  208MOL    C5625310   6.102   8.059   0.301 -0.2163 -0.3259 -0.4610
  208MOL    F5725311   6.115   8.039   0.429  0.2158  0.4132 -0.4735
  208MOL    F5825312   5.973   8.045   0.274 -0.0321 -0.0047  0.1081
  208MOL    C5925313   6.171   7.940   0.235  0.1412  0.1165  0.0600
  208MOL    H6025314   6.141   7.936   0.130  0.6061  0.8850 -0.1052
  208MOL    H6125315   6.137   7.846   0.278 -1.3119  1.0993  1.0800
  208MOL    C6225316   6.324   7.930   0.251  0.0017  0.2483 -0.2813
  208MOL    F6325317   6.379   8.028   0.185 -0.8383 -0.0663  0.0117
  208MOL    F6425318   6.361   7.925   0.379 -0.0311  0.2243  0.2845
  208MOL    C6525319   6.374   7.791   0.179 -0.2915  0.3459  0.0241
  208MOL    H6625320   6.338   7.800   0.076  1.2569 -0.8752 -0.6438
  208MOL    H6725321   6.319   7.707   0.222  0.5342 -0.4048 -0.3806
  208MOL    C6825322   6.536   7.781   0.173  0.6769  0.1011  0.3358
  208MOL    F6925323   6.568   7.694   0.084 -0.4768 -0.0692  0.3434
  208MOL    F7025324   6.582   7.897   0.135  0.0166  0.0374  0.1760
  208MOL    C7125325   6.602   7.732   0.303  0.1746 -0.5152 -0.2569
  208MOL    H7225326   6.553   7.646   0.348 -1.0145  0.5163  0.4347
  208MOL    H7325327   6.573   7.810   0.374  0.1944 -0.4343 -0.3371
  208MOL    C7425328   6.755   7.693   0.285 -0.1025 -0.0866  0.4167
  208MOL    F7525329   6.801   7.639   0.401  0.5664  0.3361  0.3292
  208MOL    F7625330   6.766   7.589   0.204 -0.3225  0.0207 -0.0432
  208MOL    C7725331   6.835   7.812   0.227  0.2201 -0.6171  0.4153
  208MOL    H7825332   6.808   7.898   0.289 -1.5272 -0.0273 -1.1486
  208MOL    H7925333   6.802   7.841   0.128 -0.5587 -1.3052  0.4643
  208MOL    C8025334   6.978   7.806   0.232  0.2628  0.7669  0.1210
  208MOL    F8125335   7.006   7.792   0.366 -0.5531  0.0076  0.4844
  208MOL    F8225336   7.029   7.703   0.165 -0.3911  0.0135  0.0062
  208MOL    C8325337   7.040   7.932   0.186 -0.0883  0.2643  0.5269
  208MOL    H8425338   6.989   8.011   0.242  0.3581  1.1238 -0.2735
  208MOL    H8525339   7.009   7.951   0.084  1.7610 -0.7938 -0.2569
  208MOL    C8625340   7.190   7.942   0.210  0.4631 -0.0606  0.2743
  208MOL    F8725341   7.203   7.984   0.336 -0.0221 -0.0771  0.6140
  208MOL    F8825342   7.256   7.828   0.196  0.1353  0.1699  0.1068
  208MOL    C8925343   7.269   8.041   0.110  0.6183 -0.3564 -0.3277
  208MOL    H9025344   7.213   8.134   0.097  0.7691 -0.2056  0.1201
  208MOL    H9125345   7.271   7.991   0.013  1.1934 -1.2789  0.1533
  208MOL    C9225346   7.419   8.066   0.143  1.0036  0.1128  0.0225
  208MOL    F9325347   7.447   8.170   0.062  0.6753  0.0131 -0.3467
  208MOL    F9425348   7.430   8.105   0.274 -0.0947  0.1184  0.9470
  208MOL    C9525349   7.504   7.943   0.106  0.3282  0.9505 -0.0782
  208MOL    H9625350   7.502   7.913   0.001  2.3520 -0.1069  0.1627
  208MOL    H9725351   7.474   7.855   0.162  3.4663 -0.8319 -1.0318
  208MOL    C9825352   7.656   7.960   0.139 -0.2174  0.0943 -0.6450
  208MOL    F9925353   7.680   7.996   0.268  0.3354 -0.0354 -0.0770
  208MOL   F10025354   7.718   7.843   0.121 -0.5091 -0.5086  0.3584
  208MOL   C10125355   7.718   8.071   0.053  0.0651 -0.1533  0.0123
  208MOL   H10225356   7.680   8.171   0.071 -1.5858 -0.8673  0.6583
  208MOL   H10325357   7.689   8.063   8.298  0.5182 -1.7327 -0.0071
  208MOL   C10425358   7.876   8.074   0.054  0.4286 -0.8365 -0.2002
  208MOL   F10525359   7.927   7.956   0.015  0.6896 -0.1477 -0.2080
  208MOL   F10625360   7.908   8.168   8.311  0.1633  1.2150  0.0948
  208MOL   C10725361   7.939   8.122   0.182  0.6765  1.1360  0.1568
  208MOL   H10825362   8.045   8.114   0.161  0.4712  0.4274 -0.6960
  208MOL   H10925363   7.920   8.042   0.253  1.2296 -0.2888 -1.2644
  208MOL   C11025364   7.894   8.259   0.243  0.9669  0.0064  0.0031
  208MOL   F11125365   7.768   8.300   0.221  0.3034  0.4078 -0.3179
  208MOL   F11225366   7.896   8.255   0.380 -0.0749  0.2000  0.0452
  208MOL   C11325367   7.987   0.027   0.206  0.1162 -0.0959  0.5381
  208MOL   H11425368   7.935   0.122   0.219 -1.4016 -0.6998 -0.9313
  208MOL   H11525369   8.008   0.019   0.099 -0.2858  0.8319  0.3887
  208MOL   C11625370   8.128   0.035   0.265 -0.5273 -0.1310  0.1044
  208MOL   F11725371   8.183   8.262   0.271 -0.5477  0.0663  0.4877
  208MOL   F11825372   8.203   0.110   0.183 -0.5406 -0.1756 -0.6725
  208MOL   C11925373   8.144   0.099   0.406 -0.0823 -0.7454  0.5756
  208MOL   H12025374   8.099   0.198   0.405 -0.9156 -1.1127  1.6523
  208MOL   H12125375   8.246   0.107   0.446 -0.4604 -0.9279  1.5898
  208MOL   H12225376   8.091   0.064   0.494 -0.1879  1.1178  1.2735
  209MOL     C125377   8.130   2.502   5.805 -0.6916  0.1310 -0.9682
  209MOL     F225378   8.108   2.377   5.776 -0.2050  0.0056  0.1180
  209MOL     F325379   8.082   2.580   5.712  0.3331  0.6210  0.2573
  209MOL     C425380   8.278   2.515   5.817 -0.5897 -0.5199 -1.1028
  209MOL     H525381   8.299   2.622   5.817  1.3671 -0.8092  2.1896
  209MOL     H625382   8.336   2.481   5.732 -0.2291 -0.3268 -0.9347
  209MOL     H725383   8.078   2.528   5.897 -1.4921 -0.0391 -1.3755
  209MOL     C825384   8.330   2.448   5.952 -0.1980 -0.2023 -0.2543
  209MOL     F925385   8.261   2.485   6.059  0.0526  0.3275 -0.5156
  209MOL    F1025386   8.312   2.319   5.952  0.0642  0.3221  0.7828
  209MOL    C1125387   0.127   2.475   5.982  0.2228  1.1007 -0.5412
  209MOL    H1225388   0.182   2.464   5.888  0.6365  0.5272 -0.2373
  209MOL    H1325389   0.171   2.400   6.047  1.1093  1.3079 -0.8860
  209MOL    C1425390   0.165   2.615   6.044 -0.0772  0.4770 -0.0459
  209MOL    F1525391   0.124   2.726   5.973 -0.2039 -0.4212 -0.0049
  209MOL    F1625392   0.107   2.615   6.160 -0.4619 -0.0099 -0.3928
  209MOL    C1725393   0.320   2.630   6.068 -0.1851 -0.5541  0.2673
  209MOL    H1825394   0.356   2.721   6.117  0.0900 -1.1952  1.2608
  209MOL    H1925395   0.352   2.645   5.965  0.3775 -2.1599  0.2047
  209MOL    C2025396   0.396   2.510   6.119  0.1662  0.6400  0.5830
  209MOL    F2125397   0.320   2.472   6.224 -0.1500  0.1330  0.3538
  209MOL    F2225398   0.396   2.397   6.043  0.3062  0.8529 -0.2813
  209MOL    C2325399   0.542   2.546   6.178 -0.3400  0.2451 -0.8300
  209MOL    H2425400   0.558   2.647   6.215  2.5770 -0.4204 -0.1669
  209MOL    H2525401   0.611   2.554   6.095  0.1321 -2.8831 -0.7998
  209MOL    C2625402   0.600   2.439   6.282  0.0922 -0.4236 -0.3944
  209MOL    F2725403   0.554   2.325   6.245 -0.0643 -0.5985  0.2530
  209MOL    F2825404   0.729   2.446   6.256  0.5265  0.2657  0.0716
  209MOL    C2925405   0.574   2.467   6.434  0.3037 -0.0429 -0.1818
  209MOL    H3025406   0.468   2.476   6.456  0.9351  4.9573  1.3801
  209MOL    H3125407   0.606   2.570   6.446  0.4563 -0.1069 -0.0404
  209MOL    C3225408   0.644   2.373   6.532 -0.5697  0.4130  1.0084
  209MOL    F3325409   0.776   2.371   6.519  0.2692  0.2556 -0.1178
  209MOL    F3425410   0.616   2.431   6.642  0.4949  0.3337  0.1666
  209MOL    C3525411   0.588   2.231   6.523 -0.4478 -0.0710  0.1226
  209MOL    H3625412   0.612   2.201   6.420 -1.9182 -1.1292  0.0811
  209MOL    H3725413   0.481   2.244   6.531 -0.7376 -2.4575  0.4848
  209MOL    C3825414   0.633   2.134   6.632 -0.1410  0.3368 -0.2905
  209MOL    F3925415   0.769   2.122   6.629 -0.0794 -0.3961 -0.0589
  209MOL    F4025416   0.602   2.195   6.743  0.1428 -0.0784 -0.0017
  209MOL    C4125417   0.566   1.993   6.631  0.5951 -0.1264 -0.3649
  209MOL    H4225418   0.460   2.003   6.656  0.5562 -1.4717  0.0383
  209MOL    H4325419   0.600   1.929   6.713 -1.3847 -2.1288 -1.0578
  209MOL    C4425420   0.576   1.910   6.503  0.3676 -0.4275  0.3859
  209MOL    F4525421   0.522   1.798   6.540 -0.0691  0.3388  0.1516
  209MOL    F4625422   0.486   1.957   6.413 -0.2621 -0.3239  0.0301
  209MOL    C4725423   0.710   1.903   6.427 -0.3358  1.2754 -0.4058
  209MOL    H4825424   0.791   1.879   6.496 -0.4239  2.8292  0.2569
  209MOL    H4925425   0.738   2.003   6.392 -1.5685  3.2020  3.8316
  209MOL    C5025426   0.719   1.808   6.306  0.2017 -0.4681 -0.1129
  209MOL    F5125427   0.602   1.805   6.244 -0.1911  0.4410  0.0758
  209MOL    F5225428   0.803   1.867   6.223 -0.3090 -0.7261 -0.5469
  209MOL    C5325429   0.779   1.674   6.344  0.0187  0.6074  0.2825
  209MOL    H5425430   0.720   1.624   6.420  0.0371  1.1223  0.6399
  209MOL    H5525431   0.878   1.689   6.387  0.8448  0.7945 -1.6129
  209MOL    C5625432   0.786   1.557   6.244 -0.1709  0.2233 -0.5044
  209MOL    F5725433   0.880   1.594   6.153  0.6393 -0.2704 -0.2559
  209MOL    F5825434   0.833   1.441   6.297 -0.4372 -0.1102  0.3641
  209MOL    C5925435   0.657   1.523   6.166  0.2110  0.0252 -0.4755
  209MOL    H6025436   0.629   1.608   6.105  0.0515 -0.7412 -1.4853
  209MOL    H6125437   0.583   1.506   6.244  2.5386 -0.4152  1.6857
  209MOL    C6225438   0.664   1.392   6.079  0.2020 -0.3124 -0.2040
  209MOL    F6325439   0.785   1.381   6.020 -0.1218  0.1298 -0.2077
  209MOL    F6425440   0.655   1.281   6.162 -0.0642 -0.3363 -0.7622
  209MOL    C6525441   0.565   1.383   5.967 -0.6060 -0.1051  0.3208
  209MOL    H6625442   0.570   1.292   5.907  1.9108 -0.3316  0.8404
  209MOL    H6725443   0.588   1.466   5.900  1.3080 -0.4536  0.5214
  209MOL    C6825444   0.421   1.398   6.021 -0.1759  0.6213  0.5158
  209MOL    F6925445   0.403   1.316   6.128  0.2524 -0.5899  0.5884
  209MOL    F7025446   0.402   1.528   6.055  0.3141  0.2666 -0.4337
  209MOL    C7125447   0.319   1.378   5.902  0.4622  0.1165  0.1164
  209MOL    H7225448   0.324   1.278   5.860  2.4362  0.0151  0.5366
  209MOL    H7325449   0.348   1.449   5.825 -1.6254 -0.9683 -1.7044
  209MOL    C7425450   0.164   1.417   5.923  0.0916 -0.0573  0.4756
  209MOL    F7525451   0.137   1.355   6.036  0.1645  0.1589  0.0623
  209MOL    F7625452   0.155   1.549   5.942  0.5405 -0.0184 -0.3220
  209MOL    C7725453   0.076   1.365   5.807 -0.8284  0.4312  0.1845
  209MOL    H7825454   0.100   1.264   5.775 -2.6770 -0.5909  1.9729
  209MOL    H7925455   0.105   1.425   5.720 -0.2888  0.7750  0.6016
  209MOL    C8025456   8.268   1.382   5.839 -0.4614 -0.5076 -0.8558
  209MOL    F8125457   8.228   1.318   5.944 -0.7987  0.0071 -0.6979
  209MOL    F8225458   8.251   1.514   5.854 -0.3079  0.0974  0.2753
  209MOL    C8325459   8.189   1.336   5.720  0.3379 -1.1013 -0.0440
  209MOL    H8425460   8.176   1.228   5.727 -1.2976 -0.9242 -0.1381
  209MOL    H8525461   8.246   1.348   5.628 -1.6620  2.3475 -0.9061
  209MOL    C8625462   8.053   1.410   5.692  0.2533  0.0504  0.1832
  209MOL    F8725463   8.075   1.531   5.658 -0.2021  0.1302 -0.4074
  209MOL    F8825464   7.999   1.348   5.588 -0.4476 -1.1390  0.1296
  209MOL    C8925465   7.960   1.406   5.815 -0.1881 -0.9153  0.3660
  209MOL    H9025466   8.014   1.426   5.908  0.8225 -0.4293 -0.3226
  209MOL    H9125467   7.919   1.305   5.824 -0.9653 -0.8268 -1.9383
  209MOL    C9225468   7.832   1.494   5.804 -0.8065 -0.3574 -0.2119
  209MOL    F9325469   7.870   1.619   5.776  0.1183  0.8906 -0.2255
  209MOL    F9425470   7.763   1.447   5.700 -0.1920 -0.0935 -0.0249
  209MOL    C9525471   7.754   1.495   5.937 -0.3952 -0.5249  0.4519
  209MOL    H9625472   7.824   1.520   6.017  0.5263  0.8615 -0.7539
  209MOL    H9725473   7.701   1.402   5.956 -2.6723  0.6592  0.0242
  209MOL    C9825474   7.655   1.615   5.945  0.0028 -0.3459 -0.3110
  209MOL    F9925475   7.721   1.725   5.924  0.3885  0.0034 -0.0444
  209MOL   F10025476   7.563   1.608   5.849 -0.6779 -0.1233 -0.3573
  209MOL   C10125477   7.587   1.637   6.079  0.5480 -0.0490 -0.3265
  209MOL   H10225478   7.538   1.734   6.074  0.4037 -0.0711  0.6572
  209MOL   H10325479   7.666   1.643   6.154 -0.5265  1.4378  0.7042
  209MOL   C10425480   7.479   1.525   6.107  0.0679 -0.1321 -0.0967
  209MOL   F10525481   7.390   1.531   6.016 -0.5000  0.3477 -0.2429
  209MOL   F10625482   7.529   1.402   6.116  0.1259  0.4962  0.0923
  209MOL   C10725483   7.400   1.538   6.239  0.0372 -0.1786 -0.0915
  209MOL   H10825484   7.333   1.625   6.238  0.4790  0.1599 -0.5056
  209MOL   H10925485   7.460   1.551   6.329 -3.3715 -1.6711  2.4981
  209MOL   C11025486   7.312   1.422   6.265  0.3393 -0.6105  0.4894
  209MOL   F11125487   7.223   1.403   6.169  0.0191 -0.3458 -0.1506
  209MOL   F11225488   7.386   1.307   6.273  0.3034 -0.0797  0.2402
  209MOL   C11325489   7.237   1.434   6.399 -0.1341 -0.2897  0.9298
  209MOL   H11425490   7.199   1.536   6.395  0.6463 -0.0732 -2.0692
  209MOL   H11525491   7.306   1.431   6.483 -0.9352 -0.3673  1.5907
  209MOL   C11625492   7.112   1.337   6.420 -1.5430  0.1670 -0.2748
  209MOL   F11725493   7.014   1.367   6.337 -0.0480 -0.6434  0.3966
  209MOL   F11825494   7.155   1.207   6.409 -0.2417  0.2832 -0.0162
  209MOL   C11925495   7.040   1.337   6.558  0.3034 -0.3667 -0.8346
  209MOL   H12025496   6.932   1.329   6.545  0.2739 -0.2120 -0.6782
  209MOL   H12125497   7.052   1.439   6.593  0.7767 -1.0433  1.0248
  209MOL   H12225498   7.082   1.268   6.632  1.6736  0.2590 -1.0106
  210MOL     C125499   7.607   4.984   8.324 -0.2640  0.7230  0.8716
  210MOL     F225500   7.697   4.894   8.284  0.2495  0.2523  0.3865
  210MOL     F325501   7.668   5.056   0.066 -0.1425 -0.3877  0.5794
  210MOL     C425502   7.484   4.912   0.030  0.4999  0.2011  0.2177
  210MOL     H525503   7.432   4.990   0.085 -0.9697 -0.3032 -0.4269
  210MOL     H625504   7.519   4.832   0.095 -0.4351  0.4515  1.0475
  210MOL     H725505   7.586   5.052   8.242 -0.3334 -0.8969 -0.4625
  210MOL     C825506   7.377   4.858   8.283 -0.2752  0.0215 -0.0051
  210MOL     F925507   7.263   4.816   8.347 -0.0424  0.0584  0.0527
  210MOL    F1025508   7.338   4.964   8.207  0.4072 -0.3042  0.1291
  210MOL    C1125509   7.427   4.730   8.211  0.0795  0.2241  0.1803
  210MOL    H1225510   7.442   4.649   8.283  0.3706 -1.3175 -1.5695
  210MOL    H1325511   7.522   4.759   8.166  0.8393 -2.2331  0.1090
  210MOL    C1425512   7.320   4.676   8.107  0.2735 -0.1052 -0.4948
  210MOL    F1525513   7.206   4.647   8.169 -0.0235  1.1859 -0.3093
  210MOL    F1625514   7.292   4.763   8.011  0.1212  0.5729 -0.0429
  210MOL    C1725515   7.367   4.540   8.035  0.3269  0.1561 -0.7382
  210MOL    H1825516   7.301   4.507   7.954 -2.1421  2.7891  0.1086
  210MOL    H1925517   7.364   4.458   8.107  1.4804  0.9761  0.2413
  210MOL    C2025518   7.511   4.550   7.961  0.8191  0.0897 -0.7192
  210MOL    F2125519   7.522   4.667   7.891 -0.2662 -0.6837 -0.0627
  210MOL    F2225520   7.599   4.551   8.063  0.3263  0.5999  0.3038
  210MOL    C2325521   7.555   4.423   7.874 -0.1974  0.2002  0.5913
  210MOL    H2425522   7.642   4.458   7.818 -0.2973 -0.1909  0.1917
  210MOL    H2525523   7.472   4.403   7.807 -0.8678 -1.1804  1.8077
  210MOL    C2625524   7.585   4.294   7.952 -0.2306  0.1150  0.6271
  210MOL    F2725525   7.686   4.306   8.047 -0.0643  0.1905  0.1011
  210MOL    F2825526   7.458   4.272   8.004  0.9836  0.3187 -0.2027
  210MOL    C2925527   7.612   4.174   7.861  0.1522 -0.2731 -0.2717
  210MOL    H3025528   7.711   4.195   7.819  0.4617 -1.2063 -0.0364
  210MOL    H3125529   7.546   4.168   7.774  1.0894  0.8620 -1.0777
  210MOL    C3225530   7.628   4.037   7.922 -0.2160 -0.6644 -0.7254
  210MOL    F3325531   7.709   4.040   8.018 -0.2911  0.1952  0.5526
  210MOL    F3425532   7.507   4.006   7.975  0.1047 -0.6537  0.5641
  210MOL    C3525533   7.661   3.925   7.828  0.2600 -0.3925 -0.0843
  210MOL    H3625534   7.579   3.910   7.758  0.5925 -0.4801 -0.4590
  210MOL    H3725535   7.677   3.831   7.882  4.0212 -0.5814 -1.3492
  210MOL    C3825536   7.781   3.935   7.734  0.2369 -0.1514 -0.4075
  210MOL    F3925537   7.798   3.823   7.674 -0.4540  0.1264  0.0520
  210MOL    F4025538   7.750   4.026   7.631 -0.3317 -0.2415 -0.5889
  210MOL    C4125539   7.906   3.981   7.811 -0.1272  0.3064  0.2019
  210MOL    H4225540   7.927   3.916   7.895  1.7656  0.5618 -0.0466
  210MOL    H4325541   7.895   4.085   7.843  2.0242 -0.5299  3.9886
  210MOL    C4425542   8.031   3.989   7.716 -0.0000  0.0490 -0.5818
  210MOL    F4525543   8.049   3.864   7.678  0.1472  0.1208 -0.6071
  210MOL    F4625544   8.009   4.061   7.609  0.4262 -0.3567  0.1517
  210MOL    C4725545   8.167   4.038   7.783 -0.6652  0.0340 -0.4336
  210MOL    H4825546   8.159   4.143   7.812  1.2809 -0.3183  1.4945
  210MOL    H4925547   8.239   4.049   7.702  0.6920  1.2550  0.9221
  210MOL    C5025548   8.225   3.959   7.897  0.0707 -0.5889 -0.3957
  210MOL    F5125549   8.153   3.982   8.007 -0.2873  0.6652 -0.1513
  210MOL    F5225550   8.193   3.830   7.867  0.5029 -0.2936 -0.3769
  210MOL    C5325551   0.028   3.961   7.916  0.8390 -0.6167  0.4002
  210MOL    H5425552   0.074   3.962   7.817  1.4761  0.1740  0.6973
  210MOL    H5525553   0.058   3.862   7.952  3.4263 -0.9631 -2.5002
  210MOL    C5625554   0.087   4.082   8.004  0.6011 -0.0892  0.7738
  210MOL    F5725555   0.053   4.194   7.942 -0.1541  0.0327  0.0147
  210MOL    F5825556   0.039   4.063   8.127 -0.2450 -0.4093  0.1144
  210MOL    C5925557   0.240   4.081   8.012 -0.1678 -0.0786  0.1098
  210MOL    H6025558   0.281   4.092   7.911 -1.4386 -0.1190 -0.4222
  210MOL    H6125559   0.272   3.982   8.043  0.7114  0.1621  0.0052
  210MOL    C6225560   0.304   4.172   8.117  0.2571 -0.5273 -0.2225
  210MOL    F6325561   0.265   4.128   8.236  0.1637 -0.3334 -0.1228
  210MOL    F6425562   0.437   4.148   8.117  0.0171 -0.2466  0.3762
  210MOL    C6525563   0.273   4.322   8.103 -0.6769  1.0864 -0.1182
  210MOL    H6625564   0.286   4.358   8.205 -3.1207  2.6073 -0.3027
  210MOL    H6725565   0.165   4.327   8.088 -0.5754  2.2501 -0.4718
  210MOL    C6825566   0.361   4.400   8.005 -0.5438 -0.7682  0.0214
  210MOL    F6925567   0.489   4.411   8.049  0.1264  0.0124  0.5546
  210MOL    F7025568   0.369   4.336   7.892 -0.4376  0.1377 -0.1443
  210MOL    C7125569   0.311   4.543   7.981  0.1501  0.1426 -0.2995
  210MOL    H7225570   0.210   4.541   7.938  0.2359  0.7830 -0.5465
  210MOL    H7325571   0.380   4.581   7.906  2.0521  1.4087  2.0521
  210MOL    C7425572   0.308   4.633   8.110  0.6296 -0.4969 -0.5047
  210MOL    F7525573   0.212   4.588   8.193  0.4571  0.4595  0.2209
  210MOL    F7625574   0.425   4.634   8.177 -0.0067  0.5180 -0.2770
  210MOL    C7725575   0.258   4.780   8.104 -0.9205  0.5256  0.1191
  210MOL    H7825576   0.254   4.805   8.210  0.2938  1.6623 -0.0926
  210MOL    H7925577   0.157   4.784   8.064 -1.2848 -1.8609  0.7050
  210MOL    C8025578   0.356   4.871   8.015 -0.4160 -0.5633 -0.3500
  210MOL    F8125579   0.481   4.878   8.069 -0.2448  0.1149 -0.0992
  210MOL    F8225580   0.350   4.815   7.899  0.0570 -0.1245  0.1378
  210MOL    C8325581   0.306   5.015   8.001  0.4598  0.4268 -0.2139
  210MOL    H8425582   0.201   5.008   7.971  0.6835 -1.2017 -0.6942
  210MOL    H8525583   0.369   5.055   7.922  2.4439  0.8174  1.5236
  210MOL    C8625584   0.308   5.109   8.125 -0.8298  0.3309 -0.2270
  210MOL    F8725585   0.247   5.057   8.229  0.5053 -0.3544  0.1444
  210MOL    F8825586   0.436   5.139   8.161  0.9203 -0.2700 -0.2483
  210MOL    C8925587   0.241   5.247   8.093  0.0496  0.0474 -0.4746
  210MOL    H9025588   0.257   5.304   8.185  0.1416  0.3284 -0.6631
  210MOL    H9125589   0.136   5.221   8.079 -0.3684  1.5916 -0.2523
  210MOL    C9225590   0.303   5.333   7.974  0.1475  0.1123 -0.3339
  210MOL    F9325591   0.431   5.328   7.989 -0.1104  0.0401 -0.3171
  210MOL    F9425592   0.274   5.275   7.860 -0.5144 -0.2229 -0.2330
  210MOL    C9525593   0.234   5.478   7.974  0.5419  0.5681  0.1311
  210MOL    H9625594   0.287   5.528   8.055 -0.8977  0.0875  1.3978
  210MOL    H9725595   0.132   5.456   8.004  0.6588 -1.0045 -0.5490
  210MOL    C9825596   0.252   5.575   7.851 -0.1337 -0.3250  0.5217
  210MOL    F9925597   0.194   5.524   7.749 -0.3894  0.2794  0.1586
  210MOL   F10025598   0.183   5.683   7.882  0.3185  0.0966 -0.0513
  210MOL   C10125599   0.399   5.611   7.824  0.0991  0.0994  0.3171
  210MOL   H10225600   0.399   5.660   7.727 -0.6334 -1.2975 -0.4115
  210MOL   H10325601   0.436   5.510   7.804 -1.5166 -0.2175 -1.2293
  210MOL   C10425602   0.484   5.695   7.917 -0.2614  0.3348 -0.8804
  210MOL   F10525603   0.425   5.805   7.952 -0.3913  0.3465  0.5476
  210MOL   F10625604   0.504   5.625   8.025 -0.0976  0.0945 -0.1379
  210MOL   C10725605   0.623   5.735   7.863 -0.3647  0.3543 -0.0036
  210MOL   H10825606   0.619   5.801   7.777  2.0122 -1.0610 -1.2411
  210MOL   H10925607   0.672   5.650   7.816 -1.5294 -0.1444 -0.3270
  210MOL   C11025608   0.728   5.780   7.975  1.0534  0.0224 -0.3718
  210MOL   F11125609   0.821   5.847   7.900 -0.3461 -0.0554  0.1682
  210MOL   F11225610   0.661   5.875   8.044  0.3494  0.4052 -0.3664
  210MOL   C11325611   0.801   5.673   8.066  0.0602  0.5102  0.3202
  210MOL   H11425612   0.858   5.603   8.005  0.0396  0.7715 -0.0014
  210MOL   H11525613   0.721   5.616   8.115 -1.0078  2.4087  0.8181
  210MOL   C11625614   0.879   5.729   8.185  0.3465 -0.1246 -1.0126
  210MOL   F11725615   0.968   5.823   8.132  0.0996 -0.1452  0.1253
  210MOL   F11825616   0.795   5.791   8.271  0.0753 -0.6063  0.0531
  210MOL   C11925617   0.959   5.617   8.249 -0.1452  0.0642 -0.4053
  210MOL   H12025618   1.027   5.644   8.330  0.4125  0.3313 -0.9657
  210MOL   H12125619   1.013   5.556   8.177  0.0017 -0.7840  0.4007
  210MOL   H12225620   0.895   5.541   8.295  1.2575 -0.5341  0.5925
  211MOL     C125621   1.508   4.768   4.338  0.3098  0.3864 -0.1475
  211MOL     F225622   1.405   4.828   4.276  0.3722 -0.2730 -0.0749
  211MOL     F325623   1.589   4.699   4.253 -0.0847  0.1797 -0.3596
  211MOL     C425624   1.447   4.664   4.441  0.2089 -0.5975 -0.3865
  211MOL     H525625   1.431   4.568   4.392  3.6742 -1.9646  0.9929
  211MOL     H625626   1.344   4.690   4.465  0.0889 -1.1783 -0.2739
  211MOL     H725627   1.556   4.856   4.379  0.0273 -0.0171  1.0710
  211MOL     C825628   1.536   4.656   4.565  0.1277  0.3057 -1.2525
  211MOL     F925629   1.662   4.646   4.527  0.0703  0.6049  0.0113
  211MOL    F1025630   1.520   4.766   4.637  0.2709  0.1599  0.5681
  211MOL    C1125631   1.493   4.550   4.671 -0.4158 -0.3252  0.5670
  211MOL    H1225632   1.390   4.579   4.691 -0.1151 -1.2876  3.8713
  211MOL    H1325633   1.557   4.560   4.759  2.0466  1.6453 -1.3856
  211MOL    C1425634   1.496   4.396   4.650 -0.0940 -0.5317  0.7910
  211MOL    F1525635   1.456   4.333   4.755  0.1933  0.1939  0.4600
  211MOL    F1625636   1.408   4.365   4.553 -0.5856  0.6535 -0.7232
  211MOL    C1725637   1.637   4.356   4.597  0.7089 -0.1949  0.2974
  211MOL    H1825638   1.658   4.421   4.511 -1.0606 -1.6968 -1.3234
  211MOL    H1925639   1.635   4.252   4.563  2.9880 -0.3827  0.6532
  211MOL    C2025640   1.751   4.368   4.704 -0.1000 -0.1351  0.1464
  211MOL    F2125641   1.854   4.322   4.637  0.1023 -0.0356  0.5323
  211MOL    F2225642   1.774   4.499   4.740 -0.1507  0.1010  0.1753
  211MOL    C2325643   1.748   4.285   4.838 -0.4955  0.0571  0.8306
  211MOL    H2425644   1.750   4.179   4.810 -0.8509 -0.4513  2.6280
  211MOL    H2525645   1.650   4.293   4.884 -0.7003 -0.1115  0.4288
  211MOL    C2625646   1.864   4.288   4.940 -0.1202 -0.7820  0.2694
  211MOL    F2725647   1.980   4.235   4.902  0.3787 -0.2768  0.1929
  211MOL    F2825648   1.887   4.419   4.982  0.1376  0.3218 -0.2951
  211MOL    C2925649   1.824   4.213   5.071  0.3438  0.3281 -0.7362
  211MOL    H3025650   1.768   4.280   5.137  0.8611  2.5131 -2.4471
  211MOL    H3125651   1.919   4.201   5.123  0.1219  1.4752 -0.0489
  211MOL    C3225652   1.755   4.073   5.046  0.1180  0.2432  0.2960
  211MOL    F3325653   1.638   4.093   4.991 -0.2670 -0.5204 -0.0056
  211MOL    F3425654   1.830   3.998   4.964  0.7323  0.0231  0.2443
  211MOL    C3525655   1.734   3.990   5.174 -0.2181 -0.3011 -0.7725
  211MOL    H3625656   1.677   4.044   5.249 -1.0655 -2.0135 -0.1506
  211MOL    H3725657   1.835   3.965   5.207 -0.9998 -0.6068  1.4877
  211MOL    C3825658   1.656   3.861   5.148  0.2802 -0.1635 -0.7575
  211MOL    F3925659   1.536   3.889   5.103  0.0474 -0.4219 -0.3579
  211MOL    F4025660   1.724   3.797   5.048  0.0377 -0.0249  0.0823
  211MOL    C4125661   1.656   3.771   5.273 -0.3530 -0.0308  0.4170
  211MOL    H4225662   1.659   3.844   5.354  0.4294 -0.8115  1.1057
  211MOL    H4325663   1.755   3.724   5.276 -0.2758  0.1553  0.7304
  211MOL    C4425664   1.549   3.664   5.290 -0.2500 -0.7950 -0.3525
  211MOL    F4525665   1.428   3.719   5.308 -0.1321 -0.3648  0.0368
  211MOL    F4625666   1.549   3.595   5.177  0.6372 -0.4381  0.2778
  211MOL    C4725667   1.552   3.564   5.405 -0.3690 -0.5113  0.2187
  211MOL    H4825668   1.473   3.493   5.381 -0.8503  0.3682 -0.8301
  211MOL    H4925669   1.525   3.617   5.496 -2.9742  0.7974 -1.2831
  211MOL    C5025670   1.691   3.495   5.415  0.5784 -0.2033 -0.1511
  211MOL    F5125671   1.728   3.458   5.295  0.2847  0.1450 -0.0801
  211MOL    F5225672   1.791   3.570   5.460  0.9434 -0.3947 -0.0306
  211MOL    C5325673   1.679   3.375   5.507  0.5681 -0.4002 -0.1947
  211MOL    H5425674   1.579   3.332   5.502  0.5246 -0.2314 -0.8392
  211MOL    H5525675   1.698   3.401   5.611  0.0708 -2.8881  0.5680
  211MOL    C5625676   1.783   3.261   5.470  0.1657  0.3456  0.6314
  211MOL    F5725677   1.769   3.214   5.346  0.3728 -0.9229  0.4210
  211MOL    F5825678   1.905   3.300   5.491 -0.5524 -0.1486 -0.1106
  211MOL    C5925679   1.755   3.147   5.571 -0.2132  0.2279 -0.2527
  211MOL    H6025680   1.661   3.096   5.549 -0.0934 -1.6702  3.2577
  211MOL    H6125681   1.733   3.182   5.671 -1.1323  1.4878 -0.8990
  211MOL    C6225682   1.857   3.029   5.561  0.2814 -0.1490 -0.2650
  211MOL    F6325683   1.855   2.977   5.436  0.0301  0.2985 -0.4360
  211MOL    F6425684   1.981   3.074   5.572 -0.4506 -0.2108  0.3606
  211MOL    C6525685   1.830   2.925   5.668  0.1476  0.2454 -0.5266
  211MOL    H6625686   1.729   2.883   5.665 -1.0527  2.9988 -0.4113
  211MOL    H6725687   1.832   2.967   5.768 -1.4835  0.1833 -0.4561
  211MOL    C6825688   1.927   2.797   5.665  0.6395 -0.1151 -0.2814
  211MOL    F6925689   1.920   2.767   5.536 -0.1986 -0.2886 -0.3212
  211MOL    F7025690   2.052   2.817   5.699 -0.4497  0.1932 -0.5170
  211MOL    C7125691   1.872   2.678   5.762  0.5547 -0.0760  0.4892
  211MOL    H7225692   1.771   2.658   5.729  1.3438 -0.4393 -1.7433
  211MOL    H7325693   1.869   2.723   5.862 -1.0422  1.2111 -0.1253
  211MOL    C7425694   1.943   2.542   5.758 -0.0394  0.1457  0.1184
  211MOL    F7525695   1.871   2.433   5.799 -0.1303  0.0233 -0.0415
  211MOL    F7625696   1.979   2.524   5.635  0.0871  0.3334 -0.1174
  211MOL    C7725697   2.065   2.546   5.859  0.3865 -0.5614  0.1120
  211MOL    H7825698   2.029   2.579   5.956  0.1539 -0.4667 -0.0050
  211MOL    H7925699   2.138   2.618   5.821 -0.3138  0.3652  0.5010
  211MOL    C8025700   2.129   2.403   5.881  0.2598  0.1370  0.4393
  211MOL    F8125701   2.046   2.326   5.955  0.1546 -0.0592 -0.5862
  211MOL    F8225702   2.153   2.349   5.764 -0.4937 -0.0276  0.6400
  211MOL    C8325703   2.263   2.419   5.950  0.0604  0.4984  0.4787
  211MOL    H8425704   2.272   2.514   6.002  1.7536 -0.6267  2.3317
  211MOL    H8525705   2.338   2.440   5.874 -0.9030  1.3487 -0.2568
  211MOL    C8625706   2.304   2.300   6.050  0.4417 -0.4999 -0.3644
  211MOL    F8725707   2.424   2.326   6.114  0.3090 -0.6232  0.2232
  211MOL    F8825708   2.204   2.290   6.136  0.1169  0.5269 -0.3929
  211MOL    C8925709   2.318   2.171   5.962 -0.0953 -0.0818  0.2097
  211MOL    H9025710   2.399   2.176   5.888  1.2900 -1.1336  1.6162
  211MOL    H9125711   2.233   2.172   5.894  0.1644 -1.0760 -0.1472
  211MOL    C9225712   2.324   2.034   6.038 -0.0786  0.0865  0.2280
  211MOL    F9325713   2.420   2.029   6.125 -0.1427  0.3031 -0.0636
  211MOL    F9425714   2.199   2.018   6.103 -0.3087  0.2139 -0.0733
  211MOL    C9525715   2.345   1.907   5.952 -0.1812  0.2241  0.2206
  211MOL    H9625716   2.367   1.824   6.020 -0.8344  0.4882  0.7622
  211MOL    H9725717   2.440   1.926   5.903  0.5606  0.1438  1.6196
  211MOL    C9825718   2.247   1.867   5.839  0.5373 -0.8065  0.1255
  211MOL    F9925719   2.237   1.969   5.755  1.1656  0.8502 -0.1579
  211MOL   F10025720   2.293   1.763   5.772 -0.4599 -0.1449 -0.3816
  211MOL   C10125721   2.106   1.832   5.880 -0.0197 -0.0590  0.1297
  211MOL   H10225722   2.066   1.916   5.936 -0.4956  0.5952 -1.1506
  211MOL   H10325723   2.092   1.744   5.943 -0.0031 -0.2343 -0.1076
  211MOL   C10425724   2.002   1.812   5.767  0.8291 -0.3907  0.7961
  211MOL   F10525725   1.889   1.776   5.838 -0.4115 -0.0702 -0.0380
  211MOL   F10625726   1.983   1.930   5.705 -0.3270 -0.4900  0.1063
  211MOL   C10725727   2.030   1.701   5.659  0.0483  0.5495 -0.1147
  211MOL   H10825728   2.053   1.608   5.712 -0.8994  0.0527 -0.5688
  211MOL   H10925729   2.122   1.723   5.605  1.0825 -2.0588  0.4526
  211MOL   C11025730   1.906   1.670   5.562 -0.0377 -0.5858  0.4511
  211MOL   F11125731   1.809   1.624   5.636 -0.1951  0.6122  0.3232
  211MOL   F11225732   1.860   1.782   5.511 -0.5961  0.0535  0.4442
  211MOL   C11325733   1.951   1.560   5.460  0.0978  0.0807  1.0281
  211MOL   H11425734   1.862   1.522   5.410  0.3332 -0.9493  1.3822
  211MOL   H11525735   1.993   1.480   5.522  1.2890  2.0779  2.8842
  211MOL   C11625736   2.056   1.601   5.359 -0.3632 -0.3678 -0.3810
  211MOL   F11725737   2.010   1.717   5.316  0.5620  0.5781 -0.0972
  211MOL   F11825738   2.172   1.625   5.412  0.4429  0.2438  0.2526
  211MOL   C11925739   2.053   1.520   5.234 -0.1509  0.4950  0.8442
  211MOL   H12025740   2.118   1.561   5.156 -0.0502  0.8629  1.1161
  211MOL   H12125741   1.947   1.516   5.208 -0.4505  0.9048  1.9756
  211MOL   H12225742   2.086   1.418   5.248 -0.3408  0.4273  0.8021
  212MOL     C125743   3.627   7.349   5.404 -0.6151 -0.1344  1.0574
  212MOL     F225744   3.655   7.283   5.516  0.4356 -0.6468  0.4311
  212MOL     F325745   3.660   7.266   5.306 -0.0009 -0.3338  0.2621
  212MOL     C425746   3.716   7.479   5.395  0.6031 -0.5095 -0.4486
  212MOL     H525747   3.819   7.446   5.381  0.7322 -0.2106 -0.2174
  212MOL     H625748   3.718   7.530   5.491  1.5585  0.1743 -0.8162
  212MOL     H725749   3.518   7.352   5.408 -0.7648 -0.5829 -1.9240
  212MOL     C825750   3.676   7.567   5.272 -0.5152  0.2359  0.0110
  212MOL     F925751   3.756   7.673   5.287  0.0179 -0.0425 -0.0331
  212MOL    F1025752   3.712   7.503   5.158  1.0244  0.1519 -0.1866
  212MOL    C1125753   3.529   7.603   5.245  0.0726 -0.2407  0.5398
  212MOL    H1225754   3.481   7.510   5.215 -1.3508 -0.0503  2.1449
  212MOL    H1325755   3.511   7.663   5.156 -1.5777  1.5360  2.0260
  212MOL    C1425756   3.443   7.660   5.366 -0.5676  0.6670 -0.4549
  212MOL    F1525757   3.320   7.655   5.329  0.4426  0.5397 -0.4563
  212MOL    F1625758   3.450   7.577   5.473  0.5349  0.1598  0.4004
  212MOL    C1725759   3.511   7.799   5.400 -0.4946 -0.0138 -0.5648
  212MOL    H1825760   3.533   7.857   5.310  1.7349  0.3822  0.1978
  212MOL    H1925761   3.602   7.770   5.453 -1.4433 -0.8319  0.6685
  212MOL    C2025762   3.423   7.891   5.492  0.1107 -0.4368  0.3170
  212MOL    F2125763   3.318   7.909   5.422  0.2795  0.0286 -0.6711
  212MOL    F2225764   3.391   7.835   5.612 -0.0668 -0.4317  0.1740
  212MOL    C2325765   3.485   8.029   5.518  0.4722  0.2377 -0.1484
  212MOL    H2425766   3.416   8.059   5.596 -0.6241 -2.7871  0.1033
  212MOL    H2525767   3.477   8.090   5.428 -0.7429 -1.2743 -1.0873
  212MOL    C2625768   3.631   8.034   5.559  0.0575  0.2494  0.0170
  212MOL    F2725769   3.646   7.975   5.680 -0.0434 -0.4771 -0.2136
  212MOL    F2825770   3.721   7.987   5.478  0.6584 -0.4638 -0.3124
  212MOL    C2925771   3.672   8.180   5.569 -0.5019 -0.0436  0.0146
  212MOL    H3025772   3.614   8.224   5.651  3.1062 -1.6579  3.5828
  212MOL    H3125773   3.652   8.221   5.470  1.8940 -1.1588 -0.9549
  212MOL    C3225774   3.821   8.212   5.598 -0.2356 -0.3708 -0.0149
  212MOL    F3325775   3.829   8.347   5.606  0.2408  0.1199  0.6622
  212MOL    F3425776   3.855   8.166   5.719  0.3884  0.5271  0.1711
  212MOL    C3525777   3.925   8.164   5.491  0.3913  0.1384 -0.5078
  212MOL    H3625778   3.881   8.183   5.393 -1.2834 -0.3813  0.1251
  212MOL    H3725779   3.949   8.057   5.494 -0.5110 -0.0563 -0.0724
  212MOL    C3825780   4.065   8.231   5.487  0.7282 -0.3369  0.3185
  212MOL    F3925781   4.121   8.198   5.372  0.3013  0.1941 -0.0327
  212MOL    F4025782   4.056   0.010   5.474  0.0525  0.3001 -0.0649
  212MOL    C4125783   4.160   8.177   5.598  0.3474  0.1635  0.0363
  212MOL    H4225784   4.150   8.069   5.592 -1.0404  0.3183 -0.6536
  212MOL    H4325785   4.128   8.197   5.700  1.5991 -0.6176  0.5938
  212MOL    C4425786   4.307   8.230   5.592  0.7305  0.2698 -0.2292
  212MOL    F4525787   4.368   8.186   5.483 -0.2077  0.6678 -0.3191
  212MOL    F4625788   4.303   0.008   5.575  0.7093 -0.1508 -0.6466
  212MOL    C4725789   4.397   8.204   5.714 -0.0340  0.1768  0.1751
  212MOL    H4825790   4.364   8.254   5.806 -0.1552 -0.0362  0.2480
  212MOL    H4925791   4.501   8.230   5.697  0.2571 -0.8118  0.4069
  212MOL    C5025792   4.396   8.054   5.745 -0.2699 -0.1549 -0.2698
  212MOL    F5125793   4.274   8.028   5.795 -0.0872  0.3984  0.1297
  212MOL    F5225794   4.420   7.984   5.630 -0.3324  0.6443  0.6838
  212MOL    C5325795   4.492   8.025   5.860 -0.3544  0.3792  0.5764
  212MOL    H5425796   4.468   8.090   5.945 -1.5748  1.0026 -0.2280
  212MOL    H5525797   4.593   8.054   5.831 -0.1318 -1.9483 -1.0974
  212MOL    C5625798   4.489   7.879   5.916  0.2119 -0.6786  0.5256
  212MOL    F5725799   4.576   7.878   6.022  0.1444  0.0640  0.2187
  212MOL    F5825800   4.368   7.848   5.956  0.0659 -0.2526  0.0739
  212MOL    C5925801   4.537   7.771   5.818  0.7358  0.1226 -1.1879
  212MOL    H6025802   4.638   7.806   5.796  1.5347 -1.4932 -0.2626
  212MOL    H6125803   4.481   7.770   5.725  1.4941 -2.3924 -1.6573
  212MOL    C6225804   4.560   7.625   5.881 -0.0350 -0.2156 -0.7906
  212MOL    F6325805   4.635   7.625   5.991 -0.5151 -0.1310  0.3997
  212MOL    F6425806   4.441   7.570   5.904  0.5579 -0.2633 -0.0030
  212MOL    C6525807   4.645   7.524   5.792 -0.2502  0.6264  0.0320
  212MOL    H6625808   4.744   7.565   5.769 -0.4082 -0.0328 -1.9743
  212MOL    H6725809   4.591   7.523   5.698 -0.0436  2.8447 -0.1412
  212MOL    C6825810   4.667   7.381   5.847 -0.5896 -0.0716 -0.2600
  212MOL    F6925811   4.738   7.394   5.960  0.0828  0.1881  0.0529
  212MOL    F7025812   4.545   7.323   5.871 -0.5437  0.4314 -0.0202
  212MOL    C7125813   4.731   7.286   5.740  0.2398 -0.2968  0.1958
  212MOL    H7225814   4.819   7.339   5.705  0.5998 -0.2987  1.0791
  212MOL    H7325815   4.659   7.270   5.660  0.2686 -1.5735  0.4149
  212MOL    C7425816   4.783   7.154   5.798 -0.3166 -0.1429 -0.5433
  212MOL    F7525817   4.889   7.177   5.876 -0.0971  0.5272 -0.4906
  212MOL    F7625818   4.689   7.106   5.881 -0.3345  0.1206  0.5189
  212MOL    C7725819   4.819   7.038   5.700 -1.2139 -0.4595  0.8317
  212MOL    H7825820   4.733   7.015   5.638 -0.2587  2.1411 -1.5431
  212MOL    H7925821   4.836   6.942   5.749 -1.8097  0.0399  2.0489
  212MOL    C8025822   4.926   7.083   5.602  0.4810  0.5936 -0.1370
  212MOL    F8125823   4.868   7.166   5.518  0.2739 -0.1365 -0.0950
  212MOL    F8225824   5.018   7.148   5.660  0.1126  0.3987  0.0814
  212MOL    C8325825   4.994   6.970   5.518  0.1918 -0.6865  0.2310
  212MOL    H8425826   5.041   6.893   5.579  0.5752 -1.1003 -0.5722
  212MOL    H8525827   5.072   7.014   5.455 -0.8388 -0.5957 -0.9968
  212MOL    C8625828   4.903   6.898   5.412 -0.4505 -0.1209  0.2832
  212MOL    F8725829   4.811   6.831   5.477  0.5545  0.1612 -0.4190
  212MOL    F8825830   4.836   6.985   5.342 -0.0325 -0.3269 -0.1211
  212MOL    C8925831   4.974   6.801   5.319  0.3940 -0.6449 -0.0530
  212MOL    H9025832   5.004   6.716   5.381 -0.0463 -1.8027 -1.4012
  212MOL    H9125833   5.062   6.858   5.288  0.2076 -0.3546 -0.0460
  212MOL    C9225834   4.883   6.752   5.196  0.2310  0.0696 -0.7217
  212MOL    F9325835   4.852   6.859   5.123 -0.0614  0.4612 -0.2258
  212MOL    F9425836   4.960   6.677   5.114  0.2930  0.0585  0.0293
  212MOL    C9525837   4.755   6.675   5.236  0.5529  0.2679 -0.0651
  212MOL    H9625838   4.714   6.644   5.139 -0.0294  1.3757 -0.1867
  212MOL    H9725839   4.677   6.734   5.285  0.2377  0.5031 -0.8426
  212MOL    C9825840   4.777   6.548   5.330  0.5703 -0.3585  0.7451
  212MOL    F9925841   4.872   6.476   5.269 -0.2170 -0.4368  0.5184
  212MOL   F10025842   4.815   6.575   5.447 -0.2114  0.2351  0.3106
  212MOL   C10125843   4.654   6.449   5.341  0.2437  0.3120  0.5642
  212MOL   H10225844   4.660   6.396   5.435 -0.5333 -0.0249  0.4285
  212MOL   H10325845   4.653   6.373   5.262  0.7539  0.6733  0.2091
  212MOL   C10425846   4.517   6.518   5.347  0.3390  0.3385 -0.1341
  212MOL   F10525847   4.441   6.425   5.409  0.2256  0.5331 -0.2573
  212MOL   F10625848   4.533   6.612   5.444  0.1839  0.6321 -0.5443
  212MOL   C10725849   4.441   6.579   5.228  0.9357  0.3682 -0.0839
  212MOL   H10825850   4.477   6.680   5.205 -1.9400  1.0185 -1.9367
  212MOL   H10925851   4.337   6.599   5.254  0.0575  1.9696 -4.3740
  212MOL   C11025852   4.453   6.496   5.098 -0.3298 -0.6847  0.4282
  212MOL   F11125853   4.570   6.508   5.034  0.3573 -0.1429  0.0491
  212MOL   F11225854   4.443   6.370   5.140 -0.5022  0.0680  0.0523
  212MOL   C11325855   4.347   6.524   4.992  0.1730  0.5778 -0.8728
  212MOL   H11425856   4.358   6.464   4.901 -1.5433 -2.1155  0.6104
  212MOL   H11525857   4.361   6.627   4.958  1.8435 -0.1120 -2.3994
  212MOL   C11625858   4.203   6.494   5.036  0.4147 -0.0403  1.0217
  212MOL   F11725859   4.198   6.375   5.096 -0.1786 -0.1210  0.1017
  212MOL   F11825860   4.164   6.579   5.121 -0.2982 -0.1861  0.4175
  212MOL   C11925861   4.104   6.507   4.921  0.1252 -0.6048  1.0548
  212MOL   H12025862   4.007   6.535   4.962  0.2510  1.9528 -0.2687
  212MOL   H12125863   4.084   6.424   4.853 -1.4017  1.3062 -0.8923
  212MOL   H12225864   4.129   6.587   4.851 -0.6387 -2.7708 -1.7836
  213MOL     C125865   5.814   4.819   5.079 -0.2394  0.6729 -0.1287
  213MOL     F225866   5.725   4.730   5.028  0.4338 -0.0705  0.2293
  213MOL     F325867   5.772   4.941   5.063  0.3408  0.3051  0.5054
  213MOL     C425868   5.959   4.802   5.036  0.1230  0.4830 -0.1930
  213MOL     H525869   5.971   4.806   4.928 -1.1582 -1.9092 -0.4773
  213MOL     H625870   5.980   4.702   5.075 -0.0992  0.9310  1.0945
  213MOL     H725871   5.803   4.801   5.186  0.2194  0.4884 -0.1123
  213MOL     C825872   6.052   4.901   5.111 -0.6439 -0.0704 -0.2828
  213MOL     F925873   6.022   5.026   5.068  0.0400 -0.1317 -0.2537
  213MOL    F1025874   6.021   4.888   5.240  0.1177 -0.1925 -0.2101
  213MOL    C1125875   6.204   4.878   5.082  0.6195  0.0113 -0.2259
  213MOL    H1225876   6.256   4.952   5.143  1.8655 -2.0061  1.2613
  213MOL    H1325877   6.219   4.919   4.983 -0.5362  0.2268 -0.3137
  213MOL    C1425878   6.260   4.740   5.105  0.0491 -0.4720 -0.3790
  213MOL    F1525879   6.203   4.697   5.215 -0.1811  0.3226 -0.3331
  213MOL    F1625880   6.232   4.652   5.006 -0.1184 -0.0671  0.1919
  213MOL    C1725881   6.413   4.732   5.125 -0.4060 -0.0506  0.0178
  213MOL    H1825882   6.435   4.758   5.229 -2.3672 -1.3234  0.7910
  213MOL    H1925883   6.456   4.806   5.058 -0.3533 -0.6512 -0.6171
  213MOL    C2025884   6.474   4.586   5.122  0.4754 -0.0212 -0.4714
  213MOL    F2125885   6.598   4.584   5.167  0.0555  0.0247 -0.1319
  213MOL    F2225886   6.399   4.502   5.201 -0.5512 -0.1177  0.0956
  213MOL    C2325887   6.494   4.519   4.980  0.4047  0.2391 -0.0514
  213MOL    H2425888   6.399   4.479   4.944 -0.3158 -0.0643  2.1375
  213MOL    H2525889   6.558   4.433   5.001  2.0886  1.2877 -0.8631
  213MOL    C2625890   6.559   4.606   4.872 -0.3680 -0.2110  0.2797
  213MOL    F2725891   6.470   4.701   4.837 -0.2254 -0.0145  0.5587
  213MOL    F2825892   6.667   4.671   4.925 -0.0063 -0.6749 -0.2329
  213MOL    C2925893   6.592   4.528   4.743  0.6420 -0.9437  0.3289
  213MOL    H3025894   6.496   4.495   4.704  0.6192 -2.4970  1.6537
  213MOL    H3125895   6.632   4.429   4.764  0.0799 -1.9397 -3.0004
  213MOL    C3225896   6.683   4.602   4.637  0.2330  0.3424  0.1721
  213MOL    F3325897   6.652   4.727   4.631  0.1632 -0.1857  0.0353
  213MOL    F3425898   6.809   4.587   4.681 -0.4271 -0.0956 -0.1788
  213MOL    C3525899   6.666   4.532   4.510  1.0282 -0.0532 -0.3233
  213MOL    H3625900   6.570   4.559   4.465  0.5169 -0.7267  0.3348
  213MOL    H3725901   6.662   4.423   4.520  2.2382 -0.1587 -0.8701
  213MOL    C3825902   6.777   4.569   4.412  0.6859  1.1839  0.7312
  213MOL    F3925903   6.781   4.701   4.382 -0.1542 -0.7041  0.5644
  213MOL    F4025904   6.899   4.533   4.464 -0.0246  0.0042 -0.1912
  213MOL    C4125905   6.756   4.494   4.269 -0.4780 -0.1072  0.7031
  213MOL    H4225906   6.651   4.486   4.241 -0.0566 -0.6540 -0.7790
  213MOL    H4325907   6.777   4.388   4.284  2.6052  0.3568  0.1151
  213MOL    C4425908   6.845   4.541   4.150  0.3479 -0.0502 -0.6115
  213MOL    F4525909   6.832   4.438   4.065 -0.0925  0.1309  0.0070
  213MOL    F4625910   6.787   4.651   4.101 -0.3976  0.0595  0.4328
  213MOL    C4725911   6.992   4.564   4.189  0.1374  0.0010 -0.7311
  213MOL    H4825912   7.023   4.470   4.234  0.0882 -0.6957 -2.1166
  213MOL    H4925913   7.001   4.648   4.258  1.8150 -2.4584  2.1964
  213MOL    C5025914   7.091   4.590   4.077  0.2336  0.2500 -0.0586
  213MOL    F5125915   7.209   4.585   4.138 -0.0389 -0.1575 -0.1860
  213MOL    F5225916   7.094   4.477   3.994 -0.2292 -0.0462 -0.3366
  213MOL    C5325917   7.085   4.722   3.997  0.2606  0.4665  0.5507
  213MOL    H5425918   7.067   4.814   4.053 -0.6102  0.8878 -0.4033
  213MOL    H5525919   6.992   4.713   3.942  0.3114 -1.9730  0.8230
  213MOL    C5625920   7.198   4.743   3.897 -0.2558 -0.0034  0.5461
  213MOL    F5725921   7.310   4.749   3.971 -0.1422  0.1666 -0.1464
  213MOL    F5825922   7.222   4.642   3.814 -0.1765  0.0896  0.1339
  213MOL    C5925923   7.185   4.877   3.827 -0.2650  0.4064  0.2400
  213MOL    H6025924   7.184   4.959   3.898  0.7878 -0.8760  1.7828
  213MOL    H6125925   7.094   4.896   3.770 -1.0153 -0.3652  1.1488
  213MOL    C6225926   7.295   4.906   3.717 -0.6021 -0.3422  0.4859
  213MOL    F6325927   7.414   4.892   3.761  0.0263  0.4478  0.0076
  213MOL    F6425928   7.277   4.818   3.615  0.3787 -0.3804 -0.5124
  213MOL    C6525929   7.284   5.048   3.658 -0.1579 -0.9863 -0.6319
  213MOL    H6625930   7.188   5.051   3.606  0.4453 -2.0720 -1.8360
  213MOL    H6725931   7.360   5.054   3.581  0.1090 -1.5149 -0.4127
  213MOL    C6825932   7.280   5.170   3.759 -0.2347  0.0780  0.1046
  213MOL    F6925933   7.167   5.171   3.828 -0.0495  0.1200 -0.4021
  213MOL    F7025934   7.379   5.156   3.852 -1.0311  0.1108  0.1073
  213MOL    C7125935   7.278   5.318   3.705 -0.5847  0.7939  0.0985
  213MOL    H7225936   7.265   5.389   3.786 -0.1656 -0.0392  0.9031
  213MOL    H7325937   7.184   5.323   3.650 -0.9912 -1.8943  0.4634
  213MOL    C7425938   7.403   5.348   3.613 -0.2065  0.5163 -0.2247
  213MOL    F7525939   7.507   5.289   3.675  0.1599 -0.0923 -0.2659
  213MOL    F7625940   7.399   5.289   3.496  0.5694  0.5705 -0.5620
  213MOL    C7725941   7.437   5.497   3.594 -0.3272 -0.3984  0.4579
  213MOL    H7825942   7.530   5.505   3.537 -1.0520 -3.3721 -1.2556
  213MOL    H7925943   7.464   5.544   3.688 -1.5371 -2.3057  1.7757
  213MOL    C8025944   7.324   5.580   3.524 -0.3424 -0.4603 -0.0215
  213MOL    F8125945   7.304   5.528   3.401 -0.1420 -0.1236  0.6787
  213MOL    F8225946   7.210   5.580   3.595 -0.1708  0.1907 -0.7608
  213MOL    C8325947   7.371   5.729   3.515  0.9592  0.1648 -1.1033
  213MOL    H8425948   7.477   5.726   3.491  1.2751  0.0604  0.2406
  213MOL    H8525949   7.376   5.765   3.618 -1.4679  0.8266 -1.1926
  213MOL    C8625950   7.288   5.816   3.420 -0.6230  0.7119  0.0733
  213MOL    F8725951   7.282   5.751   3.307  0.3034  0.0253 -0.1447
  213MOL    F8825952   7.159   5.827   3.457 -0.3615  0.1354 -0.0417
  213MOL    C8925953   7.342   5.950   3.383 -0.1777 -0.0258  0.0843
  213MOL    H9025954   7.258   5.992   3.327  0.5566  1.7208  0.2807
  213MOL    H9125955   7.419   5.943   3.306 -0.3859 -1.8890  0.0095
  213MOL    C9225956   7.386   6.036   3.501  0.5712  0.1540 -0.1341
  213MOL    F9325957   7.318   6.005   3.608 -0.8556  0.3137 -0.2712
  213MOL    F9425958   7.516   6.026   3.533 -0.6386  0.5742 -0.0156
  213MOL    C9525959   7.365   6.188   3.476  0.0960  0.0134  0.3610
  213MOL    H9625960   7.396   6.240   3.567  0.3840  1.0928 -0.3346
  213MOL    H9725961   7.262   6.220   3.461  0.1373  0.1658  0.4030
  213MOL    C9825962   7.465   6.247   3.366 -0.0665  0.6816  0.9603
  213MOL    F9925963   7.592   6.221   3.391 -0.5162  0.2511 -0.0438
  213MOL   F10025964   7.432   6.196   3.246 -0.0161 -0.2187 -0.2892
  213MOL   C10125965   7.455   6.396   3.351 -0.6544  0.7140  0.4282
  213MOL   H10225966   7.477   6.445   3.446 -2.3770  0.7891  0.8065
  213MOL   H10325967   7.361   6.425   3.304 -1.4969 -0.6317  1.2752
  213MOL   C10425968   7.556   6.466   3.261 -0.1455  0.0216 -0.6930
  213MOL   F10525969   7.677   6.479   3.316  0.1108 -0.1689  0.1215
  213MOL   F10625970   7.564   6.397   3.152  0.0553  0.2106  0.5020
  213MOL   C10725971   7.522   6.612   3.231  0.7753 -0.1636  0.5874
  213MOL   H10825972   7.610   6.646   3.177 -0.6891  0.5615 -1.4109
  213MOL   H10925973   7.513   6.671   3.323 -0.3399  0.6796 -0.0512
  213MOL   C11025974   7.404   6.636   3.127 -0.0150  0.0029  0.4026
  213MOL   F11125975   7.418   6.558   3.016 -0.1958 -0.2193 -0.2685
  213MOL   F11225976   7.293   6.618   3.190  0.3012  0.7006 -0.1121
  213MOL   C11325977   7.407   6.784   3.080 -0.7881  0.6637  0.2761
  213MOL   H11425978   7.375   6.846   3.163 -0.1514 -1.4337  2.1145
  213MOL   H11525979   7.328   6.788   3.004 -0.1142  2.5418 -0.3330
  213MOL   C11625980   7.534   6.835   3.008 -0.6595  0.5697 -0.4049
  213MOL   F11725981   7.635   6.855   3.094  0.1165  0.1852 -0.3182
  213MOL   F11825982   7.582   6.756   2.911 -0.0325  0.0734  0.3082
  213MOL   C11925983   7.511   6.973   2.954 -0.5491 -0.1618  0.6799
  213MOL   H12025984   7.463   7.035   3.030  1.4122  2.1813  0.0579
  213MOL   H12125985   7.454   6.960   2.862 -0.2021 -0.4822  0.5111
  213MOL   H12225986   7.609   7.015   2.932  0.6768 -3.1064  0.2888
  214MOL     C125987   5.510   1.349   2.270 -0.7190 -0.1441  0.0210
  214MOL     F225988   5.477   1.365   2.146 -0.6481 -0.4999 -0.1533
  214MOL     F325989   5.397   1.329   2.338 -0.0565 -0.6131  0.0835
  214MOL     C425990   5.586   1.471   2.334 -0.6667 -0.0304  0.1818
  214MOL     H525991   5.533   1.565   2.347 -3.8603 -1.7311  0.0085
  214MOL     H625992   5.674   1.491   2.273 -0.8227  0.5445  0.1426
  214MOL     H725993   5.574   1.261   2.274  2.0460  1.7764 -0.8308
  214MOL     C825994   5.646   1.432   2.468  0.2346 -0.7681 -0.5767
  214MOL     F925995   5.544   1.407   2.545 -0.1129  0.1645  0.2706
  214MOL    F1025996   5.722   1.321   2.448  0.1664 -0.4762 -0.1345
  214MOL    C1125997   5.740   1.540   2.541  0.3061  0.0008 -0.2097
  214MOL    H1225998   5.699   1.641   2.529 -1.1006 -0.1935  2.7050
  214MOL    H1325999   5.819   1.548   2.466  0.3900 -0.9425 -0.2264
  214MOL    C1426000   5.782   1.515   2.686  0.3459  1.0397 -0.1186
  214MOL    F1526001   5.679   1.549   2.769 -0.4086  0.5804  0.1774
  214MOL    F1626002   5.805   1.381   2.697  0.2191 -0.2293 -1.4844
  214MOL    C1726003   5.903   1.588   2.733 -0.8657  0.0096 -0.0098
  214MOL    H1826004   5.863   1.687   2.757 -2.6866 -0.5677 -0.6142
  214MOL    H1926005   5.977   1.609   2.656 -2.4227  2.3177 -0.9451
  214MOL    C2026006   5.979   1.539   2.857  0.9213 -0.5429 -0.4869
  214MOL    F2126007   6.054   1.428   2.835 -0.0742  0.1525  0.0081
  214MOL    F2226008   6.064   1.640   2.878 -0.2022 -0.0228  0.1757
  214MOL    C2326009   5.891   1.512   2.977 -0.1251  0.3220  0.0359
  214MOL    H2426010   5.801   1.460   2.946  1.0145 -1.2357 -0.6792
  214MOL    H2526011   5.868   1.614   3.009 -0.7057  0.2107 -0.0151
  214MOL    C2626012   5.944   1.434   3.105  0.2795 -0.3110 -0.6220
  214MOL    F2726013   6.065   1.488   3.126 -0.7242  0.2203 -0.1372
  214MOL    F2826014   5.865   1.460   3.208  0.4577 -0.0535 -0.4864
  214MOL    C2926015   5.961   1.281   3.081  0.0335 -0.4797 -0.5338
  214MOL    H3026016   6.042   1.265   3.010 -0.4819 -2.8577 -0.6261
  214MOL    H3126017   5.871   1.238   3.039 -0.2896 -0.4128  0.0864
  214MOL    C3226018   6.018   1.201   3.203  0.3590  0.3571  0.4223
  214MOL    F3326019   6.133   1.244   3.239  0.2271 -0.0661 -0.3972
  214MOL    F3426020   5.938   1.210   3.312  0.4414  0.2753  0.4634
  214MOL    C3526021   6.036   1.048   3.161 -0.5469 -0.5154  0.2452
  214MOL    H3626022   6.106   1.038   3.078  0.1444 -0.2637  0.7868
  214MOL    H3726023   5.945   1.011   3.116 -0.0429 -1.4109 -0.0408
  214MOL    C3826024   6.087   0.954   3.275  0.5738 -0.0795  0.1897
  214MOL    F3926025   5.995   0.957   3.374  0.1855  0.3123  0.7941
  214MOL    F4026026   6.081   0.830   3.222  0.1944 -0.2690 -0.6621
  214MOL    C4126027   6.235   0.978   3.318  0.3641 -0.3012  0.1880
  214MOL    H4226028   6.264   1.076   3.355  0.8325 -0.1979 -0.4340
  214MOL    H4326029   6.301   0.962   3.233  0.3793  0.8193 -0.0150
  214MOL    C4426030   6.285   0.883   3.435 -0.3173 -0.5363 -0.3576
  214MOL    F4526031   6.279   0.752   3.399  0.1792  0.1069  0.1019
  214MOL    F4626032   6.410   0.926   3.453  0.4484  0.6313 -0.2238
  214MOL    C4726033   6.215   0.913   3.565 -0.2249 -0.0062 -0.3823
  214MOL    H4826034   6.114   0.873   3.570  0.1789 -1.1866 -1.6189
  214MOL    H4926035   6.201   1.018   3.592 -0.0556 -0.1567  0.2956
  214MOL    C5026036   6.277   0.853   3.696 -0.6225 -0.2341 -0.1842
  214MOL    F5126037   6.400   0.908   3.695  0.7158  0.1988 -0.2630
  214MOL    F5226038   6.208   0.889   3.796  0.1467  0.1446 -0.1334
  214MOL    C5326039   6.299   0.701   3.705 -0.0594 -0.6313  0.1364
  214MOL    H5426040   6.351   0.667   3.616 -0.2813 -0.2913 -0.1265
  214MOL    H5526041   6.198   0.659   3.699  0.4133 -2.1543  2.3024
  214MOL    C5626042   6.368   0.645   3.830  0.6327 -1.0963  0.5131
  214MOL    F5726043   6.476   0.714   3.840 -0.5512  0.0289  0.1153
  214MOL    F5826044   6.296   0.686   3.939  0.6941  0.1021 -0.3387
  214MOL    C5926045   6.398   0.497   3.834  0.2506 -0.4226 -0.4558
  214MOL    H6026046   6.469   0.475   3.755  2.4248  1.1751  0.9900
  214MOL    H6126047   6.315   0.433   3.803 -0.6454  0.2783  0.4514
  214MOL    C6226048   6.468   0.441   3.958  0.0726 -0.3009  0.1355
  214MOL    F6326049   6.585   0.498   3.974 -0.1475 -0.4345  0.6782
  214MOL    F6426050   6.402   0.479   4.064 -0.4585  0.1855  0.4859
  214MOL    C6526051   6.485   0.294   3.970 -0.1300  0.3683 -0.4433
  214MOL    H6626052   6.541   0.271   4.060 -0.7906  0.3323 -0.0386
  214MOL    H6726053   6.554   0.266   3.890 -1.0374 -0.9965 -0.7676
  214MOL    C6826054   6.355   0.205   3.961  0.3116  0.1335  0.7934
  214MOL    F6926055   6.310   0.226   3.841  0.0157  0.0187 -0.3164
  214MOL    F7026056   6.401   0.084   3.965 -0.2986  0.1326  0.4936
  214MOL    C7126057   6.249   0.221   4.072  0.4416 -0.6023 -0.7523
  214MOL    H7226058   6.194   0.316   4.072  2.6170  0.6941  0.4439
  214MOL    H7326059   6.296   0.223   4.170 -0.0227 -0.0702 -0.5358
  214MOL    C7426060   6.139   0.115   4.078 -0.0883  0.2043  0.2645
  214MOL    F7526061   6.180   8.334   4.078  0.0937 -0.5746 -0.0445
  214MOL    F7626062   6.065   0.141   4.189 -0.7623 -0.2757 -0.0471
  214MOL    C7726063   6.049   0.136   3.953 -0.0658  0.7966  0.1744
  214MOL    H7826064   6.110   0.114   3.865 -3.2099 -1.8013 -1.4445
  214MOL    H7926065   6.016   0.238   3.931 -0.4781  0.8946  1.2207
  214MOL    C8026066   5.919   0.044   3.949  0.2274  0.6372  0.5558
  214MOL    F8126067   5.855   0.062   4.069  0.5269  0.2869  0.0598
  214MOL    F8226068   5.842   0.085   3.854  0.2507  0.6269  0.4356
  214MOL    C8326069   5.947   8.243   3.928  0.2392 -0.6563  0.1156
  214MOL    H8426070   6.004   8.214   4.016  0.1712 -0.8681  0.0915
  214MOL    H8526071   6.010   8.225   3.841  0.6149 -3.9972  1.0025
  214MOL    C8626072   5.818   8.160   3.915 -0.2182 -0.3447 -0.1920
  214MOL    F8726073   5.735   8.176   4.013  0.1589  0.0938 -0.1022
  214MOL    F8826074   5.754   8.203   3.810 -0.6339 -0.0102  0.1376
  214MOL    C8926075   5.830   8.007   3.899 -0.0303 -0.1582 -0.4784
  214MOL    H9026076   5.732   7.959   3.895 -1.0284  1.9544 -2.8012
  214MOL    H9126077   5.885   7.968   3.984  0.0205 -1.9775 -1.3121
  214MOL    C9226078   5.915   7.959   3.775  0.9588  0.3612  0.8786
  214MOL    F9326079   5.867   8.006   3.662 -0.1352  0.3091  0.3479
  214MOL    F9426080   6.043   8.001   3.796 -0.0512 -0.0591 -0.7275
  214MOL    C9526081   5.927   7.803   3.757  0.2760 -0.2200 -0.9268
  214MOL    H9626082   5.832   7.751   3.771  0.6630 -0.2220  1.8902
  214MOL    H9726083   5.992   7.775   3.840 -0.2799  0.6818 -0.1872
  214MOL    C9826084   6.000   7.759   3.627 -0.0967 -0.0427 -0.7206
  214MOL    F9926085   6.106   7.830   3.597 -0.4428 -0.6226  0.9144
  214MOL   F10026086   6.043   7.634   3.647  0.7545 -0.3067 -0.1763
  214MOL   C10126087   5.897   7.754   3.518 -0.8383 -0.4931 -0.2149
  214MOL   H10226088   5.872   7.846   3.466 -1.3729 -1.1221 -1.1089
  214MOL   H10326089   5.803   7.726   3.564 -1.2564  1.1017 -0.0766
  214MOL   C10426090   5.935   7.648   3.409 -0.0179  0.0848 -0.3526
  214MOL   F10526091   5.931   7.525   3.447  0.4062  0.1917  0.9121
  214MOL   F10626092   5.839   7.652   3.316 -0.2547  0.3704  0.1773
  214MOL   C10726093   6.079   7.662   3.348 -0.0035  1.2217  0.4674
  214MOL   H10826094   6.106   7.574   3.290  1.0148  0.0706  2.6316
  214MOL   H10926095   6.158   7.670   3.422 -0.8392  0.2971  1.4692
  214MOL   C11026096   6.100   7.781   3.260 -0.0698  0.0300  0.2474
  214MOL   F11126097   6.033   7.773   3.150 -0.6072  0.2068  0.2630
  214MOL   F11226098   6.041   7.884   3.328  0.0286  0.6070 -0.4072
  214MOL   C11326099   6.249   7.821   3.225  0.1100 -0.6336 -0.1945
  214MOL   H11426100   6.297   7.858   3.315 -0.3817  0.5680 -0.4131
  214MOL   H11526101   6.246   7.903   3.153 -0.8052 -1.0770 -0.6743
  214MOL   C11626102   6.338   7.708   3.163  0.0364 -0.3296  0.1747
  214MOL   F11726103   6.471   7.745   3.149  0.5441  0.1219 -0.0296
  214MOL   F11826104   6.343   7.614   3.256 -0.0573 -0.3565  0.3626
  214MOL   C11926105   6.282   7.645   3.029  0.6002 -0.5783 -0.8734
  214MOL   H12026106   6.278   7.712   2.943  0.1580 -0.9548 -1.1538
  214MOL   H12126107   6.181   7.606   3.047  1.4974 -1.1644  3.5255
  214MOL   H12226108   6.345   7.560   3.001 -1.4146 -1.9742 -1.2988
  215MOL     C126109   7.216   0.220   0.725 -0.3186  0.2683 -0.5757
  215MOL     F226110   7.275   0.182   0.838 -0.2362 -0.5200  0.0058
  215MOL     F326111   7.234   0.350   0.711 -0.4919 -0.0358 -0.3947
  215MOL     C426112   7.070   0.192   0.752 -0.1605  0.0837 -0.4664
  215MOL     H526113   7.015   0.238   0.670 -0.0552 -0.2262 -0.7104
  215MOL     H626114   7.037   0.242   0.844  0.3557  1.6124 -1.0962
  215MOL     H726115   7.260   0.162   0.644  2.9157  1.6081  0.1146
  215MOL     C826116   7.038   0.040   0.766  0.1072 -0.3330  1.0808
  215MOL     F926117   7.057   8.345   0.638  0.2772  0.3414  0.2154
  215MOL    F1026118   7.131   8.335   0.849 -0.6526  0.2723  0.3356
  215MOL    C1126119   6.897   0.030   0.823 -0.2808  0.5502  0.1552
  215MOL    H1226120   6.833   0.082   0.752  1.7892  1.5877 -0.9591
  215MOL    H1326121   6.881   0.071   0.923 -1.6325  1.1016 -0.2652
  215MOL    C1426122   6.836   8.240   0.835 -0.2645  0.5680  0.7968
  215MOL    F1526123   6.885   8.168   0.930 -0.0692 -0.3801 -0.5152
  215MOL    F1626124   6.704   8.255   0.862  0.2060 -0.1028 -0.2734
  215MOL    C1726125   6.836   8.160   0.698 -0.6486 -0.5773  0.8495
  215MOL    H1826126   6.942   8.146   0.677 -0.9020 -1.1628 -0.0583
  215MOL    H1926127   6.801   8.227   0.620  1.0687  1.4040  1.7047
  215MOL    C2026128   6.757   8.031   0.682  0.2898  0.3752 -0.5606
  215MOL    F2126129   6.635   8.065   0.727  0.2509  0.5116 -0.3605
  215MOL    F2226130   6.748   7.977   0.562  0.4198 -0.0033  0.4099
  215MOL    C2326131   6.810   7.919   0.771  0.1536 -0.1480 -0.5172
  215MOL    H2426132   6.746   7.831   0.755 -2.4413  1.3814  1.0127
  215MOL    H2526133   6.810   7.939   0.878  0.1111  1.0396 -0.7360
  215MOL    C2626134   6.946   7.855   0.735 -0.2205 -0.6368 -0.2394
  215MOL    F2726135   6.942   7.852   0.606 -0.4338 -0.5533  0.6469
  215MOL    F2826136   7.029   7.942   0.783  0.1373  0.1537  0.0801
  215MOL    C2926137   6.972   7.712   0.790 -0.2772  1.0819  0.2782
  215MOL    H3026138   6.887   7.656   0.752 -0.2492  0.8628  0.5365
  215MOL    H3126139   6.967   7.703   0.898  0.4859  1.6837  0.3681
  215MOL    C3226140   7.104   7.642   0.748  0.1326 -0.2060  0.1066
  215MOL    F3326141   7.202   7.722   0.795  0.2885  0.1433  0.8077
  215MOL    F3426142   7.117   7.527   0.823 -0.8465  0.4764 -0.3216
  215MOL    C3526143   7.138   7.614   0.605  0.6345  0.2725 -0.3711
  215MOL    H3626144   7.164   7.708   0.556  2.9733 -0.8669 -1.3473
  215MOL    H3726145   7.044   7.581   0.562  0.1146  1.6589 -0.3224
  215MOL    C3826146   7.248   7.511   0.573 -0.5322 -0.3652 -0.4105
  215MOL    F3926147   7.350   7.526   0.655 -0.3991  0.4195 -0.1970
  215MOL    F4026148   7.187   7.394   0.589  0.5230 -0.1779 -0.1398
  215MOL    C4126149   7.292   7.518   0.429  0.8819 -0.4973  0.0504
  215MOL    H4226150   7.294   7.620   0.392 -2.2153 -0.8970 -1.3242
  215MOL    H4326151   7.213   7.474   0.368  0.6334  0.3238 -0.2170
  215MOL    C4426152   7.418   7.435   0.391  0.1881 -0.2960  0.6259
  215MOL    F4526153   7.529   7.463   0.466  0.2733  0.2840 -0.1237
  215MOL    F4626154   7.395   7.309   0.410 -0.2174 -0.3677  0.5450
  215MOL    C4726155   7.471   7.461   0.250 -0.2440 -0.1182 -0.5075
  215MOL    H4826156   7.564   7.404   0.237 -0.1934 -0.6803  2.0687
  215MOL    H4926157   7.519   7.558   0.260 -3.6830  1.4560  1.2526
  215MOL    C5026158   7.381   7.441   0.130  0.0214  0.5371 -0.4186
  215MOL    F5126159   7.329   7.318   0.154 -0.2674  0.3569 -0.0822
  215MOL    F5226160   7.290   7.536   0.140  0.5500  0.4741  0.7450
  215MOL    C5326161   7.448   7.432   8.340 -0.3005 -0.6454 -0.4988
  215MOL    H5426162   7.367   7.412   8.269 -1.1977 -2.1556  0.9173
  215MOL    H5526163   7.517   7.349   8.328  0.5787  0.0007  0.0672
  215MOL    C5626164   7.521   7.566   8.300 -0.2538 -0.2334 -0.3420
  215MOL    F5726165   7.441   7.667   8.332 -0.0645  0.0109 -0.4612
  215MOL    F5826166   7.637   7.588   0.016  0.5906  0.0462 -0.0685
  215MOL    C5926167   7.553   7.579   8.150 -0.4130  0.7039  0.6750
  215MOL    H6026168   7.581   7.678   8.116  1.4750  0.7934  2.4202
  215MOL    H6126169   7.470   7.542   8.090  1.8354 -1.0638 -1.4414
  215MOL    C6226170   7.676   7.490   8.108 -0.1866 -0.1542  0.5579
  215MOL    F6326171   7.785   7.550   8.141 -0.0439 -0.6031 -0.4674
  215MOL    F6426172   7.678   7.374   8.175  0.4081  0.2287 -0.3827
  215MOL    C6526173   7.675   7.452   7.955 -0.0961  0.1609 -0.2520
  215MOL    H6626174   7.579   7.404   7.937 -1.9123  3.3965  0.4416
  215MOL    H6726175   7.756   7.380   7.945  0.0015  0.4430 -1.5757
  215MOL    C6826176   7.681   7.569   7.853  0.2590  0.4083  0.2728
  215MOL    F6926177   7.709   7.509   7.747  0.7180 -0.2611 -0.4088
  215MOL    F7026178   7.554   7.611   7.841 -0.0062  0.0019  0.0914
  215MOL    C7126179   7.786   7.681   7.883 -0.2853 -0.5651  1.1310
  215MOL    H7226180   7.884   7.634   7.901  0.0128 -0.0781  0.7715
  215MOL    H7326181   7.765   7.719   7.983 -0.6647 -0.4490  1.0059
  215MOL    C7426182   7.781   7.796   7.776  0.7191 -0.3752  0.5654
  215MOL    F7526183   7.791   7.742   7.656 -0.1569  0.1870  0.4083
  215MOL    F7626184   7.659   7.844   7.792 -0.1847 -0.4667 -0.3418
  215MOL    C7726185   7.891   7.896   7.808 -0.0229  0.0145  0.7136
  215MOL    H7826186   7.989   7.847   7.805 -0.8925 -1.8806  2.2748
  215MOL    H7926187   7.878   7.917   7.914 -0.9358  1.1475  0.3820
  215MOL    C8026188   7.886   8.031   7.733  0.4444 -0.5655 -0.2358
  215MOL    F8126189   7.904   8.003   7.609 -0.2424 -0.2663  0.4690
  215MOL    F8226190   7.768   8.088   7.745  0.3436  0.5090 -0.3557
  215MOL    C8326191   7.988   8.142   7.778  0.9320  0.2620  0.5704
  215MOL    H8426192   7.993   8.229   7.713 -1.6030  1.3565  1.7552
  215MOL    H8526193   8.088   8.099   7.771 -0.0762 -2.2960  1.3821
  215MOL    C8626194   7.976   8.198   7.922 -0.1503  0.3805 -0.3400
  215MOL    F8726195   7.852   8.255   7.938  0.2464 -0.4930  0.1562
  215MOL    F8826196   7.977   8.102   8.011  0.1226 -0.1450 -0.3026
  215MOL    C8926197   8.068   8.316   7.953 -0.0077  0.0517 -0.1270
  215MOL    H9026198   8.051   8.328   8.060  0.1028 -0.6663 -0.0298
  215MOL    H9126199   8.042   0.058   7.900 -0.1923 -0.7225 -1.3861
  215MOL    C9226200   8.226   8.286   7.942  0.5730 -0.5216 -0.6881
  215MOL    F9326201   8.241   8.163   7.988 -0.4794  0.5577  0.0033
  215MOL    F9426202   8.263   8.293   7.812 -0.1563  0.0226 -0.0683
  215MOL    C9526203   8.322   0.036   8.019  0.2815  0.4477 -0.1344
  215MOL    H9626204   8.273   0.057   8.114 -2.7380  0.4088 -1.6061
  215MOL    H9726205   8.304   0.136   7.979  0.1846  1.0659  1.4197
  215MOL    C9826206   0.120   8.346   8.026 -0.3048  0.8537 -0.0670
  215MOL    F9926207   0.177   0.076   8.111  0.1816  0.3556  0.0162
  215MOL   F10026208   0.130   8.217   8.076  0.5059  0.2547  0.2903
  215MOL   C10126209   0.197   0.000   7.894  1.0544  0.4423 -0.6379
  215MOL   H10226210   0.158   0.085   7.838 -0.6394 -0.4826 -0.9121
  215MOL   H10326211   0.158   8.266   7.837  0.6742  0.0543  0.1788
  215MOL   C10426212   0.346   0.003   7.898 -0.0783  0.1683  0.2034
  215MOL   F10526213   0.376   0.108   7.977  0.3895  0.0503  0.2218
  215MOL   F10626214   0.401   8.250   7.957 -0.3083  0.1967 -0.3339
  215MOL   C10726215   0.409   0.010   7.759 -0.1278 -0.0409  0.2608
  215MOL   H10826216   0.352   0.086   7.705 -0.4769 -1.4829 -1.4356
  215MOL   H10926217   0.397   8.269   7.700 -0.9472 -0.4787  1.0900
  215MOL   C11026218   0.553   0.053   7.749 -0.1075 -0.0541  0.2563
  215MOL   F11126219   0.566   0.062   7.615  0.0310 -0.0975 -0.2379
  215MOL   F11226220   0.559   0.169   7.815 -0.9445 -0.3201 -0.1128
  215MOL   C11326221   0.653   8.296   7.794 -0.2022  0.5501 -0.1349
  215MOL   H11426222   0.634   8.211   7.728 -1.6743  1.5234 -0.9900
  215MOL   H11526223   0.636   8.268   7.898  0.3004 -1.2284 -0.5197
  215MOL   C11626224   0.804   8.335   7.777  0.1422 -0.2962 -0.3955
  215MOL   F11726225   0.808   0.107   7.823 -0.1107 -0.3289 -0.0678
  215MOL   F11826226   0.873   8.254   7.856  0.1556  0.1809 -0.4653
  215MOL   C11926227   0.860   8.323   7.633 -0.2792 -0.2097  0.4541
  215MOL   H12026228   0.966   8.349   7.623 -0.2001 -0.0038  1.7345
  215MOL   H12126229   0.800   0.018   7.554  2.5108 -1.0951 -2.3017
  215MOL   H12226230   0.870   8.219   7.601 -0.9506 -0.2004  0.2159
  216MOL     C126231   6.185   5.938   0.553 -0.1458  0.3805  0.1514
  216MOL     F226232   6.183   5.838   0.467 -0.0570  0.4412 -0.1677
  216MOL     F326233   6.299   6.011   0.535  0.1892 -0.1532  0.4043
  216MOL     C426234   6.171   5.896   0.701  0.3207 -0.0284  0.1339
  216MOL     H526235   6.174   5.986   0.763  1.7619  1.0178 -1.3916
  216MOL     H626236   6.270   5.858   0.727  0.7294  0.0433 -1.2865
  216MOL     H726237   6.098   6.003   0.542  0.4332  1.0245 -0.6887
  216MOL     C826238   6.068   5.798   0.731  0.1094  0.8953 -0.3783
  216MOL     F926239   5.947   5.854   0.714  0.1136 -0.1064 -0.1329
  216MOL    F1026240   6.076   5.684   0.658 -0.3243  0.2417 -0.2252
  216MOL    C1126241   6.092   5.765   0.881  0.7443  0.4504 -0.3933
  216MOL    H1226242   6.074   5.842   0.956 -0.9887 -0.6059  0.3020
  216MOL    H1326243   6.197   5.739   0.893 -0.1723 -2.2964  2.4286
  216MOL    C1426244   6.016   5.635   0.927 -0.2241  0.2927 -0.4977
  216MOL    F1526245   6.059   5.525   0.866  0.8336 -0.1666  0.2217
  216MOL    F1626246   6.032   5.627   1.059 -0.4094  0.2877 -0.3516
  216MOL    C1726247   5.858   5.644   0.907  0.5189 -0.3630 -0.2328
  216MOL    H1826248   5.833   5.660   0.802 -0.7774 -0.5529  0.0445
  216MOL    H1926249   5.830   5.733   0.964 -0.1275  0.7051 -2.1743
  216MOL    C2026250   5.778   5.522   0.961  0.4165  0.8066  0.2276
  216MOL    F2126251   5.815   5.411   0.905 -0.0295  0.3636 -0.1083
  216MOL    F2226252   5.782   5.510   1.091 -0.5217  0.1363  0.0879
  216MOL    C2326253   5.630   5.545   0.932  0.1032 -0.4107 -0.0291
  216MOL    H2426254   5.622   5.557   0.824  0.3330  1.5228  0.1542
  216MOL    H2526255   5.607   5.632   0.993  3.0158  0.1887  0.3043
  216MOL    C2626256   5.538   5.426   0.959 -0.0564  0.6037  0.1748
  216MOL    F2726257   5.545   5.396   1.090  1.0115 -0.4334  0.1460
  216MOL    F2826258   5.416   5.470   0.929  0.3680  0.2256  0.0042
  216MOL    C2926259   5.571   5.298   0.884  0.2004 -0.0497 -0.1985
  216MOL    H3026260   5.647   5.242   0.938 -0.4679 -1.6325 -0.8830
  216MOL    H3126261   5.618   5.319   0.787 -2.8120 -0.0773 -1.7251
  216MOL    C3226262   5.451   5.203   0.858 -0.2676 -0.3884  0.6122
  216MOL    F3326263   5.391   5.162   0.972  0.0606  0.1850 -0.5591
  216MOL    F3426264   5.361   5.268   0.776  0.2767  0.5717 -0.7680
  216MOL    C3526265   5.494   5.077   0.792  0.7478 -0.3082 -0.0593
  216MOL    H3626266   5.575   5.035   0.850  0.8722 -1.4610 -1.0478
  216MOL    H3726267   5.536   5.096   0.693  0.6678 -3.9353 -0.8317
  216MOL    C3826268   5.381   4.971   0.765  0.5155  0.2312 -0.8740
  216MOL    F3926269   5.337   4.935   0.888  0.6036 -0.1142 -0.4771
  216MOL    F4026270   5.286   5.036   0.706  0.5628 -0.1997  0.0654
  216MOL    C4126271   5.420   4.848   0.682  0.0323  0.4546  1.0601
  216MOL    H4226272   5.439   4.877   0.578 -1.9522 -1.0547  0.2379
  216MOL    H4326273   5.336   4.779   0.680 -1.5162  2.2820 -1.2151
  216MOL    C4426274   5.537   4.767   0.740  0.3551  0.2818 -0.6480
  216MOL    F4526275   5.547   4.662   0.665 -0.1664 -0.5066 -0.0939
  216MOL    F4626276   5.639   4.852   0.735 -0.4858 -0.2988 -0.0807
  216MOL    C4726277   5.519   4.717   0.894 -0.4258  0.0020  0.0677
  216MOL    H4826278   5.418   4.679   0.906 -0.3424  0.5880  2.9308
  216MOL    H4926279   5.525   4.801   0.963 -2.8937  0.3452 -0.0842
  216MOL    C5026280   5.631   4.622   0.935  0.0418  0.7866  0.8401
  216MOL    F5126281   5.621   4.504   0.874  0.0876  0.1141  0.1800
  216MOL    F5226282   5.751   4.675   0.901 -0.0106  0.5065  0.0138
  216MOL    C5326283   5.617   4.603   1.087 -0.6661  0.0724 -0.6655
  216MOL    H5426284   5.522   4.550   1.098 -0.1682 -0.4001  1.5339
  216MOL    H5526285   5.613   4.698   1.141 -1.5233 -0.1358 -0.3458
  216MOL    C5626286   5.714   4.519   1.160  0.3399  0.1539  0.0686
  216MOL    F5726287   5.673   4.515   1.285 -0.4875 -0.1807  0.5903
  216MOL    F5826288   5.710   4.392   1.108  0.2639 -0.0422  0.1861
  216MOL    C5926289   5.860   4.567   1.145  0.2734 -0.8838  0.0935
  216MOL    H6026290   5.861   4.676   1.143 -0.3113 -0.8621  0.7032
  216MOL    H6126291   5.878   4.542   1.040 -3.1221  0.4548 -0.8764
  216MOL    C6226292   5.971   4.507   1.238 -0.6510  0.2090  0.0265
  216MOL    F6326293   5.937   4.537   1.364 -0.1347  0.0416  0.4511
  216MOL    F6426294   5.984   4.368   1.235  0.2314  0.0861  0.3434
  216MOL    C6526295   6.109   4.558   1.211  1.0373  0.4092 -0.5857
  216MOL    H6626296   6.176   4.514   1.284 -2.1060 -1.8628  1.0594
  216MOL    H6726297   6.116   4.667   1.220 -0.0413  0.6459 -2.3500
  216MOL    C6826298   6.187   4.522   1.086 -0.4343 -0.2623 -0.2144
  216MOL    F6926299   6.118   4.560   0.980 -0.6644 -0.5130 -0.0302
  216MOL    F7026300   6.298   4.592   1.096 -0.3435  0.3565  0.1150
  216MOL    C7126301   6.231   4.376   1.076 -0.3246 -0.0208 -0.5583
  216MOL    H7226302   6.144   4.319   1.042 -0.3723  0.7390 -1.7086
  216MOL    H7326303   6.250   4.336   1.176 -1.1234  1.2382  0.1147
  216MOL    C7426304   6.338   4.334   0.978  0.1161  0.4056 -0.4321
  216MOL    F7526305   6.304   4.372   0.857  0.3887  0.1315 -0.0636
  216MOL    F7626306   6.460   4.383   1.011 -0.4092 -0.1420  0.7129
  216MOL    C7726307   6.355   4.177   0.979  0.5369  0.1985  0.8751
  216MOL    H7826308   6.263   4.135   0.939 -0.4734  1.8540  1.4328
  216MOL    H7926309   6.365   4.146   1.083 -1.8051  0.5307  1.2303
  216MOL    C8026310   6.477   4.119   0.901  0.3358 -0.2920  0.3166
  216MOL    F8126311   6.466   4.151   0.771 -0.0774 -0.6176  0.0900
  216MOL    F8226312   6.591   4.174   0.948  0.3095  0.1458  0.4994
  216MOL    C8326313   6.486   3.966   0.920 -0.5764 -0.1854  0.0254
  216MOL    H8426314   6.389   3.922   0.896 -1.4075  2.1479 -0.9730
  216MOL    H8526315   6.501   3.956   1.027  2.7552  0.6151 -0.3149
  216MOL    C8626316   6.601   3.905   0.834 -0.2632 -0.0405  0.8830
  216MOL    F8726317   6.570   3.925   0.704  0.0857 -0.8163 -0.0702
  216MOL    F8826318   6.720   3.962   0.865 -1.2200  0.0077 -0.1338
  216MOL    C8926319   6.609   3.755   0.863  0.9212  0.2668 -0.2742
  216MOL    H9026320   6.511   3.713   0.843  0.5977  1.2846 -0.8766
  216MOL    H9126321   6.628   3.743   0.970 -0.2774 -2.6246 -0.3673
  216MOL    C9226322   6.712   3.677   0.775  0.3352  0.0977 -0.3804
  216MOL    F9326323   6.704   3.700   0.644 -0.0229 -0.2629 -0.3930
  216MOL    F9426324   6.830   3.723   0.815 -0.0705  0.2721 -0.1660
  216MOL    C9526325   6.704   3.523   0.794  0.7300 -0.6615  0.4251
  216MOL    H9626326   6.600   3.496   0.775  1.1859 -2.2623  0.1430
  216MOL    H9726327   6.702   3.505   0.902 -0.0301 -0.4977  0.4457
  216MOL    C9826328   6.807   3.434   0.714 -0.4922 -0.7940 -0.4042
  216MOL    F9926329   6.759   3.436   0.590  0.2888 -0.0845 -0.2628
  216MOL   F10026330   6.925   3.499   0.709  0.1449  0.1560 -0.1153
  216MOL   C10126331   6.829   3.288   0.764  0.0596  0.3023  0.0295
  216MOL   H10226332   6.911   3.239   0.712  0.1674  0.7238 -0.1956
  216MOL   H10326333   6.743   3.224   0.745  1.0704 -1.7835  2.1212
  216MOL   C10426334   6.849   3.267   0.922 -1.4313 -0.0475  0.4269
  216MOL   F10526335   6.915   3.364   0.981 -0.3069 -0.2895 -0.3752
  216MOL   F10626336   6.723   3.268   0.979 -0.7150 -0.3746 -0.2703
  216MOL   C10726337   6.908   3.142   0.972  0.2038  0.5676  0.3543
  216MOL   H10826338   6.900   3.148   1.081 -0.5939  1.7356  0.2396
  216MOL   H10926339   7.008   3.133   0.930  1.6223  3.4973  2.9130
  216MOL   C11026340   6.829   3.015   0.927  0.1825  0.9167 -0.2804
  216MOL   F11126341   6.703   3.020   0.965  0.1467  0.0218  0.4745
  216MOL   F11226342   6.837   2.997   0.797 -0.0388  0.1547  0.0130
  216MOL   C11326343   6.878   2.891   0.999  0.5299  0.4396 -0.6060
  216MOL   H11426344   6.864   2.919   1.103 -2.7871  3.1524 -1.6924
  216MOL   H11526345   6.986   2.885   0.985  0.3480 -0.0936 -1.8832
  216MOL   C11626346   6.806   2.752   0.978  0.3893 -0.4111  0.6267
  216MOL   F11726347   6.847   2.665   1.075 -0.1077  0.1886 -0.4541
  216MOL   F11826348   6.672   2.765   0.988 -0.8547  0.0048  0.0839
  216MOL   C11926349   6.846   2.702   0.841 -0.2322 -0.2953 -0.1606
  216MOL   H12026350   6.951   2.680   0.823  0.4731  1.3304  1.7498
  216MOL   H12126351   6.816   2.756   0.751 -0.7209 -0.8463 -0.3292
  216MOL   H12226352   6.815   2.598   0.843  0.1716 -0.4287 -0.7817
  217MOL     C126353   3.622   6.028   6.697  0.6085 -0.2019  0.2497
  217MOL     F226354   3.521   6.035   6.788 -0.0102 -0.1473 -0.2011
  217MOL     F326355   3.738   6.018   6.776 -0.0251  0.4930 -0.6024
  217MOL     C426356   3.620   6.152   6.603  0.0152 -0.0202 -0.0009
  217MOL     H526357   3.659   6.238   6.656  0.2498 -0.0142 -0.1815
  217MOL     H626358   3.517   6.185   6.588 -0.4797 -2.1329 -1.4886
  217MOL     H726359   3.625   5.937   6.637 -0.4574 -0.0517 -0.0293
  217MOL     C826360   3.683   6.140   6.464 -0.2065 -0.6068  0.3543
  217MOL     F926361   3.798   6.082   6.455  0.1966  0.3076  0.6545
  217MOL    F1026362   3.604   6.071   6.383  0.1788 -0.2638 -0.2012
  217MOL    C1126363   3.696   6.279   6.403  0.2155 -0.4562  0.0930
  217MOL    H1226364   3.738   6.346   6.479 -1.2955 -0.4911  0.9722
  217MOL    H1326365   3.594   6.311   6.385  1.1662  1.0997 -2.8793
  217MOL    C1426366   3.774   6.280   6.274 -0.1165  0.0464 -0.5752
  217MOL    F1526367   3.900   6.249   6.303  0.2954 -0.1351  0.2502
  217MOL    F1626368   3.731   6.180   6.198  0.6660 -0.3859 -0.1773
  217MOL    C1726369   3.777   6.419   6.203 -0.1555  0.2413  0.5927
  217MOL    H1826370   3.845   6.480   6.264 -1.2594  0.1825  1.9093
  217MOL    H1926371   3.681   6.470   6.210 -1.2667 -1.2047 -3.1102
  217MOL    C2026372   3.823   6.410   6.056  0.7661 -0.1386 -0.6514
  217MOL    F2126373   3.931   6.329   6.046  0.2841  0.1405  0.2017
  217MOL    F2226374   3.716   6.349   5.994  0.0759 -0.1098  0.8727
  217MOL    C2326375   3.860   6.547   5.993 -0.2008 -0.4654 -0.1478
  217MOL    H2426376   3.866   6.516   5.888  0.8214 -0.2900 -0.1500
  217MOL    H2526377   3.964   6.568   6.020 -0.2828  0.2211 -0.3598
  217MOL    C2626378   3.767   6.665   6.012 -0.3087  0.1831 -0.2905
  217MOL    F2726379   3.644   6.629   5.971 -0.2202 -0.8025 -0.2416
  217MOL    F2826380   3.763   6.689   6.151  0.4318  0.0165  0.8092
  217MOL    C2926381   3.803   6.794   5.940  0.2480  0.3589  0.1460
  217MOL    H3026382   3.886   6.837   5.996  0.2001 -0.6730  1.0137
  217MOL    H3126383   3.717   6.861   5.944 -0.2540 -0.2415 -0.4600
  217MOL    C3226384   3.851   6.809   5.786 -0.9463 -0.2324 -0.1699
  217MOL    F3326385   3.967   6.746   5.788  0.1922 -0.5530 -0.2370
  217MOL    F3426386   3.761   6.743   5.718  0.2006  0.0651 -0.1682
  217MOL    C3526387   3.863   6.958   5.738  0.7529 -0.6618  0.2741
  217MOL    H3626388   3.930   7.008   5.808 -1.3734  1.1302  1.1097
  217MOL    H3726389   3.760   6.988   5.759  0.6947 -0.1998 -0.6211
  217MOL    C3826390   3.893   6.970   5.586  0.2366  0.3545  0.1380
  217MOL    F3926391   3.931   7.092   5.570 -0.4419  0.5139 -0.1549
  217MOL    F4026392   3.993   6.889   5.545 -0.6489  0.1865 -0.4505
  217MOL    C4126393   3.770   6.957   5.492  0.4081 -0.7414  0.1851
  217MOL    H4226394   3.695   7.035   5.512 -0.2428 -1.2872 -0.1061
  217MOL    H4326395   3.712   6.865   5.501 -2.3771  0.6191 -2.9527
  217MOL    C4426396   3.808   6.978   5.342  0.0833 -0.2828  0.2346
  217MOL    F4526397   3.695   7.001   5.286 -0.0568 -0.0083  0.1489
  217MOL    F4626398   3.890   7.079   5.330  0.1656  0.1272 -0.3533
  217MOL    C4726399   3.869   6.850   5.275 -0.0576 -0.7637 -0.1656
  217MOL    H4826400   3.813   6.769   5.319  3.0457 -2.0155  1.6482
  217MOL    H4926401   3.971   6.842   5.313 -0.7667  0.0506  1.9676
  217MOL    C5026402   3.858   6.850   5.119 -0.1409 -0.8186  0.5012
  217MOL    F5126403   3.907   6.736   5.072  0.1186 -0.0958 -0.2785
  217MOL    F5226404   3.731   6.857   5.083 -0.4881  0.5166 -0.4472
  217MOL    C5326405   3.940   6.968   5.058 -0.2007 -0.3698  0.9136
  217MOL    H5426406   3.910   7.066   5.096  1.8460 -0.3470  2.5568
  217MOL    H5526407   3.923   6.961   4.951  1.4147  0.6872  0.5850
  217MOL    C5626408   4.093   6.945   5.058 -0.0194 -0.9689 -0.9210
  217MOL    F5726409   4.136   6.930   5.183 -0.2431  0.1272  0.6375
  217MOL    F5826410   4.117   6.835   4.990 -0.0560 -0.8794 -0.0826
  217MOL    C5926411   4.176   7.060   5.006  0.3508 -0.2281 -1.1900
  217MOL    H6026412   4.166   7.142   5.076 -0.1578 -0.7660 -0.6267
  217MOL    H6126413   4.127   7.099   4.916 -0.4079  1.1652 -0.1842
  217MOL    C6226414   4.322   7.027   4.971 -0.3380 -0.0618  0.3835
  217MOL    F6326415   4.323   6.941   4.869  0.7643 -0.4578  0.2699
  217MOL    F6426416   4.373   7.137   4.917  0.0413  0.4376  0.5280
  217MOL    C6526417   4.423   6.971   5.079  0.1727 -0.2579 -0.0017
  217MOL    H6626418   4.506   6.921   5.029 -0.4334 -0.3479 -0.9262
  217MOL    H6726419   4.376   6.883   5.123  2.9070 -1.8394 -0.1039
  217MOL    C6826420   4.468   7.054   5.197  0.6197 -0.0590  0.6241
  217MOL    F6926421   4.357   7.101   5.258  0.1813  0.5086 -0.8369
  217MOL    F7026422   4.539   6.981   5.288 -0.1669 -0.1893 -0.0779
  217MOL    C7126423   4.564   7.175   5.157  0.1782 -0.3845 -0.0455
  217MOL    H7226424   4.545   7.226   5.063 -3.2252 -1.2916  0.0758
  217MOL    H7326425   4.665   7.134   5.153  0.8499  1.2936 -0.8527
  217MOL    C7426426   4.576   7.283   5.272  1.0200 -0.6638 -1.2085
  217MOL    F7526427   4.460   7.347   5.280  0.4700 -0.2290 -0.4024
  217MOL    F7626428   4.598   7.217   5.391  0.3442 -0.7456 -0.6310
  217MOL    C7726429   4.679   7.393   5.242  0.0177  0.2737  0.0329
  217MOL    H7826430   4.648   7.446   5.152  1.9709  0.5857 -0.4728
  217MOL    H7926431   4.776   7.352   5.215 -0.2830 -0.8985  0.7028
  217MOL    C8026432   4.710   7.482   5.355 -0.6411  0.1059 -1.0010
  217MOL    F8126433   4.599   7.531   5.400  0.2647  0.3236  0.0874
  217MOL    F8226434   4.767   7.413   5.447  0.1399 -0.2054 -0.0505
  217MOL    C8326435   4.802   7.612   5.327 -0.3344 -0.2991 -0.2989
  217MOL    H8426436   4.795   7.682   5.411 -1.8940 -1.0787  0.2459
  217MOL    H8526437   4.750   7.670   5.251 -0.3074  1.2533  0.8451
  217MOL    C8626438   4.948   7.605   5.278  0.4209  0.3824  0.5521
  217MOL    F8726439   4.952   7.550   5.159  0.4965  0.2637  0.4278
  217MOL    F8826440   4.987   7.731   5.259 -0.0325 -0.0148  0.0270
  217MOL    C8926441   5.039   7.522   5.378 -0.1255 -0.0476  0.0702
  217MOL    H9026442   5.010   7.417   5.380 -0.5629  0.0609 -0.6695
  217MOL    H9126443   5.026   7.555   5.481  2.0034  1.1292 -0.0037
  217MOL    C9226444   5.188   7.525   5.353  0.1906 -0.1548 -0.4962
  217MOL    F9326445   5.224   7.651   5.360  0.0463  0.0987  0.6304
  217MOL    F9426446   5.243   7.458   5.452 -0.4049  0.2513 -0.4993
  217MOL    C9526447   5.233   7.475   5.214  0.2495  0.8754  0.1550
  217MOL    H9626448   5.340   7.494   5.206  0.2220  0.3560 -1.7442
  217MOL    H9726449   5.187   7.525   5.128 -0.5590  2.0512  1.2588
  217MOL    C9826450   5.226   7.316   5.202  0.0856 -0.5923 -0.3217
  217MOL    F9926451   5.282   7.264   5.305  0.4218  0.8873  0.1641
  217MOL   F10026452   5.108   7.273   5.217  0.0296 -0.0705  0.4073
  217MOL   C10126453   5.295   7.251   5.079  0.3635  0.5463  0.1968
  217MOL   H10226454   5.325   7.149   5.104  0.6178  0.4638 -0.4363
  217MOL   H10326455   5.390   7.306   5.081  0.7620 -0.1882  2.5188
  217MOL   C10426456   5.224   7.269   4.939  0.1066  0.7713 -0.3624
  217MOL   F10526457   5.106   7.219   4.946 -0.3470  0.4913 -0.2721
  217MOL   F10626458   5.212   7.400   4.905  0.0466  0.0055 -0.2225
  217MOL   C10726459   5.303   7.190   4.823 -0.0961 -0.1289 -0.1197
  217MOL   H10826460   5.315   7.087   4.857  2.4060 -0.1473 -0.9673
  217MOL   H10926461   5.406   7.224   4.821  0.6976 -2.5015 -1.2956
  217MOL   C11026462   5.236   7.201   4.685 -1.0649  0.3887  1.0373
  217MOL   F11126463   5.112   7.162   4.678 -0.3182  0.2928 -0.1870
  217MOL   F11226464   5.243   7.323   4.633 -0.0161  0.4039  0.2846
  217MOL   C11326465   5.306   7.106   4.586 -0.3783 -0.1743  0.0994
  217MOL   H11426466   5.302   7.002   4.620 -0.4531 -0.4184 -0.6574
  217MOL   H11526467   5.411   7.135   4.584 -0.6030  0.8025  1.5888
  217MOL   C11626468   5.262   7.090   4.440 -0.0201 -0.7094 -0.1846
  217MOL   F11726469   5.133   7.060   4.446 -0.2952 -0.0181 -0.2468
  217MOL   F11826470   5.278   7.203   4.373 -0.1233  0.3357  0.4431
  217MOL   C11926471   5.315   6.963   4.359  0.1482 -0.5169 -0.1942
  217MOL   H12026472   5.283   6.870   4.405 -1.1161  0.1447  0.2994
  217MOL   H12126473   5.423   6.959   4.350  0.1032 -1.2259 -0.4490
  217MOL   H12226474   5.267   6.969   4.261 -1.3607  1.0751  0.6189
  218MOL     C126475   7.337   0.967   6.706 -0.9665  0.1716 -0.0992
  218MOL     F226476   7.325   0.949   6.581  0.1419  0.4114 -0.4318
  218MOL     F326477   7.215   0.965   6.753  0.2218  0.2234 -0.4937
  218MOL     C426478   7.411   1.102   6.729  0.2956 -0.1082  0.6980
  218MOL     H526479   7.340   1.170   6.681 -1.5018 -2.2221  0.2821
  218MOL     H626480   7.500   1.107   6.666 -1.1551  0.9896 -1.3214
  218MOL     H726481   7.393   0.882   6.746 -1.2625 -0.7510 -1.6301
  218MOL     C826482   7.445   1.131   6.877 -0.3114  0.6700 -0.0166
  218MOL     F926483   7.529   1.038   6.917  0.2390  0.3455 -0.3288
  218MOL    F1026484   7.528   1.240   6.887  0.4194  0.3501  0.1046
  218MOL    C1126485   7.333   1.151   6.980  0.4263 -0.8134 -0.5018
  218MOL    H1226486   7.373   1.173   7.079  1.4664  2.2701 -1.5686
  218MOL    H1326487   7.272   1.060   6.985  0.8297 -1.0392  0.3920
  218MOL    C1426488   7.237   1.276   6.958 -0.3725 -0.3726 -0.4415
  218MOL    F1526489   7.307   1.386   6.898 -0.0115  0.5249 -0.3702
  218MOL    F1626490   7.148   1.242   6.872 -0.3021  0.1025  0.2740
  218MOL    C1726491   7.164   1.318   7.089 -0.5306  0.1381  0.7509
  218MOL    H1826492   7.233   1.363   7.159  1.0565 -0.3136 -0.4963
  218MOL    H1926493   7.114   1.234   7.137  1.7042 -1.5440  0.2059
  218MOL    C2026494   7.046   1.413   7.072  0.1183 -0.5085 -0.3637
  218MOL    F2126495   6.952   1.354   6.994  0.1653 -0.5987  0.4724
  218MOL    F2226496   6.987   1.429   7.185  0.1941  0.0158  0.3617
  218MOL    C2326497   7.069   1.557   7.011 -0.0610 -0.0996  0.5098
  218MOL    H2426498   6.981   1.618   6.992 -0.6114 -1.5471 -1.8833
  218MOL    H2526499   7.108   1.532   6.912  0.1777  2.3204 -0.0329
  218MOL    C2626500   7.190   1.640   7.081 -0.3646  0.1456  0.7920
  218MOL    F2726501   7.174   1.659   7.215 -0.4886  0.2696  0.2143
  218MOL    F2826502   7.317   1.580   7.061 -0.8034 -0.4518 -0.3704
  218MOL    C2926503   7.203   1.778   7.024 -0.7990 -0.4131 -0.1733
  218MOL    H3026504   7.285   1.814   7.087 -0.4931 -0.7688 -0.3649
  218MOL    H3126505   7.120   1.833   7.068 -2.2533 -1.4762 -1.5332
  218MOL    C3226506   7.215   1.808   6.876  0.0270  0.1964  0.1722
  218MOL    F3326507   7.304   1.727   6.818 -0.3039  1.0542 -0.6002
  218MOL    F3426508   7.098   1.792   6.818  0.3219 -0.0288 -0.0654
  218MOL    C3526509   7.274   1.943   6.846 -0.5583  0.0694 -0.0856
  218MOL    H3626510   7.264   1.966   6.740  1.4766 -1.0148 -0.5401
  218MOL    H3726511   7.382   1.940   6.859 -0.0500  0.3452 -3.9060
  218MOL    C3826512   7.215   2.062   6.921  0.2461  0.4567 -0.3054
  218MOL    F3926513   7.084   2.053   6.901 -0.6284  0.2443  0.5355
  218MOL    F4026514   7.247   2.051   7.047  0.0878 -0.4364 -0.5169
  218MOL    C4126515   7.257   2.196   6.862  0.4825  0.3278  0.3887
  218MOL    H4226516   7.181   2.268   6.893  0.5099  0.5220  0.0066
  218MOL    H4326517   7.232   2.188   6.756 -1.7014 -0.0747  0.9108
  218MOL    C4426518   7.398   2.266   6.881  0.3532  0.2312  0.2615
  218MOL    F4526519   7.410   2.290   7.013 -0.4273 -0.5978 -0.1570
  218MOL    F4626520   7.493   2.175   6.843 -0.1057  0.3904  0.0774
  218MOL    C4726521   7.415   2.391   6.790 -0.0755  0.1107 -0.4847
  218MOL    H4826522   7.328   2.456   6.777  1.6229  1.9931 -2.8985
  218MOL    H4926523   7.435   2.358   6.689 -2.8393 -0.1429 -0.9986
  218MOL    C5026524   7.537   2.474   6.829 -0.7005  0.4014  0.0947
  218MOL    F5126525   7.526   2.529   6.948  0.8916 -0.2514  0.3801
  218MOL    F5226526   7.649   2.402   6.833 -0.0906  0.0004 -0.1952
  218MOL    C5326527   7.573   2.591   6.731  0.2786 -0.4266 -0.1030
  218MOL    H5426528   7.620   2.553   6.641  2.0890  1.0678  0.1748
  218MOL    H5526529   7.662   2.648   6.758 -0.8982  0.5103  1.9323
  218MOL    C5626530   7.455   2.683   6.689 -0.2399 -0.4902 -0.0446
  218MOL    F5726531   7.362   2.617   6.619  0.0183  0.3580  0.6524
  218MOL    F5826532   7.400   2.741   6.796  0.1260 -0.1274 -0.2453
  218MOL    C5926533   7.500   2.798   6.606 -0.4099 -1.3099  0.0852
  218MOL    H6026534   7.576   2.852   6.662  0.9872 -0.6102 -2.4094
  218MOL    H6126535   7.412   2.861   6.589 -0.2380 -0.7732  1.1195
  218MOL    C6226536   7.554   2.769   6.464  0.5572 -0.0783 -0.3034
  218MOL    F6326537   7.584   2.881   6.409  0.0931  0.3087 -0.5830
  218MOL    F6426538   7.661   2.696   6.468 -0.2679 -0.3764  0.1803
  218MOL    C6526539   7.446   2.703   6.372  0.3063  0.0204 -0.4094
  218MOL    H6626540   7.351   2.755   6.385  0.4882  0.9631 -2.5825
  218MOL    H6726541   7.430   2.599   6.398  0.2901  0.1933  0.2642
  218MOL    C6826542   7.462   2.719   6.221  0.2164  0.0818  0.3597
  218MOL    F6926543   7.430   2.842   6.180 -0.1845  0.2769 -0.0942
  218MOL    F7026544   7.590   2.698   6.189 -0.0337  0.6974  0.2235
  218MOL    C7126545   7.374   2.628   6.132  0.4201  0.8346  0.0094
  218MOL    H7226546   7.357   2.673   6.034  1.0316  1.1884  0.0629
  218MOL    H7326547   7.278   2.634   6.183 -0.3633 -2.2645 -0.9789
  218MOL    C7426548   7.413   2.484   6.131 -0.1045  0.6185  0.1572
  218MOL    F7526549   7.447   2.442   6.256  0.1638  0.2837  0.7801
  218MOL    F7626550   7.296   2.422   6.098  0.4467  0.2386 -0.7081
  218MOL    C7726551   7.517   2.455   6.029  0.2043 -0.1913  0.3062
  218MOL    H7826552   7.606   2.516   6.044 -0.5944  1.1733 -0.4717
  218MOL    H7926553   7.479   2.479   5.930 -0.4393 -1.7438  0.1529
  218MOL    C8026554   7.561   2.312   6.017 -0.8802 -0.0175 -0.9368
  218MOL    F8126555   7.612   2.271   6.135 -0.0739  0.4155 -0.4851
  218MOL    F8226556   7.450   2.252   5.983  0.3169  0.1117  0.0271
  218MOL    C8326557   7.670   2.283   5.909  0.4705  0.1218  0.0438
  218MOL    H8426558   7.757   2.339   5.943  0.0071  1.3483 -0.7578
  218MOL    H8526559   7.640   2.336   5.819 -1.0347 -1.5200 -0.4340
  218MOL    C8626560   7.699   2.142   5.869 -0.0582 -0.1544  0.3248
  218MOL    F8726561   7.731   2.079   5.978 -0.3503 -0.8032  0.2916
  218MOL    F8826562   7.597   2.072   5.821  0.3604 -0.4697 -0.1185
  218MOL    C8926563   7.813   2.125   5.771  0.0938  0.2144 -0.0849
  218MOL    H9026564   7.821   2.019   5.746 -0.3449  0.2610 -0.4312
  218MOL    H9126565   7.899   2.141   5.836  0.8674  1.3699 -1.3705
  218MOL    C9226566   7.800   2.199   5.638 -0.7875 -0.5152 -0.2622
  218MOL    F9326567   7.683   2.162   5.583  0.1290 -0.3200 -0.3072
  218MOL    F9426568   7.801   2.334   5.659 -0.4536  0.0231  0.4021
  218MOL    C9526569   7.913   2.174   5.536 -0.5229 -0.3553 -0.0038
  218MOL    H9626570   7.930   2.067   5.539 -2.4070 -0.7082 -1.1259
  218MOL    H9726571   8.003   2.205   5.589  0.4715 -0.5241 -1.5543
  218MOL    C9826572   7.900   2.230   5.389 -0.0879 -0.1819 -0.2256
  218MOL    F9926573   8.019   2.191   5.331 -0.1905  0.1313 -0.4586
  218MOL   F10026574   7.798   2.166   5.330  0.4632  0.4869 -0.1098
  218MOL   C10126575   7.893   2.381   5.382  0.6319 -0.0589  0.2537
  218MOL   H10226576   7.967   2.430   5.445 -0.7051  1.8450  0.3927
  218MOL   H10326577   7.804   2.417   5.434  1.6575  2.3109  0.3899
  218MOL   C10426578   7.916   2.445   5.241 -0.0878 -0.3527  0.3870
  218MOL   F10526579   8.043   2.417   5.193  0.2299  0.0735  0.3069
  218MOL   F10626580   7.830   2.413   5.145  0.0100  0.3874  0.3841
  218MOL   C10726581   7.891   2.597   5.261 -0.1529  0.1643  0.7685
  218MOL   H10826582   7.953   2.638   5.340 -0.0620  0.8008  0.3755
  218MOL   H10926583   7.787   2.620   5.286 -0.5409 -1.1058  0.3654
  218MOL   C11026584   7.918   2.689   5.141  0.0363 -0.7357 -0.1765
  218MOL   F11126585   8.030   2.652   5.086  0.3268  0.1113  0.1795
  218MOL   F11226586   7.834   2.663   5.041 -0.0997  0.1090  0.1379
  218MOL   C11326587   7.916   2.841   5.169  0.3724  0.9137  0.4647
  218MOL   H11426588   7.949   2.893   5.080  1.8441 -1.0896 -0.1714
  218MOL   H11526589   8.000   2.849   5.237  0.9304 -2.5813  0.2820
  218MOL   C11626590   7.788   2.914   5.220  0.3216  0.1574  0.0839
  218MOL   F11726591   7.774   2.893   5.352 -0.4031  0.0396 -0.0373
  218MOL   F11826592   7.802   3.047   5.216  0.5138 -0.7442 -0.3285
  218MOL   C11926593   7.655   2.877   5.157 -0.2105  0.1180 -0.4823
  218MOL   H12026594   7.586   2.957   5.183 -0.0713  1.0446 -2.8147
  218MOL   H12126595   7.626   2.776   5.187 -1.2851  0.9438  1.3027
  218MOL   H12226596   7.662   2.883   5.048 -1.0369 -0.6302 -0.5778
  219MOL     C126597   4.988   6.718   2.500 -0.7638 -0.0672  0.3997
  219MOL     F226598   5.027   6.835   2.554  0.6280 -0.0227  1.0914
  219MOL     F326599   4.882   6.742   2.419  0.1695  0.0332 -0.2321
  219MOL     C426600   4.946   6.624   2.604 -0.5287  0.6576 -0.9043
  219MOL     H526601   4.884   6.542   2.566 -3.1677  2.5029 -0.7243
  219MOL     H626602   4.879   6.673   2.675  0.1420 -2.3767  1.9299
  219MOL     H726603   5.063   6.671   2.436 -0.0483 -1.1503  2.0105
  219MOL     C826604   5.057   6.554   2.676 -0.0891 -0.0967 -0.6279
  219MOL     F926605   5.129   6.496   2.576  0.7285  0.0675  0.3471
  219MOL    F1026606   5.131   6.638   2.740 -0.1711 -0.0530 -0.0747
  219MOL    C1126607   5.015   6.427   2.766 -0.4183  0.1104 -0.0656
  219MOL    H1226608   5.109   6.382   2.800  0.4238  1.9870  0.1634
  219MOL    H1326609   4.958   6.361   2.701  0.0214 -1.6470  1.2933
  219MOL    C1426610   4.925   6.450   2.890 -0.5301 -0.6640  0.7156
  219MOL    F1526611   4.979   6.550   2.965 -0.3735 -0.2926 -0.0340
  219MOL    F1626612   4.815   6.497   2.838 -0.3537 -0.4439  0.4276
  219MOL    C1726613   4.885   6.326   2.976  0.0427 -0.4228 -0.4711
  219MOL    H1826614   4.832   6.258   2.909 -1.4556 -0.8511  1.1136
  219MOL    H1926615   4.811   6.361   3.049  0.3112 -1.4748  0.3249
  219MOL    C2026616   5.003   6.259   3.052 -0.6423  0.2127 -0.7237
  219MOL    F2126617   5.090   6.207   2.970 -0.1365 -0.2169  0.2750
  219MOL    F2226618   5.049   6.357   3.131  0.1479  0.0262  0.8854
  219MOL    C2326619   4.941   6.139   3.137  0.2289 -0.4003  0.1862
  219MOL    H2426620   4.876   6.082   3.072 -0.1051 -0.8529  0.9076
  219MOL    H2526621   4.873   6.180   3.212 -0.7114  0.4312 -1.1030
  219MOL    C2626622   5.048   6.053   3.201  0.4283 -0.0146  0.4528
  219MOL    F2726623   5.149   6.011   3.115  0.1430 -0.0740  0.0358
  219MOL    F2826624   5.116   6.140   3.275 -0.5420 -0.8994 -0.0285
  219MOL    C2926625   5.001   5.949   3.302  0.1007 -1.1296 -0.7001
  219MOL    H3026626   4.925   6.005   3.358  0.0493  1.5439 -3.3153
  219MOL    H3126627   5.081   5.921   3.371 -0.0329  1.6319  0.6623
  219MOL    C3226628   4.928   5.825   3.238 -0.6942  0.1887  0.0878
  219MOL    F3326629   4.866   5.764   3.338 -0.2996 -0.0639 -0.2403
  219MOL    F3426630   4.834   5.864   3.153 -0.0454 -0.6520  0.3652
  219MOL    C3526631   5.020   5.740   3.146 -0.8889 -0.2410 -0.1939
  219MOL    H3626632   5.116   5.725   3.195  0.2282  1.4315 -1.7483
  219MOL    H3726633   5.038   5.787   3.048 -0.3739 -2.0071 -0.9667
  219MOL    C3826634   4.967   5.601   3.115 -0.4809  0.7719  0.7722
  219MOL    F3926635   5.056   5.541   3.038 -0.0345 -0.0066  0.0693
  219MOL    F4026636   4.957   5.534   3.233 -0.3528  0.1934 -0.1537
  219MOL    C4126637   4.825   5.591   3.039  0.1769 -0.6716 -0.5366
  219MOL    H4226638   4.855   5.619   2.938  2.4698  1.7221  0.7656
  219MOL    H4326639   4.756   5.669   3.069  1.9509 -0.2174  2.5956
  219MOL    C4426640   4.749   5.461   3.048  0.2004 -0.3007  0.3271
  219MOL    F4526641   4.690   5.457   3.169  0.3348 -0.2619  0.0347
  219MOL    F4626642   4.644   5.459   2.968  0.0685 -0.4339  0.1396
  219MOL    C4726643   4.836   5.326   3.032  0.6419  0.1184  0.5423
  219MOL    H4826644   4.902   5.317   3.119 -1.1030 -1.0545  1.7708
  219MOL    H4926645   4.893   5.331   2.939 -1.7337 -2.8588 -1.1749
  219MOL    C5026646   4.752   5.190   3.023  0.3618 -0.2694  0.6200
  219MOL    F5126647   4.700   5.181   2.900 -0.0275  0.4256  0.1320
  219MOL    F5226648   4.853   5.100   3.026 -0.0498  0.1102  0.0449
  219MOL    C5326649   4.653   5.154   3.130 -0.2664 -0.8870 -0.4041
  219MOL    H5426650   4.571   5.216   3.095  1.4691  1.0550 -1.1811
  219MOL    H5526651   4.693   5.187   3.226 -1.4051  0.3837 -0.3537
  219MOL    C5626652   4.603   5.015   3.129  0.0293  0.2461  0.1546
  219MOL    F5726653   4.541   5.001   3.011 -0.2968 -0.2518  0.1398
  219MOL    F5826654   4.702   4.925   3.137 -0.2839  0.1561  0.1639
  219MOL    C5926655   4.490   4.983   3.233 -0.4418 -0.7784 -0.4775
  219MOL    H6026656   4.541   4.953   3.325 -1.9816 -1.3865  0.1999
  219MOL    H6126657   4.437   4.890   3.215 -0.7451 -0.6173 -0.4112
  219MOL    C6226658   4.394   5.094   3.262  0.2566 -0.6571 -0.0234
  219MOL    F6326659   4.456   5.198   3.305 -0.1537  0.1992  0.0771
  219MOL    F6426660   4.332   5.139   3.148 -0.1652  0.4250 -0.0155
  219MOL    C6526661   4.285   5.053   3.365  0.0201  0.0602 -0.8486
  219MOL    H6626662   4.207   4.996   3.315 -1.4090  1.1662  0.0970
  219MOL    H6726663   4.238   5.147   3.391 -0.8888 -0.3609 -0.9711
  219MOL    C6826664   4.331   4.987   3.500 -0.6151 -0.5903  0.1437
  219MOL    F6926665   4.369   4.861   3.476 -0.5568  0.2373 -0.1021
  219MOL    F7026666   4.430   5.068   3.544 -0.0879  0.1552  0.1617
  219MOL    C7126667   4.211   4.984   3.606 -0.3956  0.4031 -1.1758
  219MOL    H7226668   4.143   4.911   3.563 -2.7657  1.5152  0.5880
  219MOL    H7326669   4.153   5.076   3.621  0.8258  1.2299 -1.3982
  219MOL    C7426670   4.266   4.920   3.741 -0.3348  0.3430  0.5725
  219MOL    F7526671   4.308   4.797   3.714  0.3249  0.4200 -0.5900
  219MOL    F7626672   4.364   4.997   3.787 -0.2217  0.8607  0.6445
  219MOL    C7726673   4.153   4.914   3.841  0.3332  0.8556  0.1741
  219MOL    H7826674   4.080   4.846   3.797 -0.3229  2.5637 -1.4320
  219MOL    H7926675   4.111   5.012   3.859 -1.3948  0.2766 -0.5816
  219MOL    C8026676   4.196   4.845   3.985 -0.0270  0.0164  0.5668
  219MOL    F8126677   4.084   4.809   4.052  0.2912  0.0926  0.1076
  219MOL    F8226678   4.261   4.729   3.955  0.0510 -0.5765  0.3685
  219MOL    C8326679   4.282   4.939   4.069 -0.0984 -0.6191  0.4782
  219MOL    H8426680   4.216   5.023   4.093  0.6669  0.4451 -1.0748
  219MOL    H8526681   4.360   4.986   4.010 -1.2838  0.8514  0.0442
  219MOL    C8626682   4.352   4.884   4.193  0.7961 -0.4509 -0.4789
  219MOL    F8726683   4.462   4.813   4.163 -0.2589  0.1090  0.2140
  219MOL    F8826684   4.397   4.993   4.261 -0.3869  0.3051  0.3250
  219MOL    C8926685   4.263   4.804   4.285 -0.1185 -0.4198 -0.0526
  219MOL    H9026686   4.234   4.706   4.248  3.4318 -1.2317 -0.9591
  219MOL    H9126687   4.171   4.861   4.285 -0.9555 -1.7333 -2.2661
  219MOL    C9226688   4.307   4.785   4.432  0.3507  0.2789 -0.9253
  219MOL    F9326689   4.225   4.692   4.482 -0.1512  0.3168  0.5766
  219MOL    F9426690   4.430   4.735   4.432  0.2696 -0.1468  0.3439
  219MOL    C9526691   4.316   4.911   4.523  0.3061  0.0319  0.4408
  219MOL    H9626692   4.400   4.973   4.492  0.4712  0.9897  2.6667
  219MOL    H9726693   4.340   4.877   4.624 -1.4952  0.0244  0.8848
  219MOL    C9826694   4.183   4.996   4.544 -0.6782 -0.3400  1.0232
  219MOL    F9926695   4.210   5.094   4.631  0.0734  0.1720  0.4540
  219MOL   F10026696   4.156   5.051   4.425 -0.1479 -0.7926  0.2472
  219MOL   C10126697   4.065   4.911   4.598 -0.6291  0.2792  0.2277
  219MOL   H10226698   4.093   4.874   4.697 -0.1334 -1.9405 -0.7022
  219MOL   H10326699   4.053   4.819   4.541  0.1346  0.8114 -0.8047
  219MOL   C10426700   3.929   4.980   4.632 -0.1527  0.0798  0.2774
  219MOL   F10526701   3.851   4.886   4.697  0.0589  0.1097 -0.3447
  219MOL   F10626702   3.968   5.073   4.717  0.3346 -0.1438 -0.0683
  219MOL   C10726703   3.850   5.047   4.519 -0.1373 -0.5301 -0.9809
  219MOL   H10826704   3.910   5.131   4.483 -0.5563 -0.3871 -1.3590
  219MOL   H10926705   3.757   5.078   4.568 -1.4643 -2.2133 -2.3424
  219MOL   C11026706   3.807   4.953   4.402  0.3803 -0.4189  0.3688
  219MOL   F11126707   3.916   4.913   4.339 -0.1033  0.1286 -0.3098
  219MOL   F11226708   3.745   4.848   4.448  0.1278 -0.1715  0.0257
  219MOL   C11326709   3.720   5.040   4.302 -0.1472  0.0103 -0.3796
  219MOL   H11426710   3.767   5.132   4.266  0.8106 -0.1985  0.3115
  219MOL   H11526711   3.628   5.070   4.351 -0.6985 -1.4482 -0.5078
  219MOL   C11626712   3.666   4.959   4.184  0.1430  0.9865 -0.1542
  219MOL   F11726713   3.755   4.910   4.101  0.5146 -0.1205 -0.0785
  219MOL   F11826714   3.595   4.855   4.229 -0.2256  0.0434 -0.1840
  219MOL   C11926715   3.576   5.045   4.095  0.7012  0.9335  0.1059
  219MOL   H12026716   3.533   4.982   4.018 -1.6613  3.0799 -0.3951
  219MOL   H12126717   3.644   5.111   4.041  0.8965  0.2695 -0.4650
  219MOL   H12226718   3.497   5.103   4.143 -0.9160 -3.1211  2.5274
  220MOL     C126719   7.426   4.544   0.355  0.2078  0.2908 -0.1958
  220MOL     F226720   7.539   4.483   0.375 -0.1689  0.3900 -0.4522
  220MOL     F326721   7.430   4.613   0.244 -0.7609  0.3485  0.0780
  220MOL     C426722   7.386   4.627   0.470 -0.1802  0.0495  0.1453
  220MOL     H526723   7.450   4.714   0.487 -1.9644  1.6314 -1.0057
  220MOL     H626724   7.386   4.561   0.557  1.2390  1.4299  1.2225
  220MOL     H726725   7.348   4.469   0.346  1.2914 -0.8201 -0.2991
  220MOL     C826726   7.244   4.693   0.464  0.5910 -0.3897  0.3242
  220MOL     F926727   7.234   4.774   0.356  0.0291  0.8296  0.0701
  220MOL    F1026728   7.146   4.606   0.461  0.4908  0.4932 -0.1046
  220MOL    C1126729   7.224   4.774   0.588  0.1041 -0.0385 -0.0755
  220MOL    H1226730   7.312   4.836   0.603  0.9108 -1.4083  1.0122
  220MOL    H1326731   7.219   4.714   0.679 -2.0155  0.8101  0.3948
  220MOL    C1426732   7.099   4.868   0.590 -0.1723 -0.0838 -0.1096
  220MOL    F1526733   7.099   4.962   0.498 -0.2568  0.0975 -0.3177
  220MOL    F1626734   6.988   4.802   0.581 -0.3549 -0.5147  0.4649
  220MOL    C1726735   7.095   4.943   0.721  0.3972  0.2460 -0.3725
  220MOL    H1826736   7.186   5.002   0.732  1.5299 -1.4152 -0.6432
  220MOL    H1926737   7.083   4.876   0.806 -0.5058  2.1229  1.0190
  220MOL    C2026738   6.969   5.033   0.747 -0.5717 -0.4591 -0.1672
  220MOL    F2126739   6.849   4.982   0.742 -0.4541  0.1880 -0.2047
  220MOL    F2226740   6.989   5.082   0.873 -0.3089  0.1076 -0.1513
  220MOL    C2326741   6.973   5.148   0.643 -0.3051 -0.0486  0.3599
  220MOL    H2426742   6.938   5.113   0.546 -0.5930  0.0785  0.4162
  220MOL    H2526743   7.075   5.180   0.622 -0.3969  0.2805  0.4107
  220MOL    C2626744   6.876   5.263   0.681 -0.0883  0.0656  0.2863
  220MOL    F2726745   6.756   5.214   0.685 -0.1818  0.1084 -0.3410
  220MOL    F2826746   6.905   5.301   0.808 -0.2620 -0.5750  0.5820
  220MOL    C2926747   6.873   5.382   0.594 -0.4237  0.4639  0.1172
  220MOL    H3026748   6.966   5.437   0.606  0.5215 -0.8631 -0.9524
  220MOL    H3126749   6.792   5.447   0.626 -1.9341 -1.3916  0.1653
  220MOL    C3226750   6.851   5.362   0.444 -0.8071  0.2889  0.6357
  220MOL    F3326751   6.948   5.295   0.379 -0.1748 -0.3042 -0.2481
  220MOL    F3426752   6.733   5.305   0.438  0.6483  0.8409  0.6158
  220MOL    C3526753   6.846   5.496   0.374 -0.1934 -0.4871  0.4470
  220MOL    H3626754   6.930   5.562   0.396 -0.0679 -0.9119  1.2907
  220MOL    H3726755   6.758   5.546   0.412  0.4186  3.7146 -3.2855
  220MOL    C3826756   6.838   5.492   0.221 -0.1391  0.2910  0.1056
  220MOL    F3926757   6.938   5.426   0.166  0.1347 -0.3006  0.1803
  220MOL    F4026758   6.729   5.426   0.184  0.1459 -0.0567 -0.5888
  220MOL    C4126759   6.836   5.628   0.153 -0.2169 -0.3394 -0.6155
  220MOL    H4226760   6.913   5.698   0.187 -1.7872  0.6101  1.0940
  220MOL    H4326761   6.749   5.678   0.196  0.8316  0.2345  0.8799
  220MOL    C4426762   6.844   5.619   8.348 -0.0561 -0.2346  0.3610
  220MOL    F4526763   6.950   5.554   8.303  0.3853 -0.1257  0.0389
  220MOL    F4626764   6.735   5.560   8.306  0.0124 -0.4457 -0.4755
  220MOL    C4726765   6.844   5.765   8.295 -0.1124  0.6416 -0.4600
  220MOL    H4826766   6.941   5.810   8.316  1.0866 -1.9004 -0.3262
  220MOL    H4926767   6.771   5.830   8.342 -0.5049  0.5085 -0.8882
  220MOL    C5026768   6.821   5.784   8.146  0.0819  0.4625  0.5593
  220MOL    F5126769   6.701   5.733   8.115 -0.1538  0.1876 -0.3017
  220MOL    F5226770   6.819   5.915   8.115 -0.3728  0.1029  0.2348
  220MOL    C5326771   6.926   5.730   8.052 -0.3346  0.6331  0.1917
  220MOL    H5426772   6.931   5.622   8.065 -0.4358  0.8464  2.1091
  220MOL    H5526773   7.021   5.769   8.088  0.1614 -0.8563  0.5006
  220MOL    C5626774   6.902   5.752   7.902 -0.1045  0.4050 -0.4482
  220MOL    F5726775   6.782   5.690   7.873 -0.2978 -0.3864  0.0256
  220MOL    F5826776   6.895   5.882   7.874  0.4438 -0.1841 -0.4525
  220MOL    C5926777   7.020   5.693   7.825  1.0656  0.4821 -0.1329
  220MOL    H6026778   7.032   5.588   7.850 -1.6050 -0.0417 -0.8950
  220MOL    H6126779   7.107   5.751   7.857  2.5304 -0.9072 -1.5175
  220MOL    C6226780   7.016   5.708   7.676  0.1916 -1.2371 -0.1519
  220MOL    F6326781   6.913   5.634   7.641 -0.2631 -0.1706  0.0971
  220MOL    F6426782   7.004   5.835   7.634 -0.1130 -0.1276 -0.1086
  220MOL    C6526783   7.148   5.671   7.605 -0.8553 -0.2256  0.7795
  220MOL    H6626784   7.180   5.572   7.637  1.8420  0.0906 -0.7502
  220MOL    H6726785   7.225   5.730   7.655 -2.1101 -0.7198  3.4048
  220MOL    C6826786   7.150   5.655   7.447  0.9928 -0.3003  0.1116
  220MOL    F6926787   7.055   5.566   7.419  0.1428 -0.2268  0.4202
  220MOL    F7026788   7.119   5.777   7.406 -0.0967  0.3783  0.3036
  220MOL    C7126789   7.286   5.602   7.392  0.1768  0.3239 -0.7174
  220MOL    H7226790   7.356   5.683   7.413 -0.2760  1.3129 -2.8890
  220MOL    H7326791   7.268   5.587   7.286 -2.5739  0.8007 -0.3580
  220MOL    C7426792   7.360   5.480   7.452  0.7590  0.9369  0.0820
  220MOL    F7526793   7.406   5.502   7.575 -0.2118 -0.1912 -0.0318
  220MOL    F7626794   7.274   5.376   7.452  0.1411  0.1815  0.1375
  220MOL    C7726795   7.468   5.432   7.358 -0.7399 -0.3828  0.2735
  220MOL    H7826796   7.430   5.408   7.259 -0.9987 -0.3555  0.3639
  220MOL    H7926797   7.509   5.337   7.390  1.0445  0.4933  0.6281
  220MOL    C8026798   7.583   5.538   7.335  0.8265  0.2014  0.8880
  220MOL    F8126799   7.540   5.647   7.275  0.0597 -0.1759 -0.3255
  220MOL    F8226800   7.636   5.576   7.454 -0.0110 -0.2832  0.1633
  220MOL    C8326801   7.703   5.470   7.257  0.0124  0.1097 -0.3255
  220MOL    H8426802   7.655   5.440   7.164  0.3610 -0.2943 -0.3772
  220MOL    H8526803   7.743   5.388   7.318 -1.9443 -0.3622  0.3924
  220MOL    C8626804   7.815   5.567   7.205  0.0150 -0.2291  0.9535
  220MOL    F8726805   7.780   5.635   7.098  0.5614 -0.5358  0.6087
  220MOL    F8826806   7.836   5.653   7.304  0.1267  0.0341  0.0367
  220MOL    C8926807   7.951   5.506   7.177 -0.6019  0.5577  0.3258
  220MOL    H9026808   7.975   5.454   7.270 -0.3339 -0.1026 -0.1106
  220MOL    H9126809   8.029   5.581   7.178  0.4460 -0.5213  0.6081
  220MOL    C9226810   7.965   5.442   7.040 -0.2589  0.1131  0.6036
  220MOL    F9326811   7.859   5.373   7.009 -0.1418 -0.0608  0.1123
  220MOL    F9426812   7.969   5.548   6.951  0.1943  0.4208 -0.0843
  220MOL    C9526813   8.092   5.358   7.030 -0.6956 -0.5319 -0.5563
  220MOL    H9626814   8.101   5.283   7.108  2.1920  2.4404  2.1266
  220MOL    H9726815   8.173   5.430   7.042 -0.3727 -1.1302  0.9921
  220MOL    C9826816   8.112   5.287   6.896 -0.7197  0.1611  0.1531
  220MOL    F9926817   8.007   5.206   6.878 -0.5495 -0.1766 -0.2234
  220MOL   F10026818   8.119   5.368   6.792  0.2982  0.5569  0.4220
  220MOL   C10126819   8.225   5.185   6.914  0.4281 -0.6628  0.4176
  220MOL   H10226820   8.214   5.111   6.835 -1.1409 -1.1346  1.0611
  220MOL   H10326821   8.204   5.130   7.006 -1.4088 -0.9133 -0.1338
  220MOL   C10426822   0.019   5.238   6.929 -0.0181  0.1212  0.9322
  220MOL   F10526823   0.015   5.293   7.051 -0.1563  0.2595 -0.2600
  220MOL   F10626824   0.089   5.124   6.940  0.8655  0.3775 -0.4690
  220MOL   C10726825   0.076   5.326   6.813  0.0637 -0.3771  0.7866
  220MOL   H10826826   0.012   5.414   6.807  0.7888  0.0695 -0.6495
  220MOL   H10926827   0.060   5.271   6.721 -1.3045  1.5112 -0.1369
  220MOL   C11026828   0.233   5.362   6.829 -0.6024  0.1972 -1.0700
  220MOL   F11126829   0.265   5.386   6.958 -0.1242 -0.0131 -0.3431
  220MOL   F11226830   0.303   5.252   6.794 -0.0505 -0.2378  0.0251
  220MOL   C11326831   0.275   5.492   6.754  0.1737 -0.1381 -0.0500
  220MOL   H11426832   0.208   5.576   6.776 -1.6913 -1.6961  0.4037
  220MOL   H11526833   0.260   5.476   6.647  0.4310  2.8215 -0.5717
  220MOL   C11626834   0.419   5.524   6.796 -0.4328  0.1557 -1.0041
  220MOL   F11726835   0.420   5.567   6.922  0.4397  0.0950  0.3803
  220MOL   F11826836   0.494   5.415   6.771  0.1368  0.4340  0.1387
  220MOL   C11926837   0.474   5.632   6.703 -0.4194  0.1325  0.1771
  220MOL   H12026838   0.579   5.652   6.723 -0.2133 -1.9490  1.3267
  220MOL   H12126839   0.422   5.727   6.720  0.0316  0.0926  1.9274
  220MOL   H12226840   0.468   5.604   6.598 -0.2230  4.0181 -0.9396
  221MOL     C126841   1.830   6.552   4.751  0.0185 -0.0090 -0.0846
  221MOL     F226842   1.914   6.648   4.706  0.1380  0.0959  0.4019
  221MOL     F326843   1.715   6.559   4.682 -0.1571  0.2343 -0.3013
  221MOL     C426844   1.802   6.572   4.900  0.1384  0.7022  0.1567
  221MOL     H526845   1.762   6.671   4.923 -1.7293  0.4136 -1.7702
  221MOL     H626846   1.902   6.589   4.940 -0.6376  0.6172  2.1993
  221MOL     H726847   1.887   6.461   4.732 -0.7068 -0.2656 -1.0488
  221MOL     C826848   1.729   6.447   4.959  0.0299  0.5788  0.3813
  221MOL     F926849   1.612   6.434   4.883 -0.4048  0.3121 -0.0967
  221MOL    F1026850   1.798   6.336   4.941 -0.4283 -0.1929 -0.0148
  221MOL    C1126851   1.687   6.470   5.104  0.3965  0.1234  0.5312
  221MOL    H1226852   1.621   6.390   5.138 -1.5489  1.5006  0.0934
  221MOL    H1326853   1.633   6.565   5.107  0.0916 -0.0457  0.4752
  221MOL    C1426854   1.812   6.477   5.199 -0.3561  0.1416  0.1543
  221MOL    F1526855   1.888   6.378   5.161 -0.0837  0.3468 -0.5567
  221MOL    F1626856   1.890   6.585   5.182  0.0245  0.4090  0.2188
  221MOL    C1726857   1.770   6.461   5.349 -0.4963 -0.3961 -0.1224
  221MOL    H1826858   1.723   6.366   5.370  1.3527 -1.1267  0.7903
  221MOL    H1926859   1.691   6.531   5.376  1.3458  1.4460  0.6842
  221MOL    C2026860   1.895   6.462   5.452  0.2161 -0.5302  0.4501
  221MOL    F2126861   1.860   6.422   5.567 -0.5222  0.3441 -1.0498
  221MOL    F2226862   1.977   6.370   5.405 -0.3697  0.3284 -0.1013
  221MOL    C2326863   1.963   6.599   5.481 -0.4414 -0.1465 -0.2538
  221MOL    H2426864   1.891   6.679   5.495  1.1306  1.1933  0.3171
  221MOL    H2526865   2.010   6.628   5.387 -2.2339  0.9934 -0.8223
  221MOL    C2626866   2.069   6.613   5.597 -0.2178  1.0550 -0.3784
  221MOL    F2726867   2.111   6.738   5.596 -0.0542  0.3093 -0.3509
  221MOL    F2826868   2.013   6.583   5.712  0.2973  0.1509  0.4793
  221MOL    C2926869   2.193   6.527   5.580 -0.4816  0.5850 -0.1509
  221MOL    H3026870   2.152   6.426   5.578  3.0331 -0.8967 -2.4943
  221MOL    H3126871   2.254   6.534   5.670 -1.1296 -3.1280  0.6288
  221MOL    C3226872   2.276   6.551   5.445 -0.2398  0.0597 -0.8337
  221MOL    F3326873   2.210   6.508   5.340 -0.5784  0.0722  0.0298
  221MOL    F3426874   2.302   6.681   5.425  0.0151  0.4490  0.1994
  221MOL    C3526875   2.402   6.472   5.454 -0.0663 -1.0234 -0.4723
  221MOL    H3626876   2.472   6.517   5.525  0.6611 -0.3647 -1.5912
  221MOL    H3726877   2.456   6.488   5.360 -0.9459  1.8981 -0.5477
  221MOL    C3826878   2.399   6.327   5.478  0.2169  0.4256  0.1595
  221MOL    F3926879   2.364   6.294   5.605 -0.2021 -0.2404 -0.4338
  221MOL    F4026880   2.319   6.257   5.401  0.3890 -0.2771  0.0276
  221MOL    C4126881   2.542   6.260   5.473  0.3355 -0.5228  0.1320
  221MOL    H4226882   2.539   6.154   5.498 -2.4289 -0.8584 -1.4023
  221MOL    H4326883   2.608   6.303   5.548  0.8282 -1.6331  0.3404
  221MOL    C4426884   2.611   6.274   5.338 -0.1204  0.5120 -0.2870
  221MOL    F4526885   2.530   6.239   5.240 -0.1359  0.6121 -0.5253
  221MOL    F4626886   2.646   6.398   5.331 -0.2383  0.1903  0.0548
  221MOL    C4726887   2.736   6.186   5.325  0.0272 -0.0064 -0.1177
  221MOL    H4826888   2.726   6.095   5.385  2.0276 -0.3263 -0.2411
  221MOL    H4926889   2.822   6.234   5.371  0.2479  1.1520 -1.6947
  221MOL    C5026890   2.777   6.157   5.176 -0.4580  0.5343 -0.4225
  221MOL    F5126891   2.907   6.117   5.181 -0.3713  0.1631 -0.6952
  221MOL    F5226892   2.690   6.061   5.133  0.3520  0.0966  0.3595
  221MOL    C5326893   2.768   6.276   5.079  0.1745  0.4228 -0.8255
  221MOL    H5426894   2.814   6.362   5.126 -0.1062 -0.0491  0.3215
  221MOL    H5526895   2.664   6.308   5.070  0.0614  0.0005 -1.0689
  221MOL    C5626896   2.836   6.249   4.942 -0.2673 -0.4719 -0.1921
  221MOL    F5726897   2.974   6.228   4.962  0.1462  0.3171  0.5472
  221MOL    F5826898   2.789   6.141   4.890  0.5617  0.2415 -0.2096
  221MOL    C5926899   2.819   6.363   4.839 -0.4039 -0.3414 -0.1913
  221MOL    H6026900   2.841   6.312   4.746 -1.5365 -1.7448  0.2935
  221MOL    H6126901   2.891   6.444   4.846 -1.3492  0.6614 -1.6817
  221MOL    C6226902   2.672   6.422   4.826 -0.3479 -0.6317 -0.3962
  221MOL    F6326903   2.576   6.329   4.817 -0.1885  0.3236 -0.0083
  221MOL    F6426904   2.649   6.508   4.929  0.3097  0.2615 -0.7104
  221MOL    C6526905   2.636   6.509   4.699  0.1453  0.0078  0.6154
  221MOL    H6626906   2.531   6.539   4.708 -0.2198 -1.1104  0.1029
  221MOL    H6726907   2.634   6.460   4.602 -0.5319  2.9772 -0.9419
  221MOL    C6826908   2.726   6.639   4.668 -0.3589 -0.3294 -0.3959
  221MOL    F6926909   2.751   6.719   4.775 -0.0118  0.2195 -0.2037
  221MOL    F7026910   2.843   6.588   4.631 -0.0697  0.3255  0.1109
  221MOL    C7126911   2.676   6.714   4.544 -0.7412  0.2037  0.5860
  221MOL    H7226912   2.646   6.647   4.463 -0.6733  1.2685 -0.3339
  221MOL    H7326913   2.766   6.762   4.505 -1.1896 -0.0863 -0.8609
  221MOL    C7426914   2.558   6.815   4.565  0.2858 -0.3786 -0.1098
  221MOL    F7526915   2.458   6.743   4.613  0.2245  0.1294  0.0758
  221MOL    F7626916   2.600   6.898   4.655 -0.3234  0.3949  0.3472
  221MOL    C7726917   2.503   6.888   4.446 -0.4967  0.1153  0.4519
  221MOL    H7826918   2.483   6.815   4.368  4.4444 -0.1230 -0.7902
  221MOL    H7926919   2.587   6.943   4.404  1.3646 -2.1506  1.1230
  221MOL    C8026920   2.381   6.969   4.474 -0.0833 -0.0774  0.9032
  221MOL    F8126921   2.342   7.015   4.353 -0.0915 -0.5974 -0.0689
  221MOL    F8226922   2.284   6.896   4.519  0.1695  0.5437 -0.8281
  221MOL    C8326923   2.396   7.096   4.558 -0.0668  0.2728  0.0835
  221MOL    H8426924   2.476   7.160   4.522 -0.8090  0.3362 -1.4974
  221MOL    H8526925   2.418   7.052   4.656  1.2682 -1.8360 -1.1152
  221MOL    C8626926   2.266   7.190   4.558  0.9663  0.5947  0.6491
  221MOL    F8726927   2.258   7.238   4.429  0.1219  0.0153 -0.1226
  221MOL    F8826928   2.164   7.107   4.591  0.3121  0.1404  0.0461
  221MOL    C8926929   2.271   7.311   4.654  0.2457 -0.1204 -0.1470
  221MOL    H9026930   2.372   7.352   4.655  0.3923 -0.4156  2.6363
  221MOL    H9126931   2.260   7.277   4.757 -0.3431  0.2275 -0.0886
  221MOL    C9226932   2.159   7.414   4.625  0.0946 -0.5356 -0.3917
  221MOL    F9326933   2.169   7.507   4.714  0.1474 -0.1743 -0.0440
  221MOL    F9426934   2.157   7.479   4.507  0.2931 -0.5799 -0.4192
  221MOL    C9526935   2.019   7.347   4.639 -0.1658  0.3841 -0.7825
  221MOL    H9626936   2.015   7.276   4.722 -0.3182  0.0931 -1.0346
  221MOL    H9726937   2.001   7.287   4.550 -1.0958 -0.6604  0.0842
  221MOL    C9826938   1.893   7.432   4.654  0.5531  0.2529 -0.0448
  221MOL    F9926939   1.901   7.500   4.767  0.0022 -0.0057 -0.3813
  221MOL   F10026940   1.901   7.511   4.548  0.2644 -0.0119 -0.4898
  221MOL   C10126941   1.754   7.360   4.652 -0.1474 -0.5323  0.5877
  221MOL   H10226942   1.729   7.326   4.552  1.4057 -0.0335  0.0077
  221MOL   H10326943   1.674   7.426   4.684 -2.3070 -1.5027 -2.6116
  221MOL   C10426944   1.739   7.235   4.746  0.3226  0.2793 -0.1725
  221MOL   F10526945   1.821   7.136   4.708  0.2888 -0.5230  0.5987
  221MOL   F10626946   1.766   7.267   4.875 -0.0476 -0.6832  0.5897
  221MOL   C10726947   1.597   7.167   4.741 -0.1582  0.0372  0.0851
  221MOL   H10826948   1.581   7.149   4.635  0.5179  2.0186 -0.3709
  221MOL   H10926949   1.512   7.235   4.744  0.6220  1.0619 -0.7678
  221MOL   C11026950   1.561   7.053   4.834 -0.4965  0.8584 -0.3132
  221MOL   F11126951   1.666   6.970   4.846 -0.4154  0.1686  0.1075
  221MOL   F11226952   1.520   7.105   4.953  0.0694 -0.1715  0.1871
  221MOL   C11326953   1.450   6.957   4.787 -0.3940  0.3388 -0.3665
  221MOL   H11426954   1.496   6.905   4.703  0.9557  2.3841 -0.9083
  221MOL   H11526955   1.363   7.011   4.749 -0.1547  0.8241 -0.2263
  221MOL   C11626956   1.427   6.839   4.890 -0.1566 -0.2098  1.0055
  221MOL   F11726957   1.530   6.762   4.923  0.7198 -0.0529 -0.1913
  221MOL   F11826958   1.384   6.890   5.002  0.0995 -0.3059 -0.6652
  221MOL   C11926959   1.315   6.744   4.838  0.6816 -1.0608 -0.3826
  221MOL   H12026960   1.356   6.660   4.781 -1.4935 -2.7009  0.3859
  221MOL   H12126961   1.245   6.794   4.771  1.7989  1.1003  0.0403
  221MOL   H12226962   1.252   6.713   4.921  0.1927 -1.0094 -0.7319
  222MOL     C126963   0.072   5.601   0.931 -0.3380 -0.0288 -0.3266
  222MOL     F226964   0.002   5.634   1.039  0.0715  0.4476  0.0800
  222MOL     F326965   8.334   5.575   0.830  0.1981 -0.0831 -0.8254
  222MOL     C426966   0.147   5.469   0.951 -0.5528 -0.8746 -0.6138
  222MOL     H526967   0.195   5.440   0.858 -1.7914  0.4402 -1.6867
  222MOL     H626968   0.081   5.385   0.974  1.2932 -2.4267 -0.8980
  222MOL     H726969   0.148   5.677   0.909  0.6919 -0.7075  0.8011
  222MOL     C826970   0.264   5.476   1.050 -0.0643  0.7314  0.2303
  222MOL     F926971   0.315   5.352   1.054  0.4654  0.7625 -0.4709
  222MOL    F1026972   0.361   5.559   1.008 -0.0608 -0.6461 -0.2527
  222MOL    C1126973   0.222   5.522   1.190 -0.8271 -0.3501 -0.6829
  222MOL    H1226974   0.132   5.467   1.215 -1.2918  0.7538  0.1024
  222MOL    H1326975   0.197   5.628   1.197  0.0060 -0.2930  1.8922
  222MOL    C1426976   0.319   5.485   1.305  0.5407  0.2452  0.0874
  222MOL    F1526977   0.285   5.554   1.411 -0.1888 -0.0510  0.4112
  222MOL    F1626978   0.303   5.358   1.329  0.3518 -0.1710  0.5775
  222MOL    C1726979   0.473   5.506   1.288 -0.0051 -0.1705  0.0811
  222MOL    H1826980   0.497   5.611   1.270  2.3954 -0.4613  1.3877
  222MOL    H1926981   0.516   5.450   1.205 -0.0283 -2.2251  1.4246
  222MOL    C2026982   0.568   5.473   1.414  0.7208 -0.3268 -0.7361
  222MOL    F2126983   0.531   5.559   1.517  0.2446 -0.1388 -0.3392
  222MOL    F2226984   0.539   5.352   1.462  0.2136 -0.1551  0.2271
  222MOL    C2326985   0.722   5.499   1.388  0.1069 -0.3160 -0.3667
  222MOL    H2426986   0.770   5.459   1.477 -1.8365 -3.1472 -0.5204
  222MOL    H2526987   0.753   5.603   1.377 -0.3837 -0.0957  0.3394
  222MOL    C2626988   0.784   5.427   1.271 -0.2360 -0.2713  0.1442
  222MOL    F2726989   0.745   5.296   1.269  0.3560  0.4931  0.0289
  222MOL    F2826990   0.734   5.489   1.165  0.3826  0.3877 -0.0204
  222MOL    C2926991   0.942   5.425   1.273 -0.5402  0.2630  0.1505
  222MOL    H3026992   0.964   5.363   1.360 -0.1090 -1.0534 -0.8773
  222MOL    H3126993   0.977   5.525   1.299 -0.5229  0.2972 -0.0066
  222MOL    C3226994   1.010   5.377   1.145  0.2449  0.4088 -0.1692
  222MOL    F3326995   0.994   5.476   1.054  0.0589 -0.3709  0.0215
  222MOL    F3426996   1.136   5.371   1.175 -0.3248  0.2976 -0.2352
  222MOL    C3526997   0.963   5.244   1.089  0.0793 -0.2902  0.0836
  222MOL    H3626998   0.855   5.245   1.072  0.0803  3.4588 -0.0374
  222MOL    H3726999   0.986   5.172   1.168 -0.3039 -0.9136 -0.3627
  222MOL    C3827000   1.020   5.188   0.955  0.0350  0.0762 -0.6800
  222MOL    F3927001   1.022   5.288   0.873  0.2184  0.1863 -0.1305
  222MOL    F4027002   1.139   5.145   0.989 -0.6559 -0.8466 -0.1479
  222MOL    C4127003   0.937   5.067   0.906 -0.7998  0.0501  0.2404
  222MOL    H4227004   0.838   5.110   0.892 -1.6010 -2.0302 -0.5934
  222MOL    H4327005   0.930   4.999   0.991  0.8822 -1.7263 -1.0023
  222MOL    C4427006   0.997   4.996   0.788 -0.0483  0.0151  0.6297
  222MOL    F4527007   0.995   5.088   0.687 -0.2878  0.7740  0.1197
  222MOL    F4627008   1.118   4.969   0.822 -0.1658  0.1913  0.4172
  222MOL    C4727009   0.920   4.865   0.732  0.3582  0.2846 -0.3011
  222MOL    H4827010   0.964   4.838   0.636  2.3498 -0.2011  0.7111
  222MOL    H4927011   0.819   4.901   0.712  0.1645 -0.0701  0.0294
  222MOL    C5027012   0.919   4.745   0.831  0.1982  0.1336  0.1936
  222MOL    F5127013   1.047   4.719   0.857 -0.1534  0.2605 -0.2571
  222MOL    F5227014   0.864   4.782   0.955 -0.3990  0.0983  0.2306
  222MOL    C5327015   0.849   4.613   0.788  0.4841  0.4426 -0.5127
  222MOL    H5427016   0.876   4.538   0.863  1.1482  0.1588 -1.0251
  222MOL    H5527017   0.895   4.577   0.696 -0.0068 -0.8458 -0.2665
  222MOL    C5627018   0.695   4.616   0.761 -0.1736 -0.0718  0.5667
  222MOL    F5727019   0.636   4.643   0.881 -0.3375  0.4507 -0.7362
  222MOL    F5827020   0.666   4.717   0.683 -0.2309  0.2284  0.6155
  222MOL    C5927021   0.648   4.476   0.708 -0.4507 -0.2941  0.1813
  222MOL    H6027022   0.697   4.395   0.761  1.9113  1.1890  0.3425
  222MOL    H6127023   0.687   4.471   0.606  0.3328  1.8337  0.3582
  222MOL    C6227024   0.493   4.450   0.704 -0.1673  0.3967 -0.2822
  222MOL    F6327025   0.483   4.323   0.660  0.1166 -0.4818 -0.0528
  222MOL    F6427026   0.438   4.455   0.824 -0.5535 -0.6303  0.3835
  222MOL    C6527027   0.411   4.545   0.617  0.0580 -1.1775 -0.0603
  222MOL    H6627028   0.452   4.539   0.516  0.1495 -2.4939  0.0439
  222MOL    H6727029   0.423   4.643   0.663 -0.9123 -0.2757 -1.6884
  222MOL    C6827030   0.258   4.514   0.605 -0.4805 -0.4779  0.1667
  222MOL    F6927031   0.247   4.385   0.564 -0.1826  0.5913  0.4104
  222MOL    F7027032   0.202   4.525   0.728 -0.5862  0.0687  0.0785
  222MOL    C7127033   0.184   4.614   0.515 -0.0979  0.5518 -0.6906
  222MOL    H7227034   0.226   4.620   0.414 -1.2241  0.8805 -1.1446
  222MOL    H7327035   0.195   4.711   0.564  3.3344  0.1231 -0.5056
  222MOL    C7427036   0.033   4.583   0.498 -0.6842  0.1190  0.3932
  222MOL    F7527037   8.320   4.569   0.616 -0.6147  0.1629 -0.7009
  222MOL    F7627038   8.340   4.693   0.449 -0.2898 -0.5182  0.0006
  222MOL    C7727039   8.346   4.464   0.421  0.1564  0.6862 -0.1957
  222MOL    H7827040   8.238   4.453   0.429  0.3354 -0.2471  1.0878
  222MOL    H7927041   0.032   4.371   0.464 -0.9427 -0.3873 -1.6003
  222MOL    C8027042   0.032   4.458   0.268 -0.2758 -0.3466 -0.4039
  222MOL    F8127043   0.012   4.577   0.212  0.0545 -0.2030 -0.1549
  222MOL    F8227044   0.162   4.434   0.262 -0.2363 -0.2368 -0.1046
  222MOL    C8327045   8.303   4.334   0.213 -0.6016 -0.3703  0.0284
  222MOL    H8427046   8.198   4.336   0.240 -0.9332 -1.5902 -1.0960
  222MOL    H8527047   8.341   4.245   0.263  1.3475  0.5131  0.1606
  222MOL    C8627048   8.320   4.315   0.062  0.3608  0.3912  0.3922
  222MOL    F8727049   8.297   4.433   0.000  0.1651  0.2845 -0.3094
  222MOL    F8827050   0.090   4.266   0.030 -0.4755  0.2812 -0.1406
  222MOL    C8927051   8.227   4.214   0.002  0.3771  0.1708 -0.0820
  222MOL    H9027052   8.267   4.195   8.252  2.2409 -0.2144  0.7140
  222MOL    H9127053   8.126   4.253   8.335  0.3275 -0.0405 -0.2901
  222MOL    C9227054   8.205   4.081   0.083 -0.9158  0.3168 -0.3764
  222MOL    F9327055   8.329   4.031   0.120  0.4779 -0.1594  0.0989
  222MOL    F9427056   8.134   4.112   0.194 -0.1714  0.0665 -0.5203
  222MOL    C9527057   8.134   3.983   8.340 -0.3189 -0.4066 -0.5699
  222MOL    H9627058   8.200   3.949   8.261  0.4985 -0.3327  0.0756
  222MOL    H9727059   8.052   4.038   8.293 -0.3362  1.0385  1.0788
  222MOL    C9827060   8.086   3.862   0.059  0.4833 -0.5041 -0.3315
  222MOL    F9927061   8.190   3.811   0.120 -0.4592 -0.1028 -0.1202
  222MOL   F10027062   7.995   3.899   0.145 -0.0271 -0.0859  0.1232
  222MOL   C10127063   8.021   3.757   8.313 -0.3900 -0.8365 -0.0240
  222MOL   H10227064   8.081   3.763   8.222 -0.4923  0.5924  0.0029
  222MOL   H10327065   7.926   3.795   8.273  0.0135  1.2256  0.9325
  222MOL   C10427066   8.003   3.612   0.018  0.5980  0.2673 -1.0566
  222MOL   F10527067   8.123   3.547   0.002  0.0545  0.0964  0.5147
  222MOL   F10627068   7.979   3.624   0.148 -0.1737 -0.1375  0.1601
  222MOL   C10727069   7.890   3.526   8.309 -0.3960  0.2073  0.4869
  222MOL   H10827070   7.794   3.552   0.004  0.0601  0.0935  1.5481
  222MOL   H10927071   7.915   3.426   8.344 -0.7696  0.9789  3.0497
  222MOL   C11027072   7.869   3.505   8.159 -0.0677  0.7146 -0.1284
  222MOL   F11127073   7.756   3.432   8.147 -0.2955 -0.1503  0.0234
  222MOL   F11227074   7.840   3.621   8.102 -0.1998  0.2837 -0.3140
  222MOL   C11327075   7.983   3.439   8.076  0.6929  0.2144 -0.6401
  222MOL   H11427076   8.021   3.353   8.132  0.1105 -0.0902 -0.7153
  222MOL   H11527077   8.066   3.510   8.079  0.6731  0.1889  1.3249
  222MOL   C11627078   7.947   3.406   7.931 -0.2466  0.0898 -0.9254
  222MOL   F11727079   8.044   3.361   7.859 -0.3429 -0.4622 -0.1669
  222MOL   F11827080   7.861   3.308   7.940 -0.1742  0.3732  0.4691
  222MOL   C11927081   7.873   3.518   7.852 -0.2104  0.0214  0.0284
  222MOL   H12027082   7.881   3.504   7.744  1.6713  0.2517  0.1234
  222MOL   H12127083   7.914   3.617   7.877 -1.0675  0.0882  1.2219
  222MOL   H12227084   7.768   3.519   7.882 -0.3036  0.4507 -0.2949
  223MOL     C127085   0.078   1.917   4.115 -0.1337 -0.2822 -0.2741
  223MOL     F227086   0.058   2.045   4.092 -0.1800  0.0929 -0.0465
  223MOL     F327087   0.191   1.912   4.187 -0.4461  0.1253  0.5052
  223MOL     C427088   0.101   1.867   3.969  0.0548 -0.2295 -0.1537
  223MOL     H527089   0.152   1.771   3.964  1.2537  0.2147  2.5525
  223MOL     H627090   0.173   1.933   3.920  0.1600 -0.8281 -0.8168
  223MOL     H727091   8.345   1.875   4.172  0.0203  0.4094  0.4725
  223MOL     C827092   8.312   1.844   3.895 -0.6556 -0.6879 -0.0117
  223MOL     F927093   8.231   1.745   3.938  0.2029 -0.2396  0.4516
  223MOL    F1027094   8.244   1.955   3.922 -0.0809  0.4329  0.3683
  223MOL    C1127095   8.314   1.831   3.741 -0.0511 -0.4600  0.1225
  223MOL    H1227096   8.218   1.800   3.701 -0.1032  1.5032 -1.3650
  223MOL    H1327097   0.036   1.751   3.720  3.0799  2.2375  0.0892
  223MOL    C1427098   0.015   1.947   3.653 -1.4115 -0.2521  0.2599
  223MOL    F1527099   8.286   2.052   3.677 -0.3600  0.2782 -0.1918
  223MOL    F1627100   0.143   1.976   3.681  0.2061 -0.2132 -0.7537
  223MOL    C1727101   0.004   1.926   3.503  0.0823 -0.4643  0.5040
  223MOL    H1827102   8.257   1.894   3.464 -0.2043  0.3769  0.5221
  223MOL    H1927103   0.082   1.851   3.493 -0.0829 -0.7763  1.5065
  223MOL    C2027104   0.061   2.033   3.408 -0.3883  1.0978 -0.6034
  223MOL    F2127105   8.328   2.135   3.432 -0.0031 -0.2830 -0.7862
  223MOL    F2227106   0.189   2.070   3.428  0.1347 -0.1714 -0.1753
  223MOL    C2327107   0.042   2.000   3.256  0.2169 -0.3746  0.5067
  223MOL    H2427108   0.073   2.085   3.195 -0.6224 -0.1843  0.3396
  223MOL    H2527109   8.287   1.987   3.228  0.2279 -1.7798  1.0793
  223MOL    C2627110   0.102   1.862   3.210 -0.2187 -0.2205 -0.0868
  223MOL    F2727111   0.233   1.859   3.242  0.0571 -0.5569  0.0759
  223MOL    F2827112   0.048   1.765   3.282  0.8501  0.0627  0.1324
  223MOL    C2927113   0.081   1.831   3.060 -0.4709 -0.2495 -0.0792
  223MOL    H3027114   0.126   1.915   3.007  0.8346 -0.4125  0.7500
  223MOL    H3127115   8.327   1.851   3.032 -0.8575  1.2026  2.2219
  223MOL    C3227116   0.130   1.697   3.013 -0.2759  0.3228  0.4439
  223MOL    F3327117   0.066   1.594   3.070 -0.0586 -0.6105 -0.0315
  223MOL    F3427118   0.104   1.698   2.885  0.3001  0.0618 -0.2031
  223MOL    C3527119   0.280   1.674   3.025 -0.3274 -0.4218 -0.4872
  223MOL    H3627120   0.311   1.644   3.125 -1.4930  1.3105  0.4146
  223MOL    H3727121   0.342   1.763   3.016 -0.7781 -0.0012  0.5377
  223MOL    C3827122   0.337   1.571   2.929 -0.6795  0.1091  0.3669
  223MOL    F3927123   0.261   1.462   2.917  0.3580  0.1139 -0.1361
  223MOL    F4027124   0.330   1.636   2.810 -0.3230  0.1730  0.5537
  223MOL    C4127125   0.486   1.523   2.949  0.4083 -0.5205  0.4620
  223MOL    H4227126   0.543   1.615   2.957 -0.0591 -0.2870  1.1892
  223MOL    H4327127   0.509   1.471   2.856  2.2300  0.8108  0.1582
  223MOL    C4427128   0.514   1.423   3.057  0.1235 -0.7850 -0.0930
  223MOL    F4527129   0.467   1.468   3.173 -0.5516 -0.0482 -0.4591
  223MOL    F4627130   0.438   1.327   3.016 -0.2410 -0.1005  0.3411
  223MOL    C4727131   0.655   1.370   3.061  0.1848 -0.5883  0.3941
  223MOL    H4827132   0.720   1.451   3.093 -0.1300 -0.7868  1.5601
  223MOL    H4927133   0.674   1.340   2.957 -0.5908  3.1216 -0.8679
  223MOL    C5027134   0.674   1.255   3.158  0.2497 -0.5184 -0.7265
  223MOL    F5127135   0.634   1.143   3.102 -0.0211 -0.1107  0.4197
  223MOL    F5227136   0.808   1.247   3.162 -0.0099 -0.3313  0.3837
  223MOL    C5327137   0.616   1.273   3.294 -0.5283  0.2070 -0.0428
  223MOL    H5427138   0.508   1.262   3.287 -0.4169 -0.6536 -0.5220
  223MOL    H5527139   0.652   1.371   3.327 -0.0841  0.1741 -0.4239
  223MOL    C5627140   0.644   1.168   3.396 -0.4818 -0.0722  0.2713
  223MOL    F5727141   0.588   1.050   3.355  0.3704  0.0200 -0.3212
  223MOL    F5827142   0.775   1.142   3.390  0.6405  0.1819 -0.2309
  223MOL    C5927143   0.609   1.200   3.543  0.3237 -0.0880 -0.4444
  223MOL    H6027144   0.623   1.308   3.551  0.1546 -0.1501  0.7610
  223MOL    H6127145   0.678   1.142   3.603  1.0327 -0.0292 -1.1971
  223MOL    C6227146   0.463   1.166   3.587  0.2277 -0.2972  0.3262
  223MOL    F6327147   0.430   1.244   3.687  0.0266  0.1482 -0.1868
  223MOL    F6427148   0.382   1.190   3.479 -0.2066 -0.0204 -0.4414
  223MOL    C6527149   0.441   1.012   3.621  0.8333  0.5633 -0.7694
  223MOL    H6627150   0.470   0.950   3.536  0.7973  0.2868 -0.5772
  223MOL    H6727151   0.335   0.991   3.633  1.3119 -0.3968  2.0671
  223MOL    C6827152   0.518   0.958   3.744  0.5927 -0.3614 -0.8256
  223MOL    F6927153   0.444   0.845   3.777 -0.0437  0.5069  0.1097
  223MOL    F7027154   0.639   0.928   3.708 -0.1811 -0.2184 -0.5782
  223MOL    C7127155   0.518   1.043   3.878 -0.5502 -0.2680  0.2377
  223MOL    H7227156   0.413   1.067   3.897 -0.2113  1.4392  0.0921
  223MOL    H7327157   0.572   1.135   3.853 -1.7538  1.1889  2.7931
  223MOL    C7427158   0.581   0.984   4.005  0.4917  0.1899  0.7587
  223MOL    F7527159   0.514   0.873   4.026  0.1164  0.3078  0.0515
  223MOL    F7627160   0.713   0.958   3.972  0.2389  0.5269  0.1814
  223MOL    C7727161   0.570   1.074   4.124  0.6699  0.2824  0.7262
  223MOL    H7827162   0.465   1.104   4.127  0.2689 -1.1693  1.5610
  223MOL    H7927163   0.630   1.160   4.094  0.7927 -0.3798 -0.9672
  223MOL    C8027164   0.613   1.018   4.265 -0.5513  0.5682 -0.3190
  223MOL    F8127165   0.554   0.897   4.288 -0.3540 -0.1058  0.0921
  223MOL    F8227166   0.745   0.992   4.259 -0.2247 -0.6568 -0.0892
  223MOL    C8327167   0.581   1.125   4.371  0.2726  0.1794  0.1518
  223MOL    H8427168   0.474   1.148   4.374  0.3533  0.2822  2.8505
  223MOL    H8527169   0.624   1.220   4.338 -1.7448  1.5827  1.4606
  223MOL    C8627170   0.617   1.087   4.517 -0.3613  0.7152  0.7064
  223MOL    F8727171   0.571   0.964   4.537 -0.0132 -0.0897  0.4962
  223MOL    F8827172   0.753   1.074   4.520  0.3952  0.0118 -0.4766
  223MOL    C8927173   0.568   1.189   4.629 -0.1125  0.0030  0.0640
  223MOL    H9027174   0.619   1.282   4.603  0.0102  0.4781  1.9409
  223MOL    H9127175   0.607   1.154   4.725  1.1817  0.1654 -0.3814
  223MOL    C9227176   0.412   1.194   4.640 -0.1578  0.2279 -0.0342
  223MOL    F9327177   0.363   1.266   4.538 -0.0020  0.2730  0.1936
  223MOL    F9427178   0.345   1.079   4.634  0.3033 -0.1424 -0.3087
  223MOL    C9527179   0.375   1.263   4.776  0.7116 -0.3031 -0.1357
  223MOL    H9627180   0.440   1.350   4.777  0.6050 -0.2189 -0.7523
  223MOL    H9727181   0.414   1.201   4.857  2.0063 -1.0634 -1.3251
  223MOL    C9827182   0.226   1.301   4.800 -0.0053 -0.2890 -0.5942
  223MOL    F9927183   0.200   1.380   4.696  0.1395 -0.2696  0.1843
  223MOL   F10027184   0.153   1.192   4.799 -0.1001 -0.0347  0.1590
  223MOL   C10127185   0.200   1.365   4.932 -0.4416  0.0769 -0.4624
  223MOL   H10227186   0.283   1.425   4.970 -0.2453  0.5707 -1.6262
  223MOL   H10327187   0.181   1.286   5.004 -3.7781  1.2641  0.0688
  223MOL   C10427188   0.072   1.453   4.942 -0.1868 -0.8764 -0.2502
  223MOL   F10527189   0.051   1.501   5.068  0.8941 -0.1164  0.3647
  223MOL   F10627190   0.100   1.560   4.862  0.0655 -0.0195 -0.0326
  223MOL   C10727191   8.289   1.407   4.886  0.2112  0.0758 -0.1867
  223MOL   H10827192   8.317   1.351   4.796  2.6505  0.3737  0.3532
  223MOL   H10927193   8.232   1.498   4.865 -0.3697 -0.3670 -0.5473
  223MOL   C11027194   8.185   1.341   4.984  0.7388  0.1229 -0.2777
  223MOL   F11127195   8.176   1.415   5.094  0.2248 -0.1896  0.4883
  223MOL   F11227196   8.070   1.331   4.918 -0.4509 -0.1939  0.2698
  223MOL   C11327197   8.221   1.190   5.018 -0.1442 -0.1621 -0.6943
  223MOL   H11427198   8.309   1.189   5.082  0.0676 -0.4773 -0.9894
  223MOL   H11527199   8.245   1.126   4.933  2.4329 -0.9001  0.5477
  223MOL   C11627200   8.113   1.098   5.091  0.2469  0.4967  0.0442
  223MOL   F11727201   8.009   1.083   5.009  0.3367  0.4915  0.3933
  223MOL   F11827202   8.167   0.978   5.115  0.4249 -0.3906  0.0783
  223MOL   C11927203   8.053   1.168   5.210  0.2027 -0.4408 -0.3312
  223MOL   H12027204   7.974   1.108   5.255  0.5219  0.0373  0.8629
  223MOL   H12127205   8.004   1.260   5.179  1.7551  0.3131 -0.5696
  223MOL   H12227206   8.122   1.204   5.286 -1.6151  1.2118  0.5647
  224MOL     C127207   1.535   7.223   2.811  0.2304 -0.2497 -0.5880
  224MOL     F227208   1.467   7.123   2.871 -0.0228 -0.3134  0.9158
  224MOL     F327209   1.482   7.339   2.836  0.5828 -0.0246  0.4583
  224MOL     C427210   1.547   7.207   2.656  0.4196 -0.1716 -0.5041
  224MOL     H527211   1.606   7.294   2.626 -0.5424 -0.1267 -2.3382
  224MOL     H627212   1.448   7.213   2.609  0.0997 -0.2647  0.1529
  224MOL     H727213   1.634   7.226   2.856  0.2769  1.5374 -0.7974
  224MOL     C827214   1.622   7.074   2.608  0.0557 -0.0469 -0.2188
  224MOL     F927215   1.746   7.071   2.663  0.2818 -0.1541  0.5715
  224MOL    F1027216   1.551   6.968   2.648  0.1045 -0.8724  0.2658
  224MOL    C1127217   1.621   7.075   2.456 -0.5587  0.6691  0.4326
  224MOL    H1227218   1.667   7.167   2.420 -1.0462  0.3868 -0.9491
  224MOL    H1327219   1.523   7.076   2.410  0.1023 -0.0347 -1.0532
  224MOL    C1427220   1.710   6.972   2.384 -0.1648  0.0811  0.2062
  224MOL    F1527221   1.674   6.854   2.435 -0.9911 -0.0760  0.0739
  224MOL    F1627222   1.673   6.979   2.251 -0.4518 -0.0245 -0.6376
  224MOL    C1727223   1.863   6.987   2.402  0.5172  0.6877 -0.1077
  224MOL    H1827224   1.906   6.899   2.353 -2.3280  0.5871 -2.5669
  224MOL    H1927225   1.892   6.974   2.506  2.1774  2.1627 -0.3667
  224MOL    C2027226   1.929   7.118   2.357  0.1481 -0.0186 -0.3452
  224MOL    F2127227   1.899   7.140   2.227  0.3897 -0.0224 -0.3331
  224MOL    F2227228   1.879   7.224   2.430 -0.6264 -0.2566 -0.1125
  224MOL    C2327229   2.080   7.117   2.355 -0.7809  0.1775 -0.0112
  224MOL    H2427230   2.107   7.204   2.296 -0.1070 -1.0731 -1.5938
  224MOL    H2527231   2.116   7.031   2.298  4.2642  1.6240  0.8208
  224MOL    C2627232   2.147   7.101   2.489 -1.2230 -0.4201  0.7843
  224MOL    F2727233   2.098   7.188   2.578  0.0628  0.1325 -0.1601
  224MOL    F2827234   2.133   6.970   2.521  0.5670 -0.0160 -0.1884
  224MOL    C2927235   2.300   7.134   2.483  0.1307  0.1056 -0.2763
  224MOL    H3027236   2.322   7.236   2.451  0.9582 -0.6441 -2.1520
  224MOL    H3127237   2.335   7.075   2.398 -2.1268 -0.0732 -1.1227
  224MOL    C3227238   2.386   7.109   2.609  0.1756 -0.2982  0.0459
  224MOL    F3327239   2.355   6.989   2.668  0.2201  0.1891  0.5549
  224MOL    F3427240   2.508   7.111   2.559  0.2653  0.3212 -0.1697
  224MOL    C3527241   2.367   7.211   2.715  0.0039  0.3146 -0.6315
  224MOL    H3627242   2.264   7.222   2.752 -0.1204 -0.8542 -0.6302
  224MOL    H3727243   2.384   7.312   2.679 -0.2505  0.1173 -1.3024
  224MOL    C3827244   2.457   7.201   2.840 -0.5209  0.4484  0.0915
  224MOL    F3927245   2.442   7.321   2.906  0.4944  0.6022  0.5211
  224MOL    F4027246   2.415   7.101   2.921  0.0086  0.2279  0.1174
  224MOL    C4127247   2.604   7.179   2.812  0.3858  0.6482  0.3032
  224MOL    H4227248   2.636   7.228   2.720 -3.9166 -0.4127 -1.8872
  224MOL    H4327249   2.616   7.073   2.789  0.0471  0.7540 -0.3689
  224MOL    C4427250   2.699   7.193   2.924  0.0116 -0.0293  0.5566
  224MOL    F4527251   2.654   7.142   3.040 -0.3929 -0.0895  0.8287
  224MOL    F4627252   2.812   7.132   2.901  0.0947  0.3679  0.3390
  224MOL    C4727253   2.741   7.343   2.956 -0.3908 -0.0179  1.0165
  224MOL    H4827254   2.792   7.325   3.051 -0.9157 -1.1954  1.0821
  224MOL    H4927255   2.653   7.406   2.967 -0.5655  0.0746 -0.7180
  224MOL    C5027256   2.827   7.419   2.858  0.0011  0.6714 -0.1688
  224MOL    F5127257   2.935   7.352   2.841 -0.0078  0.2891 -0.0131
  224MOL    F5227258   2.775   7.431   2.735 -0.3607  0.2927  0.4425
  224MOL    C5327259   2.867   7.561   2.894 -0.2859 -0.3779 -0.4999
  224MOL    H5427260   2.943   7.607   2.831 -0.2196  1.8829  1.1500
  224MOL    H5527261   2.922   7.553   2.988 -0.1176 -2.2439 -0.7552
  224MOL    C5627262   2.758   7.652   2.933  1.4445 -0.2923  0.2352
  224MOL    F5727263   2.699   7.617   3.046  0.1039 -0.3883 -0.0117
  224MOL    F5827264   2.801   7.778   2.953 -0.1521  0.3377  0.0999
  224MOL    C5927265   2.646   7.658   2.823  0.1275  0.0750 -0.5407
  224MOL    H6027266   2.557   7.705   2.863  0.5587 -0.1046  0.6470
  224MOL    H6127267   2.613   7.556   2.803  0.6573 -0.2110  0.0118
  224MOL    C6227268   2.673   7.741   2.694 -0.6712 -0.2618 -0.1057
  224MOL    F6327269   2.709   7.862   2.735  0.5648  0.0662 -0.2584
  224MOL    F6427270   2.779   7.692   2.632  0.3992 -0.4463  0.0209
  224MOL    C6527271   2.556   7.746   2.597 -0.9428  0.2116 -0.4949
  224MOL    H6627272   2.582   7.816   2.518 -3.2883 -0.4431 -1.9174
  224MOL    H6727273   2.471   7.776   2.658  0.0465  0.5229  0.7381
  224MOL    C6827274   2.519   7.621   2.519 -0.2562  1.0401 -0.4995
  224MOL    F6927275   2.620   7.572   2.442 -0.1922 -0.1795  0.4314
  224MOL    F7027276   2.491   7.531   2.611  0.2264  0.9525 -0.3881
  224MOL    C7127277   2.387   7.643   2.438 -0.0044  0.3890  0.4087
  224MOL    H7227278   2.399   7.728   2.371  1.1640 -0.1186 -0.0292
  224MOL    H7327279   2.298   7.657   2.500 -0.2647 -0.8362  0.3131
  224MOL    C7427280   2.364   7.526   2.334 -0.3770 -0.1125 -0.0679
  224MOL    F7527281   2.438   7.422   2.358 -0.1858 -0.1364 -0.0814
  224MOL    F7627282   2.234   7.502   2.345  0.1742  0.2552 -0.3852
  224MOL    C7727283   2.359   7.580   2.185  0.3838  0.6510 -0.4003
  224MOL    H7827284   2.298   7.670   2.185 -0.9616 -0.2373  0.6675
  224MOL    H7927285   2.299   7.519   2.117  0.3658  0.3575 -0.1215
  224MOL    C8027286   2.491   7.608   2.116 -0.7173  0.1137 -0.1807
  224MOL    F8127287   2.463   7.672   1.999 -0.0012 -0.6232  0.0438
  224MOL    F8227288   2.558   7.696   2.187 -0.0915  0.3337  0.0613
  224MOL    C8327289   2.578   7.490   2.098 -0.4626  0.0815  0.2599
  224MOL    H8427290   2.531   7.405   2.050  0.1209 -0.8744  1.3509
  224MOL    H8527291   2.595   7.464   2.202 -0.0906 -1.8826 -0.2741
  224MOL    C8627292   2.710   7.512   2.018 -1.1332  0.6373 -0.1477
  224MOL    F8727293   2.691   7.547   1.891  0.2865  0.3127 -0.3541
  224MOL    F8827294   2.769   7.618   2.083  0.1776 -0.4343  0.1724
  224MOL    C8927295   2.809   7.394   2.027  0.4751  0.2815 -0.2904
  224MOL    H9027296   2.764   7.300   1.995 -2.0467 -0.1833  4.1979
  224MOL    H9127297   2.834   7.383   2.132  0.3295  0.6492 -0.2159
  224MOL    C9227298   2.947   7.415   1.961 -0.3837 -0.0356 -0.3757
  224MOL    F9327299   2.933   7.461   1.841  0.1064  0.2914 -0.0072
  224MOL    F9427300   3.013   7.501   2.028  0.0165  0.3000  0.1498
  224MOL    C9527301   3.029   7.281   1.940 -0.0274  0.3285 -0.3623
  224MOL    H9627302   3.111   7.305   1.873 -0.6312 -1.1568 -1.6470
  224MOL    H9727303   2.970   7.214   1.878 -1.9117  1.6002  0.0012
  224MOL    C9827304   3.087   7.215   2.068  0.3624  0.3478 -0.0642
  224MOL    F9927305   3.197   7.276   2.110  0.5764 -1.0510 -0.5745
  224MOL   F10027306   2.996   7.215   2.163  0.0430  0.1588 -0.0251
  224MOL   C10127307   3.140   7.079   2.040 -0.0225 -0.9934 -0.2754
  224MOL   H10227308   3.198   7.093   1.948 -0.3620  1.6735 -0.1364
  224MOL   H10327309   3.057   7.012   2.021 -1.3757  0.0068  1.8925
  224MOL   C10427310   3.227   7.007   2.138  0.1967 -0.1124  0.0700
  224MOL   F10527311   3.347   7.059   2.155 -0.0535 -0.4709 -0.5659
  224MOL   F10627312   3.170   7.022   2.261  0.0319  0.4775 -0.2161
  224MOL   C10727313   3.237   6.850   2.100 -0.5859  0.7450  0.1361
  224MOL   H10827314   3.139   6.805   2.107 -0.5739  0.7959  0.6264
  224MOL   H10927315   3.297   6.824   2.188 -0.8254 -2.8333 -0.6992
  224MOL   C11027316   3.320   6.811   1.978  0.2342 -0.0657  0.0566
  224MOL   F11127317   3.271   6.882   1.869 -0.3311 -0.0529 -0.3171
  224MOL   F11227318   3.451   6.848   1.981  0.3274 -0.3482  0.5371
  224MOL   C11327319   3.322   6.657   1.938 -0.3858 -0.5919  0.3216
  224MOL   H11427320   3.396   6.641   1.860  0.2435  1.9504  0.3428
  224MOL   H11527321   3.227   6.621   1.901 -0.8411  0.0318  0.8600
  224MOL   C11627322   3.369   6.565   2.052  0.2149  0.2506 -0.5991
  224MOL   F11727323   3.291   6.562   2.165  0.0764 -0.4067  0.0632
  224MOL   F11827324   3.373   6.439   2.010  0.1326 -0.2965 -0.2192
  224MOL   C11927325   3.510   6.593   2.107 -0.0887  0.8061 -0.0150
  224MOL   H12027326   3.519   6.690   2.157 -0.1152  1.6889 -1.7108
  224MOL   H12127327   3.594   6.593   2.037  0.8313  1.3625  1.0730
  224MOL   H12227328   3.544   6.513   2.174 -0.0305  0.3696 -0.5665
  225MOL     C127329   3.749   0.775   6.908  0.4516  0.4598 -0.4715
  225MOL     F227330   3.682   0.660   6.893 -0.2297 -0.0166 -0.2884
  225MOL     F327331   3.743   0.816   7.034  0.2389  0.2307  0.2690
  225MOL     C427332   3.696   0.888   6.823  0.2665  0.4605 -0.2500
  225MOL     H527333   3.752   0.975   6.857  0.8115  0.7761 -1.9083
  225MOL     H627334   3.598   0.903   6.868  1.1268 -2.6182  2.9641
  225MOL     H727335   3.854   0.754   6.885  0.8392 -1.0461  2.3914
  225MOL     C827336   3.695   0.865   6.677  0.2370 -0.1122 -0.3375
  225MOL     F927337   3.809   0.804   6.639  0.0500  0.0208  0.3384
  225MOL    F1027338   3.595   0.775   6.662 -0.3640 -0.3395 -0.2141
  225MOL    C1127339   3.674   0.992   6.604 -0.1503 -0.1518  0.0086
  225MOL    H1227340   3.681   0.975   6.497 -0.1465 -0.1749  0.0122
  225MOL    H1327341   3.761   1.052   6.633 -0.8303  1.0853 -0.4968
  225MOL    C1427342   3.545   1.070   6.645  0.2056  0.5919 -0.3328
  225MOL    F1527343   3.449   0.978   6.633  0.3379 -0.0186  0.5175
  225MOL    F1627344   3.546   1.112   6.770 -0.0023 -0.8080 -0.3848
  225MOL    C1727345   3.514   1.189   6.554 -0.2449  0.4840 -0.5544
  225MOL    H1827346   3.419   1.238   6.576 -1.2091 -1.0111 -1.3599
  225MOL    H1927347   3.516   1.162   6.449 -0.5091  2.4129 -1.0779
  225MOL    C2027348   3.623   1.296   6.561 -0.3629  0.1218 -0.4261
  225MOL    F2127349   3.740   1.260   6.513  0.4721 -0.0814 -0.3440
  225MOL    F2227350   3.584   1.387   6.473  0.5054 -0.2167  0.6920
  225MOL    C2327351   3.642   1.362   6.693  0.1093 -0.3292  0.3510
  225MOL    H2427352   3.671   1.287   6.767 -3.5583 -2.1504  0.0272
  225MOL    H2527353   3.549   1.403   6.731  1.0130  0.8382  1.3502
  225MOL    C2627354   3.745   1.472   6.698  0.3601  0.0831 -0.3976
  225MOL    F2727355   3.859   1.399   6.707  0.2258 -0.5661 -0.0948
  225MOL    F2827356   3.749   1.553   6.598 -0.7090 -1.2705  0.3574
  225MOL    C2927357   3.734   1.560   6.828  0.6402  0.0590  0.3240
  225MOL    H3027358   3.711   1.496   6.914  1.4027  0.6604  0.9773
  225MOL    H3127359   3.663   1.641   6.813 -0.3889 -0.0787  4.0313
  225MOL    C3227360   3.872   1.633   6.862  0.8785 -0.4403  0.3507
  225MOL    F3327361   3.850   1.692   6.979  0.2743 -0.5778 -0.0567
  225MOL    F3427362   3.962   1.535   6.879  1.4206 -0.0206 -0.4688
  225MOL    C3527363   3.936   1.719   6.750  0.0653 -0.0386  0.2534
  225MOL    H3627364   3.864   1.794   6.718 -1.3267 -1.6675 -0.5560
  225MOL    H3727365   3.955   1.655   6.664  0.5692  0.2313  0.1641
  225MOL    C3827366   4.066   1.806   6.777  0.3339  0.3304  0.4414
  225MOL    F3927367   4.160   1.727   6.836 -0.2813  0.3841  0.3628
  225MOL    F4027368   4.117   1.844   6.665 -0.3101  0.1325 -0.1465
  225MOL    C4127369   4.034   1.930   6.861  0.6366 -0.0382 -0.0976
  225MOL    H4227370   3.987   1.897   6.954  1.1616  0.0264  0.1885
  225MOL    H4327371   3.958   1.992   6.813 -0.5266 -1.4401 -0.1148
  225MOL    C4427372   4.159   2.011   6.907  0.8069  0.9256 -0.0423
  225MOL    F4527373   4.221   1.953   7.008 -0.5527 -0.2209  0.1735
  225MOL    F4627374   4.250   2.022   6.803 -0.1164  0.0604  0.1202
  225MOL    C4727375   4.119   2.150   6.965 -0.3352  0.0703 -0.6736
  225MOL    H4827376   4.078   2.195   6.874 -0.1239  1.8928  0.1084
  225MOL    H4927377   4.201   2.207   7.008  0.6821 -1.5911 -0.3430
  225MOL    C5027378   4.009   2.152   7.080 -0.5183  0.0238  0.2526
  225MOL    F5127379   3.985   2.282   7.105  0.7974  0.1608 -0.1254
  225MOL    F5227380   3.893   2.110   7.024 -0.3244  0.5660  0.1646
  225MOL    C5327381   4.038   2.092   7.224 -0.2513  0.3570  0.0918
  225MOL    H5427382   4.119   2.147   7.271 -1.5988  4.2879 -1.9924
  225MOL    H5527383   4.072   1.989   7.218  2.8871  1.3317  0.2318
  225MOL    C5627384   3.917   2.089   7.325 -0.1414 -0.2341 -0.0854
  225MOL    F5727385   3.852   2.197   7.305  0.2252 -0.0037  0.7686
  225MOL    F5827386   3.839   1.988   7.293  0.0337 -0.1809  0.2566
  225MOL    C5927387   3.965   2.081   7.469 -0.2454 -0.7309 -0.0976
  225MOL    H6027388   4.030   2.166   7.491 -0.0927  0.1842 -3.7172
  225MOL    H6127389   4.015   1.984   7.473  1.3343  0.0779  0.3301
  225MOL    C6227390   3.856   2.070   7.580  0.9178  0.9445  0.9095
  225MOL    F6327391   3.781   2.176   7.566 -0.2800 -0.5172 -0.0404
  225MOL    F6427392   3.774   1.963   7.553  0.5455 -0.2322  0.1100
  225MOL    C6527393   3.910   2.074   7.727  0.1607  0.1877  0.1824
  225MOL    H6627394   3.828   2.073   7.799 -0.7568 -1.2906 -0.8415
  225MOL    H6727395   3.958   2.172   7.730  0.5340  0.0043  0.2529
  225MOL    C6827396   4.008   1.961   7.766  0.2653  0.4244  0.0549
  225MOL    F6927397   4.105   1.953   7.675 -0.4117  0.9800 -0.1145
  225MOL    F7027398   4.065   2.011   7.878  0.0985 -0.3404  0.5547
  225MOL    C7127399   3.942   1.825   7.802  0.4647  0.5062 -0.0776
  225MOL    H7227400   3.866   1.787   7.733 -1.0643  1.6796  0.9340
  225MOL    H7327401   3.873   1.845   7.884  1.9185  3.0019  0.5675
  225MOL    C7427402   4.032   1.713   7.854  0.1291  0.8915  0.0324
  225MOL    F7527403   4.089   1.744   7.967 -0.2594  0.2394  0.1143
  225MOL    F7627404   3.960   1.610   7.870 -0.3776  0.7274 -0.0705
  225MOL    C7727405   4.136   1.677   7.746  0.5552 -0.5284 -0.5868
  225MOL    H7827406   4.214   1.751   7.732 -0.2805  0.0122 -2.5485
  225MOL    H7927407   4.092   1.681   7.647 -0.9433 -1.5538  0.0114
  225MOL    C8027408   4.218   1.547   7.766  0.4140  0.3912 -0.1895
  225MOL    F8127409   4.285   1.559   7.884 -0.2019  0.0933  0.7542
  225MOL    F8227410   4.136   1.439   7.779  0.2175 -0.1456  0.8475
  225MOL    C8327411   4.321   1.521   7.655 -0.6945  0.5357 -0.0680
  225MOL    H8427412   4.406   1.588   7.673 -0.9220  1.6045 -2.6800
  225MOL    H8527413   4.273   1.544   7.560  0.5340 -1.6125 -1.2656
  225MOL    C8627414   4.373   1.384   7.639  0.0506 -0.5761 -0.3707
  225MOL    F8727415   4.280   1.303   7.589 -0.5406 -0.0018  0.2414
  225MOL    F8827416   4.468   1.405   7.547  0.3524 -0.3887  0.0930
  225MOL    C8927417   4.442   1.317   7.760 -0.0869  0.2139 -0.4803
  225MOL    H9027418   4.369   1.314   7.841 -0.5454 -0.0939 -0.8998
  225MOL    H9127419   4.502   1.400   7.798 -0.5260 -1.1618  3.4471
  225MOL    C9227420   4.503   1.177   7.743 -0.2981  0.3875  0.6511
  225MOL    F9327421   4.511   1.132   7.867  0.0798 -0.5613 -0.5929
  225MOL    F9427422   4.423   1.093   7.679  0.1391  0.5986 -0.0513
  225MOL    C9527423   4.640   1.174   7.673 -0.3806  0.6249  0.7978
  225MOL    H9627424   4.694   1.242   7.739  0.4640  0.4626  0.2706
  225MOL    H9727425   4.632   1.225   7.577  1.4328  0.6995  0.6709
  225MOL    C9827426   4.712   1.034   7.668  0.2709  0.0207  0.4727
  225MOL    F9927427   4.673   0.964   7.775 -0.0799 -0.6458 -0.1885
  225MOL   F10027428   4.654   0.983   7.563 -0.5251 -0.2212 -0.6981
  225MOL   C10127429   4.860   1.051   7.652 -0.1292 -0.2100  0.0055
  225MOL   H10227430   4.892   1.094   7.747  0.0400 -0.4667  0.0662
  225MOL   H10327431   4.877   1.136   7.585  1.3825 -0.3236  0.2174
  225MOL   C10427432   4.940   0.924   7.616 -0.0779 -0.3607  0.1010
  225MOL   F10527433   4.918   0.830   7.711  0.4837 -0.6035  0.0537
  225MOL   F10627434   4.887   0.866   7.508  0.0438 -0.0934 -0.1315
  225MOL   C10727435   5.091   0.937   7.613 -0.0120  0.2872 -0.4688
  225MOL   H10827436   5.121   0.990   7.523 -0.4762  0.3143 -0.6080
  225MOL   H10927437   5.132   0.837   7.596  2.4685  1.6024 -2.5668
  225MOL   C11027438   5.161   0.999   7.737  0.0904 -0.2195  0.0040
  225MOL   F11127439   5.137   1.130   7.727 -0.0342  0.0453 -0.0714
  225MOL   F11227440   5.097   0.950   7.843 -0.0014  0.0874 -0.4077
  225MOL   C11327441   5.310   0.975   7.731  0.0560 -0.5750 -0.3757
  225MOL   H11427442   5.345   1.003   7.631 -1.8772  1.6787 -0.4684
  225MOL   H11527443   5.326   0.868   7.739 -2.9245 -0.9320  1.4525
  225MOL   C11627444   5.400   1.028   7.841 -0.8346  0.4672  0.0795
  225MOL   F11727445   5.526   1.013   7.809 -0.3604  0.2924  0.5478
  225MOL   F11827446   5.380   1.161   7.849  0.4912 -0.0071  0.2887
  225MOL   C11927447   5.381   0.974   7.981  0.2958  0.3668  0.7863
  225MOL   H12027448   5.279   0.969   8.018  0.0547  1.4540  0.2946
  225MOL   H12127449   5.436   1.044   8.043 -1.1454  0.1843  2.2810
  225MOL   H12227450   5.423   0.873   7.990  0.8441  0.8038  3.4166
  226MOL     C127451   5.338   0.214   4.232  0.4483 -0.0425 -0.6166
  226MOL     F227452   5.397   0.250   4.114 -0.1750 -0.1889 -0.1236
  226MOL     F327453   5.356   0.318   4.312 -0.1894 -0.1290 -0.0646
  226MOL     C427454   5.385   0.087   4.297 -0.7504  0.3737  0.1161
  226MOL     H527455   5.488   0.102   4.327 -0.8534 -0.0050  0.6526
  226MOL     H627456   5.381   0.007   4.223 -0.8650  0.2480  0.2562
  226MOL     H727457   5.230   0.213   4.215  0.4994 -2.3704 -0.9091
  226MOL     C827458   5.309   0.042   4.418 -0.7167  0.6551  0.2924
  226MOL     F927459   5.321   0.137   4.513 -0.2592 -0.2861 -0.5887
  226MOL    F1027460   5.181   0.039   4.383 -0.3266 -0.0524  0.1055
  226MOL    C1127461   5.329   8.254   4.476 -0.3959 -0.4239  0.0079
  226MOL    H1227462   5.290   8.186   4.400 -0.7959 -0.0491 -0.1212
  226MOL    H1327463   5.265   8.248   4.564 -2.0156  0.4450 -1.0979
  226MOL    C1427464   5.471   8.216   4.521 -0.3223  0.0568  0.5332
  226MOL    F1527465   5.561   8.209   4.423  0.1526  0.0147  0.0237
  226MOL    F1627466   5.497   8.317   4.609 -0.2793 -0.2332  0.1281
  226MOL    C1727467   5.473   8.078   4.593  1.0109  0.6834 -0.2248
  226MOL    H1827468   5.449   7.999   4.521  0.1895  1.3264 -0.6608
  226MOL    H1927469   5.391   8.066   4.663 -0.0645 -0.0998 -1.5756
  226MOL    C2027470   5.607   8.041   4.672 -0.4137  0.6198 -0.0932
  226MOL    F2127471   5.598   8.128   4.775  0.4207 -0.5536 -0.0126
  226MOL    F2227472   5.617   7.923   4.731 -0.1749 -0.3046 -0.1840
  226MOL    C2327473   5.741   8.067   4.605  0.5273  0.4749 -0.3141
  226MOL    H2427474   5.821   8.056   4.678  0.0637  1.5787  0.3842
  226MOL    H2527475   5.762   8.172   4.582  1.8583  0.1989 -0.3941
  226MOL    C2627476   5.771   7.982   4.485  0.4141 -0.0053 -0.2973
  226MOL    F2727477   5.800   7.862   4.547  0.5686 -0.0666 -0.4410
  226MOL    F2827478   5.666   7.958   4.406 -0.6073  0.1864  0.2322
  226MOL    C2927479   5.893   8.036   4.406  1.0351 -0.0322 -0.6181
  226MOL    H3027480   5.980   8.037   4.470  0.3959  1.4681  0.2524
  226MOL    H3127481   5.880   8.139   4.371 -2.5440 -0.1831  0.0820
  226MOL    C3227482   5.912   7.953   4.280  0.1539  0.6487  0.1846
  226MOL    F3327483   5.808   7.961   4.202 -0.3953 -0.6658 -0.2117
  226MOL    F3427484   6.001   8.015   4.206 -0.3181  0.2646  0.3912
  226MOL    C3527485   5.968   7.805   4.295  0.6702 -0.5590  0.7194
  226MOL    H3627486   5.901   7.751   4.361  0.8053  2.1964  3.1948
  226MOL    H3727487   6.066   7.803   4.342  0.0729 -1.6800  1.9348
  226MOL    C3827488   5.979   7.735   4.160  0.1211 -0.2966 -0.6779
  226MOL    F3927489   5.859   7.736   4.092  0.0764 -0.2862  0.2737
  226MOL    F4027490   6.073   7.786   4.084 -0.2825  0.1410  0.1586
  226MOL    C4127491   6.015   7.588   4.173 -0.4383 -0.0792 -0.7303
  226MOL    H4227492   5.940   7.542   4.236  0.8216 -2.0031 -0.5711
  226MOL    H4327493   6.098   7.589   4.243 -1.8188 -2.3909  0.9904
  226MOL    C4427494   6.066   7.503   4.049 -0.1550 -0.3877 -0.0798
  226MOL    F4527495   5.985   7.518   3.949  0.2163  0.2551 -0.4813
  226MOL    F4627496   6.183   7.538   4.002  0.1256 -0.1153 -0.0369
  226MOL    C4727497   6.077   7.350   4.073 -0.4492 -0.4634  0.3638
  226MOL    H4827498   6.124   7.302   3.987 -0.8852 -0.5266  0.1610
  226MOL    H4927499   5.977   7.306   4.076  0.4510 -2.4858  2.1078
  226MOL    C5027500   6.178   7.293   4.181 -0.3103 -0.0684  0.3574
  226MOL    F5127501   6.296   7.354   4.179 -0.2450  0.2842 -0.2189
  226MOL    F5227502   6.130   7.315   4.299 -0.1405 -0.0446 -0.6807
  226MOL    C5327503   6.192   7.136   4.177 -0.0177 -0.0571  0.0653
  226MOL    H5427504   6.096   7.091   4.202 -0.9019  0.4524 -2.2801
  226MOL    H5527505   6.269   7.110   4.250  0.8803  3.1964  0.3921
  226MOL    C5627506   6.230   7.063   4.039  0.0409  0.4028 -0.3351
  226MOL    F5727507   6.129   7.064   3.949  0.3672 -0.4579 -0.3357
  226MOL    F5827508   6.333   7.140   3.991  0.4952 -0.0564  0.2337
  226MOL    C5927509   6.285   6.917   4.067  0.0308 -0.1745 -0.5457
  226MOL    H6027510   6.380   6.919   4.119 -0.5425 -0.7083  0.5305
  226MOL    H6127511   6.311   6.877   3.969 -1.0084 -1.4716 -0.3029
  226MOL    C6227512   6.190   6.823   4.144 -0.1356  0.0842  0.8567
  226MOL    F6327513   6.261   6.710   4.158 -0.0936  0.5821  0.6456
  226MOL    F6427514   6.151   6.864   4.264  0.0981  0.0908 -0.5768
  226MOL    C6527515   6.057   6.810   4.060 -0.9303  0.4034  0.1698
  226MOL    H6627516   6.082   6.781   3.958 -0.2582 -0.2580  0.5197
  226MOL    H6727517   5.998   6.902   4.056  0.0520  1.1137  1.3729
  226MOL    C6827518   5.963   6.707   4.132  0.2181  0.4203  0.4360
  226MOL    F6927519   5.925   6.752   4.255  0.7617  0.0794 -0.3971
  226MOL    F7027520   5.853   6.687   4.065  0.1030 -0.1907 -0.3350
  226MOL    C7127521   6.013   6.560   4.138  0.2819  0.0545 -0.5078
  226MOL    H7227522   5.926   6.519   4.191 -0.9875 -0.8699 -3.1882
  226MOL    H7327523   6.092   6.550   4.212 -0.7821  2.3801  0.9893
  226MOL    C7427524   6.060   6.498   4.001 -0.3523 -0.8387  0.7159
  226MOL    F7527525   5.959   6.505   3.911  0.1500 -0.1502 -0.2408
  226MOL    F7627526   6.168   6.560   3.948 -0.5884  0.2654 -0.2690
  226MOL    C7727527   6.109   6.356   4.014  0.3864 -0.0266 -0.0659
  226MOL    H7827528   6.185   6.339   4.090 -0.4035 -0.2331  0.6847
  226MOL    H7927529   6.161   6.336   3.920 -1.0049 -0.5660 -0.7335
  226MOL    C8027530   6.000   6.238   4.035  0.8237 -0.4187 -0.0942
  226MOL    F8127531   5.946   6.249   4.158  0.2265 -0.9304 -0.1090
  226MOL    F8227532   5.911   6.235   3.937  0.2188 -0.2666 -0.8430
  226MOL    C8327533   6.074   6.105   4.028  0.2507  0.1983 -0.2792
  226MOL    H8427534   6.163   6.113   4.090  0.4170 -0.0634 -0.4831
  226MOL    H8527535   6.115   6.095   3.928 -2.2009 -2.5930 -1.0746
  226MOL    C8627536   6.008   5.970   4.070 -0.6950  0.5454  0.0259
  226MOL    F8727537   5.924   5.946   3.970  0.6008 -0.4547  0.2028
  226MOL    F8827538   6.100   5.875   4.071  0.8184 -0.3855  0.0855
  226MOL    C8927539   5.929   5.969   4.209 -0.4501  0.3371 -0.3856
  226MOL    H9027540   5.857   6.050   4.195 -0.8752 -0.1302 -0.8861
  226MOL    H9127541   5.990   5.995   4.297 -3.1729  0.5106  1.5131
  226MOL    C9227542   5.851   5.832   4.232 -0.4727  0.3978 -0.5410
  226MOL    F9327543   5.787   5.797   4.120  0.3541  0.2700  0.3306
  226MOL    F9427544   5.953   5.745   4.247 -0.0887  0.4832 -0.0019
  226MOL    C9527545   5.757   5.829   4.351 -0.3656  0.6963 -0.0847
  226MOL    H9627546   5.824   5.819   4.437 -1.0740 -1.2968  0.2505
  226MOL    H9727547   5.698   5.737   4.353 -0.4502  0.7628  0.5852
  226MOL    C9827548   5.655   5.938   4.385  0.0622 -0.3336 -0.1315
  226MOL    F9927549   5.598   5.896   4.499  0.0586  0.2897 -0.1906
  226MOL   F10027550   5.714   6.053   4.412  0.3399 -0.0081  0.5628
  226MOL   C10127551   5.545   5.951   4.280  0.1817  0.1870  0.1473
  226MOL   H10227552   5.502   5.851   4.268 -0.5559  0.4380  0.6930
  226MOL   H10327553   5.586   5.971   4.181  0.1839 -0.3644  0.0346
  226MOL   C10427554   5.423   6.047   4.322 -0.8071  0.4369 -0.5204
  226MOL   F10527555   5.345   6.056   4.218  0.1115 -0.1528 -0.1765
  226MOL   F10627556   5.357   5.994   4.426  0.4549 -0.4073  0.1168
  226MOL   C10727557   5.458   6.192   4.371 -0.7907  0.8173 -0.0644
  226MOL   H10827558   5.523   6.237   4.295 -0.2953  1.1676  0.5643
  226MOL   H10927559   5.509   6.200   4.467 -2.2975 -1.5090  0.9595
  226MOL   C11027560   5.331   6.276   4.388 -0.0045  0.8625 -0.2247
  226MOL   F11127561   5.277   6.281   4.269 -0.5351 -0.4011 -0.6154
  226MOL   F11227562   5.243   6.216   4.467 -0.2123 -0.0445 -0.2364
  226MOL   C11327563   5.361   6.414   4.451  0.0145  0.2278 -0.2220
  226MOL   H11427564   5.410   6.396   4.547  2.4830  0.7333 -1.3657
  226MOL   H11527565   5.264   6.461   4.472 -0.3386  0.8059 -2.9839
  226MOL   C11627566   5.449   6.510   4.377 -0.3118  0.3588 -0.1904
  226MOL   F11727567   5.571   6.469   4.345  0.0352  0.3570 -0.6556
  226MOL   F11827568   5.393   6.540   4.270  0.6172  0.1516  0.2824
  226MOL   C11927569   5.476   6.642   4.456  0.3106  0.5429 -0.0895
  226MOL   H12027570   5.516   6.617   4.555  0.7068 -0.2907 -0.4619
  226MOL   H12127571   5.382   6.695   4.470  1.0606  0.8256  4.7267
  226MOL   H12227572   5.543   6.713   4.407  1.8548 -0.4633  0.5417
  227MOL     C127573   1.425   6.064   3.289  0.1036 -0.1642 -0.1713
  227MOL     F227574   1.428   6.175   3.213 -0.0560 -0.4886  0.9301
  227MOL     F327575   1.452   5.958   3.204 -0.6619  0.1101 -0.0830
  227MOL     C427576   1.281   6.047   3.336  0.1158  0.5086 -0.5399
  227MOL     H527577   1.220   6.021   3.250  1.3619  1.2556 -1.6689
  227MOL     H627578   1.249   6.144   3.376  1.7027  0.8792 -0.1149
  227MOL     H727579   1.504   6.069   3.364 -0.2027  2.7347  0.0372
  227MOL     C827580   1.259   5.932   3.440 -0.2294 -0.0710  0.3457
  227MOL     F927581   1.128   5.944   3.467 -0.3363 -0.2051  0.3373
  227MOL    F1027582   1.273   5.811   3.395  0.4386 -0.1488 -0.0460
  227MOL    C1127583   1.350   5.934   3.567  0.3359  0.2707 -0.3133
  227MOL    H1227584   1.450   5.899   3.539  0.7975 -1.2830  3.0704
  227MOL    H1327585   1.327   5.851   3.633  1.9698 -0.8447 -1.1006
  227MOL    C1427586   1.338   6.059   3.654  0.0937 -0.2784 -0.5970
  227MOL    F1527587   1.398   6.166   3.603 -0.3908  0.1169 -0.1139
  227MOL    F1627588   1.210   6.092   3.670 -0.1198 -0.4688  0.4994
  227MOL    C1727589   1.409   6.042   3.789  1.3279 -0.0795 -0.1229
  227MOL    H1827590   1.424   6.134   3.845 -0.8412  0.7759 -0.8806
  227MOL    H1927591   1.510   6.007   3.767  1.4892  0.0701  0.3671
  227MOL    C2027592   1.329   5.955   3.888 -0.2948 -0.3270  0.2357
  227MOL    F2127593   1.212   6.016   3.907  0.0540  0.1603 -0.3849
  227MOL    F2227594   1.299   5.832   3.846  0.1588  0.0689  0.4362
  227MOL    C2327595   1.398   5.941   4.022  0.7888 -0.6183  0.1032
  227MOL    H2427596   1.398   6.044   4.057 -1.3891 -0.5070 -0.1303
  227MOL    H2527597   1.501   5.910   4.007  1.7112  2.0562  0.7186
  227MOL    C2627598   1.331   5.854   4.126  0.3808  0.3315  0.0547
  227MOL    F2727599   1.342   5.732   4.074  0.1456 -0.3338 -0.1788
  227MOL    F2827600   1.398   5.849   4.241 -0.3126 -0.2090  0.0565
  227MOL    C2927601   1.175   5.868   4.157 -0.1824 -0.2963 -0.6330
  227MOL    H3027602   1.121   5.848   4.064  1.0131  0.4142 -1.4925
  227MOL    H3127603   1.177   5.972   4.189  0.5462 -0.5829  0.2725
  227MOL    C3227604   1.113   5.786   4.270  0.3896 -0.2413  1.3544
  227MOL    F3327605   1.209   5.775   4.361  0.1016  0.3673  0.2745
  227MOL    F3427606   0.999   5.842   4.315  0.0649  0.0508  0.0440
  227MOL    C3527607   1.083   5.637   4.225 -0.2167  1.1026  0.0366
  227MOL    H3627608   1.174   5.605   4.175 -0.9987  0.2915 -0.8754
  227MOL    H3727609   1.005   5.634   4.149 -0.7132  1.6833  0.5206
  227MOL    C3827610   1.039   5.538   4.338 -1.2966  1.0443  0.8798
  227MOL    F3927611   1.035   5.419   4.282 -0.1864 -0.7579  0.1927
  227MOL    F4027612   1.147   5.529   4.418  0.1151  0.1459  0.3158
  227MOL    C4127613   0.908   5.575   4.421 -0.5386  0.1414 -0.5547
  227MOL    H4227614   0.819   5.578   4.359 -1.2278 -0.3470  0.3966
  227MOL    H4327615   0.914   5.676   4.461  1.0277  0.2955 -1.1475
  227MOL    C4427616   0.853   5.479   4.534  0.4826 -0.7858 -0.0473
  227MOL    F4527617   0.726   5.527   4.564 -0.2149  0.2417 -0.6514
  227MOL    F4627618   0.838   5.363   4.484 -0.0744  0.5806  0.1358
  227MOL    C4727619   0.947   5.472   4.651  0.0785 -0.2846 -0.5542
  227MOL    H4827620   0.994   5.567   4.676  0.6644 -0.0903 -2.3547
  227MOL    H4927621   1.030   5.405   4.625 -0.6499 -1.2011 -0.5379
  227MOL    C5027622   0.893   5.410   4.781 -0.4774  0.0958  0.1919
  227MOL    F5127623   0.863   5.282   4.768 -0.1734 -0.1887  0.4038
  227MOL    F5227624   0.994   5.414   4.864  0.0385 -0.4345  0.0121
  227MOL    C5327625   0.774   5.473   4.848  0.8198 -0.6692 -0.1824
  227MOL    H5427626   0.752   5.428   4.944  0.8099  0.4109  0.3321
  227MOL    H5527627   0.683   5.451   4.793  1.7370 -0.0877 -1.9911
  227MOL    C5627628   0.799   5.623   4.881  0.2849  0.3493  0.8471
  227MOL    F5727629   0.810   5.696   4.772 -0.5602  0.2555  0.0882
  227MOL    F5827630   0.688   5.664   4.948 -0.0961  0.0228 -0.3203
  227MOL    C5927631   0.919   5.651   4.981 -0.3469 -0.2175 -0.1443
  227MOL    H6027632   1.017   5.634   4.936 -0.6722 -2.1670 -0.1476
  227MOL    H6127633   0.921   5.574   5.058  1.9065  0.3610  0.4064
  227MOL    C6227634   0.910   5.786   5.055  0.1880  0.6973 -0.5420
  227MOL    F6327635   0.805   5.771   5.145  0.5631  0.0530 -0.0666
  227MOL    F6427636   1.024   5.802   5.129 -0.2394  0.0644  0.4984
  227MOL    C6527637   0.891   5.907   4.957 -0.0794  0.2765 -0.6313
  227MOL    H6627638   0.791   5.899   4.913 -0.2865  0.0545 -0.1253
  227MOL    H6727639   0.969   5.900   4.882  1.5484  0.5480  1.0043
  227MOL    C6827640   0.899   6.051   5.031 -0.6287 -0.0161  0.1258
  227MOL    F6927641   1.019   6.064   5.070  0.1819 -0.2888 -0.0277
  227MOL    F7027642   0.873   6.140   4.939 -0.0115 -0.2462  0.2712
  227MOL    C7127643   0.814   6.083   5.160  0.3874  0.1195 -0.1904
  227MOL    H7227644   0.845   6.178   5.204  0.9984 -0.1275 -0.0877
  227MOL    H7327645   0.858   6.012   5.230 -0.8965 -1.1712 -0.6651
  227MOL    C7427646   0.655   6.083   5.156 -0.8948  0.0343  0.4737
  227MOL    F7527647   0.627   6.210   5.124 -0.7824 -0.5084 -0.3394
  227MOL    F7627648   0.608   6.001   5.064  0.0837  0.4551  0.4063
  227MOL    C7727649   0.602   6.045   5.296 -0.8793  0.3402  0.7891
  227MOL    H7827650   0.660   6.109   5.364 -0.2955  1.3676 -0.6422
  227MOL    H7927651   0.622   5.941   5.321 -1.0475 -0.3842 -2.0021
  227MOL    C8027652   0.450   6.076   5.309  0.8098 -0.8346 -0.5013
  227MOL    F8127653   0.431   6.212   5.297  0.0920  0.4386 -0.2491
  227MOL    F8227654   0.382   6.014   5.223 -0.3965 -0.1873  0.1907
  227MOL    C8327655   0.391   6.038   5.448 -0.1642  0.0070 -0.3999
  227MOL    H8427656   0.449   6.091   5.524 -1.6002  0.6472  0.2743
  227MOL    H8527657   0.428   5.939   5.472 -0.0176  0.3920  1.0287
  227MOL    C8627658   0.241   6.053   5.473 -0.3610 -0.0607 -0.4575
  227MOL    F8727659   0.211   6.179   5.455 -0.3888  0.1677 -0.9390
  227MOL    F8827660   0.164   5.990   5.388  0.1558  0.3406  0.3032
  227MOL    C8927661   0.197   6.010   5.619  0.1397 -0.5155  0.4038
  227MOL    H9027662   0.246   6.063   5.701  1.5490 -1.1576  0.0020
  227MOL    H9127663   0.229   5.906   5.621  1.8388  0.0070  1.4206
  227MOL    C9227664   0.041   6.008   5.649 -0.0807 -0.3966  0.0874
  227MOL    F9327665   8.321   5.940   5.561 -0.4460 -0.8694 -0.3592
  227MOL    F9427666   0.026   5.938   5.760 -0.0416 -0.4194  0.0513
  227MOL    C9527667   8.323   6.151   5.667  0.3365  0.6796 -0.0163
  227MOL    H9627668   8.331   6.204   5.573 -1.2224  0.3226 -0.3606
  227MOL    H9727669   0.044   6.212   5.723  2.0360 -0.2563 -1.0892
  227MOL    C9827670   8.182   6.147   5.732 -0.5635  0.3097 -0.0245
  227MOL    F9927671   8.095   6.079   5.650 -0.0649 -0.7736  0.3392
  227MOL   F10027672   8.175   6.085   5.851 -0.7735 -0.5553 -0.2130
  227MOL   C10127673   8.115   6.288   5.732 -0.1995 -0.6497 -0.6257
  227MOL   H10227674   8.008   6.285   5.751  0.1164  2.3542  2.0332
  227MOL   H10327675   8.123   6.330   5.631  1.2747  1.7155  0.4349
  227MOL   C10427676   8.167   6.403   5.824  0.2432  0.7014 -0.0135
  227MOL   F10527677   8.127   6.367   5.950 -0.2420  0.1609  0.4727
  227MOL   F10627678   8.304   6.400   5.817 -0.1845 -0.0481 -0.0675
  227MOL   C10727679   8.120   6.548   5.779 -0.2858 -0.2000  0.7282
  227MOL   H10827680   8.159   6.564   5.678  1.9838 -0.3978  1.5411
  227MOL   H10927681   8.166   6.628   5.837 -2.2633 -0.1712  2.2943
  227MOL   C11027682   7.969   6.573   5.771 -0.0120  0.5883 -0.0283
  227MOL   F11127683   7.899   6.492   5.704  0.4927 -0.4018  0.2413
  227MOL   F11227684   7.928   6.560   5.895  0.6283  0.5442  0.2692
  227MOL   C11327685   7.936   6.712   5.716  0.5039 -0.2359 -0.2235
  227MOL   H11427686   7.979   6.722   5.616  0.5648  0.7222 -0.1057
  227MOL   H11527687   7.980   6.787   5.781 -0.8919  0.4072  0.0007
  227MOL   C11627688   7.785   6.738   5.714  0.3430 -0.2488  0.8878
  227MOL   F11727689   7.720   6.656   5.624 -0.5501  0.0994  0.1057
  227MOL   F11827690   7.735   6.708   5.830  1.0084 -0.4458  0.1033
  227MOL   C11927691   7.750   6.882   5.679  0.8779 -0.4080  0.8591
  227MOL   H12027692   7.814   6.949   5.736  0.3624 -0.0156  0.9797
  227MOL   H12127693   7.650   6.909   5.713  0.5322  2.5850 -2.2880
  227MOL   H12227694   7.755   6.913   5.574  1.6640  2.4551  1.6941
  228MOL     C127695   6.891   0.941   8.076 -0.9075 -0.4211  0.6994
  228MOL     F227696   6.778   1.004   8.116  0.3717 -0.1140 -0.0585
  228MOL     F327697   6.931   0.969   7.952  0.2704  0.3065 -0.2529
  228MOL     C427698   6.873   0.788   8.099  0.2383 -0.0998 -0.1995
  228MOL     H527699   6.802   0.754   8.023 -0.2867 -0.5982  0.5105
  228MOL     H627700   6.820   0.779   8.194 -0.7690  4.0681 -0.2563
  228MOL     H727701   6.971   0.961   8.148  0.0984 -1.3866 -0.1343
  228MOL     C827702   6.999   0.704   8.101 -0.3810  0.5255 -0.2396
  228MOL     F927703   7.060   0.748   8.207  0.1921 -0.8434  0.2226
  228MOL    F1027704   6.959   0.578   8.119  0.5425  0.2206  0.4412
  228MOL    C1127705   7.085   0.705   7.977 -0.7238 -0.5978  0.4540
  228MOL    H1227706   7.118   0.808   7.987 -1.0390 -0.6536  2.2998
  228MOL    H1327707   7.041   0.685   7.879 -1.8082 -1.4564  1.0923
  228MOL    C1427708   7.215   0.622   7.990  0.4571 -0.5836 -0.1913
  228MOL    F1527709   7.294   0.655   8.087 -0.0500 -0.1842  0.1672
  228MOL    F1627710   7.170   0.495   8.001 -0.3397  0.1977  0.0165
  228MOL    C1727711   7.303   0.631   7.862 -0.1744  0.1722  0.1069
  228MOL    H1827712   7.398   0.583   7.882  0.0278  0.0154 -1.1713
  228MOL    H1927713   7.318   0.737   7.843  0.0275  0.1210 -0.0111
  228MOL    C2027714   7.253   0.572   7.728 -0.0789 -0.1083 -0.2862
  228MOL    F2127715   7.160   0.647   7.670 -0.2220 -0.2208 -0.1073
  228MOL    F2227716   7.353   0.584   7.633 -0.0598  0.4830 -0.4727
  228MOL    C2327717   7.228   0.414   7.732 -0.2753  0.6000  0.4958
  228MOL    H2427718   7.153   0.387   7.806 -1.2558 -1.9155 -1.3137
  228MOL    H2527719   7.325   0.378   7.766 -1.6608 -1.1779  2.6891
  228MOL    C2627720   7.171   0.351   7.605 -0.4079 -0.6278  0.1712
  228MOL    F2727721   7.069   0.428   7.571 -0.5736  0.4667  0.0264
  228MOL    F2827722   7.263   0.366   7.505 -0.1245 -0.2113  0.6718
  228MOL    C2927723   7.142   0.200   7.626  0.0938 -0.8238  0.0620
  228MOL    H3027724   7.061   0.187   7.698  0.5910  1.0345  0.9979
  228MOL    H3127725   7.229   0.160   7.678 -0.1036  0.2361  1.2215
  228MOL    C3227726   7.134   0.114   7.497  0.4486 -0.1856  0.9775
  228MOL    F3327727   7.255   0.119   7.457  0.4553  0.0818  0.1621
  228MOL    F3427728   7.113   8.334   7.529 -0.3344 -0.0166 -0.2222
  228MOL    C3527729   7.039   0.145   7.380 -0.1884 -0.4837  0.2828
  228MOL    H3627730   7.075   0.084   7.298 -0.3269 -0.0037 -0.1348
  228MOL    H3727731   7.055   0.247   7.346  0.7380 -0.4028  0.9409
  228MOL    C3827732   6.891   0.107   7.414  0.6313  0.2890 -0.0773
  228MOL    F3927733   6.884   8.327   7.392 -0.2194 -0.2687 -0.0615
  228MOL    F4027734   6.856   0.140   7.538  0.1255 -0.1187  0.3712
  228MOL    C4127735   6.788   0.178   7.321  0.6221  0.4434 -0.2205
  228MOL    H4227736   6.817   0.166   7.217  1.0707 -0.6063  0.0159
  228MOL    H4327737   6.801   0.283   7.347 -0.4857  0.5781 -0.2028
  228MOL    C4427738   6.638   0.143   7.345 -0.4604  0.5867  0.3422
  228MOL    F4527739   6.606   0.020   7.329  0.2632  0.0394 -0.0406
  228MOL    F4627740   6.615   0.180   7.471  0.1802  0.0734  0.5494
  228MOL    C4727741   6.544   0.223   7.258 -0.5592  0.2044 -0.1451
  228MOL    H4827742   6.564   0.193   7.155  0.2779 -0.9004  0.3191
  228MOL    H4927743   6.571   0.328   7.255 -2.0299  0.5460 -2.1421
  228MOL    C5027744   6.394   0.215   7.275  0.2109  0.1381 -0.0943
  228MOL    F5127745   6.362   0.082   7.291  0.7344  0.0591 -0.0643
  228MOL    F5227746   6.362   0.278   7.381 -0.0027 -0.4448  0.1944
  228MOL    C5327747   6.322   0.273   7.151 -0.3254 -0.0146  0.5192
  228MOL    H5427748   6.339   0.208   7.066  0.4814  0.4848  0.2935
  228MOL    H5527749   6.380   0.356   7.112 -0.3696 -0.3720 -0.3063
  228MOL    C5627750   6.179   0.309   7.176  0.1815 -0.3873 -0.2115
  228MOL    F5727751   6.165   0.428   7.230 -0.1383 -0.5724 -0.0580
  228MOL    F5827752   6.125   0.310   7.053  0.4401  0.0884 -0.0641
  228MOL    C5927753   6.090   0.211   7.256  0.1490 -0.4151  0.3159
  228MOL    H6027754   6.125   0.217   7.359 -1.0556  1.4091  0.6523
  228MOL    H6127755   6.106   0.115   7.207 -0.6300  0.2410 -1.2852
  228MOL    C6227756   5.941   0.253   7.254 -0.0290 -0.0308  0.5843
  228MOL    F6327757   5.922   0.381   7.301 -0.8099 -0.1508 -0.1817
  228MOL    F6427758   5.892   0.260   7.133  0.0056  0.0464  0.1750
  228MOL    C6527759   5.852   0.159   7.337  0.2098 -0.3527  0.2249
  228MOL    H6627760   5.759   0.209   7.362  0.1314 -0.5879  0.4030
  228MOL    H6727761   5.897   0.137   7.434  1.6425  0.5369 -0.2197
  228MOL    C6827762   5.805   0.027   7.273  0.9497 -0.7539  0.0962
  228MOL    F6927763   5.731   0.060   7.167 -0.5079  0.5428  0.4650
  228MOL    F7027764   5.911   8.307   7.230  0.4763  0.3485  0.0392
  228MOL    C7127765   5.727   8.281   7.369 -0.0311 -1.0109 -0.4168
  228MOL    H7227766   5.653   8.335   7.427 -1.5258 -2.0502 -1.2788
  228MOL    H7327767   5.794   8.259   7.451  0.2511  2.5530  0.3638
  228MOL    C7427768   5.673   8.146   7.316 -0.3121  0.0289 -0.8004
  228MOL    F7527769   5.765   8.085   7.244 -0.1562  0.1184  0.4313
  228MOL    F7627770   5.637   8.068   7.421 -0.5541 -0.6610  0.0091
  228MOL    C7727771   5.546   8.158   7.227 -0.5437  0.2974 -0.3666
  228MOL    H7827772   5.511   8.056   7.213  0.6784 -0.2287  0.3423
  228MOL    H7927773   5.575   8.194   7.128  1.1594 -2.1371 -0.8023
  228MOL    C8027774   5.428   8.257   7.259  0.4437 -0.1755 -0.1297
  228MOL    F8127775   5.397   8.248   7.384  0.3824 -0.1771 -0.3035
  228MOL    F8227776   5.455   0.029   7.243 -0.1694  0.0151 -0.1821
  228MOL    C8327777   5.306   8.218   7.185  0.0593 -0.0304 -0.3025
  228MOL    H8427778   5.299   8.114   7.215  0.2333  0.6702  2.2170
  228MOL    H8527779   5.330   8.220   7.078 -1.1759 -0.2724 -0.5929
  228MOL    C8627780   5.169   8.293   7.211 -0.5568  0.4998 -0.7052
  228MOL    F8727781   5.070   8.210   7.161  0.4056  0.3213  0.0382
  228MOL    F8827782   5.141   8.297   7.344 -0.5558  0.1115  0.2863
  228MOL    C8927783   5.166   0.073   7.134  0.0773 -0.4697  0.0105
  228MOL    H9027784   5.168   0.058   7.027 -0.0371  1.5427 -0.2905
  228MOL    H9127785   5.261   0.121   7.156  0.0781 -0.9112  1.0075
  228MOL    C9227786   5.050   0.167   7.163 -0.8594 -0.4580 -0.3364
  228MOL    F9327787   5.059   0.197   7.289  0.8057  0.1230 -0.5675
  228MOL    F9427788   5.072   0.278   7.087 -0.4270 -0.1052  0.3187
  228MOL    C9527789   4.905   0.113   7.149  0.1294  0.0846 -0.6726
  228MOL    H9627790   4.874   0.047   7.230  1.9919  0.8901  0.7191
  228MOL    H9727791   4.900   0.047   7.062 -1.5040  0.8423 -1.1669
  228MOL    C9827792   4.794   0.211   7.123  0.0976  0.3596 -0.3279
  228MOL    F9927793   4.680   0.152   7.162 -0.4052 -0.0223 -0.6040
  228MOL   F10027794   4.819   0.307   7.217 -0.5024 -0.3486 -0.0290
  228MOL   C10127795   4.783   0.267   6.980  0.9290  0.0505  0.3928
  228MOL   H10227796   4.797   0.190   6.905 -1.1171  1.2625 -1.2917
  228MOL   H10327797   4.863   0.338   6.960 -1.9803  2.9038 -1.5820
  228MOL   C10427798   4.649   0.343   6.945  0.2826  0.3730  0.8666
  228MOL   F10527799   4.547   0.261   6.981 -0.4360 -0.2887  0.3059
  228MOL   F10627800   4.655   0.453   7.021  0.2446  0.1531  0.2815
  228MOL   C10727801   4.617   0.389   6.794 -0.1775  0.1661 -0.5514
  228MOL   H10827802   4.527   0.451   6.793  0.3027  0.9135  1.2522
  228MOL   H10927803   4.582   0.307   6.731 -3.7880 -0.3309  1.9728
  228MOL   C11027804   4.735   0.470   6.720  0.0778 -0.1358 -0.1407
  228MOL   F11127805   4.841   0.392   6.719  0.5928  0.1612  0.2478
  228MOL   F11227806   4.698   0.490   6.597  0.1808 -0.0012 -0.2563
  228MOL   C11327807   4.775   0.603   6.791 -0.5300 -0.3451  0.6499
  228MOL   H11427808   4.839   0.577   6.876  1.2826 -1.3746 -0.9829
  228MOL   H11527809   4.687   0.638   6.845  0.0467 -1.7806  2.6078
  228MOL   C11627810   4.849   0.707   6.710  0.6127  0.0306  0.2081
  228MOL   F11727811   4.959   0.654   6.657 -0.0140  1.0702  0.3184
  228MOL   F11827812   4.774   0.745   6.604  0.2339  0.4379  0.2393
  228MOL   C11927813   4.896   0.829   6.799 -0.5996  0.0876  0.0775
  228MOL   H12027814   4.979   0.881   6.750 -0.4863  0.3506  0.5419
  228MOL   H12127815   4.943   0.799   6.893  2.6774  4.4096  0.0045
  228MOL   H12227816   4.820   0.905   6.816 -0.9552 -0.1302 -0.5410
  229MOL     C127817   7.130   2.240   2.443 -0.4810 -0.4522 -0.1495
  229MOL     F227818   7.068   2.119   2.468 -0.0762  0.2331  0.6992
  229MOL     F327819   7.110   2.321   2.548 -0.2418 -0.0648  0.4255
  229MOL     C427820   7.082   2.299   2.311  0.2720 -0.2221 -0.5612
  229MOL     H527821   6.980   2.331   2.330  0.1665 -1.2679  0.6423
  229MOL     H627822   7.075   2.215   2.242 -2.8816  1.3265 -2.2324
  229MOL     H727823   7.235   2.217   2.427 -0.0495  0.5670  1.0613
  229MOL     C827824   7.179   2.415   2.269 -0.0045  0.8153  0.7061
  229MOL     F927825   7.182   2.510   2.366  0.2745  0.2386 -0.0787
  229MOL    F1027826   7.299   2.355   2.268 -0.3268 -0.1857 -0.0529
  229MOL    C1127827   7.147   2.485   2.134 -0.1137 -0.4230 -0.1860
  229MOL    H1227828   7.208   2.576   2.134 -1.4168  0.4789  1.1571
  229MOL    H1327829   7.046   2.520   2.152  0.9456  2.1705  1.0370
  229MOL    C1427830   7.157   2.401   2.005  0.0069  0.1957 -0.3688
  229MOL    F1527831   7.281   2.366   1.994  0.1813  0.0857  0.4191
  229MOL    F1627832   7.079   2.295   2.008 -0.1181 -0.0137 -0.1681
  229MOL    C1727833   7.117   2.480   1.875  0.0817  0.3598 -0.6561
  229MOL    H1827834   7.010   2.465   1.862  0.1984 -0.9031 -0.1952
  229MOL    H1927835   7.173   2.423   1.801  1.2087  1.4386 -0.6524
  229MOL    C2027836   7.146   2.636   1.868 -0.8282 -0.5276  0.3703
  229MOL    F2127837   7.088   2.704   1.972  0.5685  0.3778  0.4931
  229MOL    F2227838   7.276   2.643   1.889  0.2068 -0.7458  0.2437
  229MOL    C2327839   7.087   2.693   1.733 -0.2206 -0.3075  0.2204
  229MOL    H2427840   6.985   2.659   1.712 -0.5199 -0.1965  1.4438
  229MOL    H2527841   7.152   2.661   1.652  0.6110  1.7543  0.0523
  229MOL    C2627842   7.098   2.849   1.728  0.3204  0.8278 -0.3745
  229MOL    F2727843   7.228   2.882   1.740  0.5448  0.4281 -0.3689
  229MOL    F2827844   7.072   2.880   1.600 -0.2911 -0.7002  0.0474
  229MOL    C2927845   7.012   2.935   1.827 -0.0069 -0.0872  0.0170
  229MOL    H3027846   7.035   3.037   1.798  1.0804  0.4358  2.6297
  229MOL    H3127847   7.064   2.926   1.922  0.1558 -1.2331 -0.1633
  229MOL    C3227848   6.867   2.908   1.831  1.0651 -0.4227 -0.5174
  229MOL    F3327849   6.812   2.913   1.712  0.0912  0.1327  0.0933
  229MOL    F3427850   6.837   2.784   1.861 -0.0231 -0.4463  0.4002
  229MOL    C3527851   6.784   2.992   1.932 -0.4053 -0.0638  0.2320
  229MOL    H3627852   6.801   2.945   2.028 -0.6158 -1.0688 -0.2208
  229MOL    H3727853   6.682   2.974   1.898  0.7285 -2.3816 -2.0695
  229MOL    C3827854   6.803   3.146   1.935  0.1861 -0.7373  0.9668
  229MOL    F3927855   6.930   3.196   1.968  0.0208 -0.3421 -0.1807
  229MOL    F4027856   6.778   3.189   1.813 -1.2307 -0.1352 -0.0096
  229MOL    C4127857   6.708   3.236   2.024 -0.2038  0.1886 -0.2802
  229MOL    H4227858   6.605   3.245   1.990 -0.4111 -0.0645  0.2678
  229MOL    H4327859   6.736   3.341   2.026 -1.1712  0.5187 -2.6133
  229MOL    C4427860   6.704   3.192   2.166  0.5375  0.4957 -0.1018
  229MOL    F4527861   6.666   3.067   2.162  0.2242  0.0190 -0.3525
  229MOL    F4627862   6.822   3.198   2.231 -0.1746 -0.1349  0.1076
  229MOL    C4727863   6.596   3.273   2.243 -0.2699  0.4955  0.8313
  229MOL    H4827864   6.499   3.232   2.214  0.6863 -1.1768 -0.0883
  229MOL    H4927865   6.596   3.376   2.207  2.6508  0.2404 -0.0944
  229MOL    C5027866   6.595   3.269   2.400 -0.0553 -0.0669 -0.2314
  229MOL    F5127867   6.616   3.140   2.434  0.2079 -0.3154 -0.3643
  229MOL    F5227868   6.691   3.350   2.444  0.3565  0.7387 -0.2703
  229MOL    C5327869   6.462   3.313   2.459 -0.2623 -0.6137 -0.2448
  229MOL    H5427870   6.466   3.317   2.568  1.2946 -1.5771 -0.2416
  229MOL    H5527871   6.383   3.240   2.442  0.2692 -1.6982  1.6695
  229MOL    C5627872   6.411   3.455   2.426  0.7801  0.0092  0.2324
  229MOL    F5727873   6.373   3.456   2.298  0.0586 -0.5447  0.0339
  229MOL    F5827874   6.304   3.483   2.504  0.0494  0.3096 -0.0731
  229MOL    C5927875   6.507   3.571   2.456 -0.5519 -1.2223 -0.2813
  229MOL    H6027876   6.453   3.664   2.436 -0.9355 -1.0033  1.6523
  229MOL    H6127877   6.593   3.576   2.391 -0.1506  0.2852  0.3518
  229MOL    C6227878   6.548   3.601   2.600 -0.8079 -0.5509 -0.1213
  229MOL    F6327879   6.437   3.637   2.667  0.3642  0.5858 -0.0810
  229MOL    F6427880   6.594   3.486   2.659  0.1959  0.1292  0.0905
  229MOL    C6527881   6.648   3.721   2.627 -0.3449  0.2246  0.0031
  229MOL    H6627882   6.668   3.721   2.734  0.1143  0.0055 -0.0781
  229MOL    H6727883   6.599   3.816   2.608  0.9698  1.2981  1.8157
  229MOL    C6827884   6.775   3.719   2.541  0.3493 -0.1031 -0.4043
  229MOL    F6927885   6.827   3.600   2.554  0.3943  0.4203 -0.3220
  229MOL    F7027886   6.743   3.744   2.414  0.1212  0.2864  0.3259
  229MOL    C7127887   6.885   3.819   2.581 -0.4176  0.3155  0.5146
  229MOL    H7227888   6.969   3.806   2.512 -1.9110  1.0273 -1.4778
  229MOL    H7327889   6.920   3.788   2.679  1.5345  1.3231  0.1774
  229MOL    C7427890   6.847   3.968   2.599  0.6227 -0.0302 -0.0833
  229MOL    F7527891   6.768   4.004   2.499  0.3853 -0.2244 -0.3800
  229MOL    F7627892   6.778   3.975   2.711 -0.6146  0.0683 -0.0306
  229MOL    C7727893   6.958   4.071   2.600  0.3262  0.0349 -0.1402
  229MOL    H7827894   6.910   4.163   2.634 -0.8146 -0.8747  0.7407
  229MOL    H7927895   6.991   4.092   2.499 -1.3941  0.2405 -0.6814
  229MOL    C8027896   7.078   4.048   2.687 -0.2831  0.0631 -0.4762
  229MOL    F8127897   7.050   4.021   2.817  0.5056 -0.1224  0.0759
  229MOL    F8227898   7.147   3.954   2.629  0.7552  0.0506  0.3729
  229MOL    C8327899   7.167   4.174   2.693 -0.2234 -0.0939  0.0973
  229MOL    H8427900   7.100   4.246   2.741 -2.7639 -1.6127 -1.0841
  229MOL    H8527901   7.190   4.204   2.591 -1.7881 -1.4734 -0.6794
  229MOL    C8627902   7.295   4.165   2.780 -0.1100 -0.5045  0.7953
  229MOL    F8727903   7.262   4.165   2.905  0.0037 -0.6450 -1.1233
  229MOL    F8827904   7.368   4.059   2.748 -0.3190 -0.0674 -0.1941
  229MOL    C8927905   7.388   4.287   2.757 -0.2509 -0.7637  0.1337
  229MOL    H9027906   7.421   4.288   2.653  2.3813 -0.3533  0.9543
  229MOL    H9127907   7.478   4.287   2.818 -0.9328 -0.0348  1.1642
  229MOL    C9227908   7.320   4.428   2.771  0.1752 -0.3050  0.7253
  229MOL    F9327909   7.239   4.444   2.664 -0.3321  0.3961  0.6589
  229MOL    F9427910   7.255   4.440   2.886 -0.3868  0.2045  0.1184
  229MOL    C9527911   7.409   4.554   2.759 -0.3336  0.3605 -0.0506
  229MOL    H9627912   7.441   4.563   2.655  0.7767 -3.7989 -0.1819
  229MOL    H9727913   7.498   4.535   2.819  1.0735  1.2904 -1.7833
  229MOL    C9827914   7.339   4.687   2.804 -0.4561 -0.1883  0.8786
  229MOL    F9927915   7.306   4.689   2.935 -0.4668 -0.0133 -0.4377
  229MOL   F10027916   7.423   4.789   2.781 -0.7365  0.1900  0.0473
  229MOL   C10127917   7.199   4.718   2.742 -0.0723  0.1202  0.4249
  229MOL   H10227918   7.125   4.643   2.769 -0.6027  0.6684  0.5127
  229MOL   H10327919   7.206   4.710   2.634 -2.0263  0.8506  0.2145
  229MOL   C10427920   7.133   4.854   2.773 -0.7427 -0.5768  0.8186
  229MOL   F10527921   7.132   4.879   2.901 -0.4388  0.2070  0.2017
  229MOL   F10627922   7.204   4.948   2.713  0.5395  0.0851 -0.0609
  229MOL   C10727923   6.992   4.851   2.704  0.1024 -0.1517 -0.0526
  229MOL   H10827924   6.926   4.788   2.764  1.4933  0.2185  1.8932
  229MOL   H10927925   7.000   4.809   2.604  1.0328  0.3183 -0.1782
  229MOL   C11027926   6.923   4.985   2.692 -0.5285 -0.5061  0.1351
  229MOL   F11127927   6.995   5.048   2.607 -0.1498 -0.1408  0.1683
  229MOL   F11227928   6.808   4.939   2.635  0.3424  0.1711  0.3956
  229MOL   C11327929   6.910   5.070   2.826  0.6144 -0.0917 -0.0911
  229MOL   H11427930   7.011   5.106   2.847  1.7287 -1.4425 -2.8069
  229MOL   H11527931   6.882   5.007   2.911  1.4527  1.1399  1.1132
  229MOL   C11627932   6.811   5.190   2.821  0.2745 -0.0308 -0.5713
  229MOL   F11727933   6.849   5.266   2.716  0.6039  0.1388  0.4576
  229MOL   F11827934   6.683   5.156   2.799 -0.2897 -0.0550 -0.0158
  229MOL   C11927935   6.811   5.275   2.948  0.1386 -0.1407 -0.1581
  229MOL   H12027936   6.817   5.213   3.037 -0.3753  1.4614  1.0060
  229MOL   H12127937   6.718   5.332   2.954  0.0299 -0.2161 -0.9957
  229MOL   H12227938   6.893   5.345   2.939  2.1970 -2.3683  0.8416
  230MOL     C127939   5.096   0.251   0.667  0.0614  0.7541 -0.5552
  230MOL     F227940   5.025   0.256   0.560 -0.0146  0.1542  0.2981
  230MOL     F327941   5.225   0.229   0.639 -0.1928  0.2469 -0.0884
  230MOL     C427942   5.029   0.140   0.753 -0.6338  0.2581 -0.2849
  230MOL     H527943   5.004   0.051   0.694 -1.1280  0.2864 -0.1143
  230MOL     H627944   4.935   0.179   0.789 -1.3165 -2.3351  0.8608
  230MOL     H727945   5.093   0.347   0.719  1.8810  0.2552  0.5441
  230MOL     C827946   5.106   0.090   0.876  0.4081 -0.4151  0.4621
  230MOL     F927947   5.207   0.014   0.835  0.1507 -0.3617  0.4544
  230MOL    F1027948   5.162   0.191   0.943  0.3665  0.0657 -1.1339
  230MOL    C1127949   5.010   0.000   0.955 -0.1659  0.2022  0.2097
  230MOL    H1227950   4.993   8.274   0.879  0.2407  1.2769 -0.9645
  230MOL    H1327951   4.919   0.058   0.973  0.3040  1.7554 -2.0970
  230MOL    C1427952   5.061   8.293   1.089 -0.2744 -0.0495 -0.6896
  230MOL    F1527953   5.063   0.046   1.172  0.5714 -0.2075  0.2733
  230MOL    F1627954   4.975   8.205   1.137 -0.3027  0.4561 -0.3003
  230MOL    C1727955   5.204   8.235   1.078 -0.6331  0.2919 -0.2569
  230MOL    H1827956   5.274   8.311   1.042 -0.9730 -0.5744 -2.8232
  230MOL    H1927957   5.203   8.172   0.990 -2.8787  2.7870 -2.1185
  230MOL    C2027958   5.256   8.163   1.208  0.1080 -0.6742  0.6143
  230MOL    F2127959   5.235   8.240   1.313 -0.0296  0.5422  0.2088
  230MOL    F2227960   5.182   8.055   1.205  0.2517  0.3571  0.1638
  230MOL    C2327961   5.406   8.121   1.190  0.7906 -0.0217 -0.1619
  230MOL    H2427962   5.475   8.200   1.162 -1.0047  1.5197 -0.3265
  230MOL    H2527963   5.411   8.046   1.111  3.4226 -1.1984  1.0853
  230MOL    C2627964   5.462   8.053   1.309  0.1466  0.1626 -0.0485
  230MOL    F2727965   5.487   8.156   1.395 -0.1654 -0.0431  0.0917
  230MOL    F2827966   5.380   7.964   1.366 -0.4659  0.7868 -0.1589
  230MOL    C2927967   5.588   7.969   1.279 -0.1451 -0.6218 -0.2545
  230MOL    H3027968   5.570   7.891   1.206 -1.0607  0.2680 -0.9967
  230MOL    H3127969   5.620   7.909   1.365  1.5835  0.9361  0.2267
  230MOL    C3227970   5.709   8.046   1.219 -0.1774 -0.1120 -0.0404
  230MOL    F3327971   5.674   8.102   1.105  0.3076 -0.5691 -0.0213
  230MOL    F3427972   5.771   8.131   1.304  0.2758  0.3589 -0.6891
  230MOL    C3527973   5.818   7.957   1.176 -0.5430  0.7378  0.4593
  230MOL    H3627974   5.763   7.893   1.106 -0.4700  1.6541 -0.4365
  230MOL    H3727975   5.841   7.907   1.270 -1.8570  0.4471  0.6485
  230MOL    C3827976   5.947   8.014   1.108 -0.0053  0.2291 -0.2507
  230MOL    F3927977   5.920   8.079   0.992  0.7691 -0.1756 -0.5687
  230MOL    F4027978   5.996   8.100   1.192  0.7170  0.6364 -0.3686
  230MOL    C4127979   6.048   7.902   1.071 -0.5638  0.0553 -0.0827
  230MOL    H4227980   6.016   7.855   0.978 -0.1132 -0.7861  0.1829
  230MOL    H4327981   6.040   7.817   1.139  2.4597 -0.9819 -0.9561
  230MOL    C4427982   6.205   7.934   1.062 -0.6364  0.0928  0.2606
  230MOL    F4527983   6.247   7.963   1.188 -0.3785  0.0969  0.3877
  230MOL    F4627984   6.273   7.826   1.021  0.1657 -0.4381  0.5174
  230MOL    C4727985   6.237   8.059   0.969 -0.0332  0.0783  0.0529
  230MOL    H4827986   6.343   8.080   0.979  0.1988 -0.4440 -1.2272
  230MOL    H4927987   6.182   8.148   1.000 -0.3210 -0.2976  0.6405
  230MOL    C5027988   6.232   8.024   0.815  0.0997 -0.7542 -0.1584
  230MOL    F5127989   6.320   7.925   0.790  0.0495  0.2200 -0.4343
  230MOL    F5227990   6.117   7.990   0.763  0.5262 -0.1318 -0.0794
  230MOL    C5327991   6.298   8.142   0.738  0.3423 -0.9208 -0.0190
  230MOL    H5427992   6.318   8.119   0.633  1.4091 -0.3094  0.0336
  230MOL    H5527993   6.399   8.164   0.772 -0.4892  1.8068  0.7882
  230MOL    C5627994   6.220   8.272   0.757 -0.1104  1.1081 -0.1704
  230MOL    F5727995   6.095   8.246   0.767  0.0219 -0.2413 -0.4884
  230MOL    F5827996   6.252   8.336   0.870  0.0699  0.9775  0.7187
  230MOL    C5927997   6.235   0.022   0.643 -0.1865  0.4415  0.1754
  230MOL    H6027998   6.172   0.107   0.670 -0.3409  0.3518  0.1013
  230MOL    H6127999   6.193   8.334   0.549  1.5822  1.4431 -1.0510
  230MOL    C6228000   6.378   0.073   0.611  0.1771  0.1668 -0.5846
  230MOL    F6328001   6.444   8.323   0.551  0.2139 -0.2863 -0.4475
  230MOL    F6428002   6.348   0.159   0.522  0.5548 -0.0029  0.5895
  230MOL    C6528003   6.462   0.134   0.734  0.1465 -0.0212  0.6589
  230MOL    H6628004   6.498   0.048   0.790  1.7145  0.6474  0.7009
  230MOL    H6728005   6.388   0.178   0.801 -0.8326 -0.9195  0.1935
  230MOL    C6828006   6.587   0.226   0.708 -0.5646 -0.3342 -0.3773
  230MOL    F6928007   6.642   0.245   0.822 -0.2769  0.2350  0.4612
  230MOL    F7028008   6.671   0.164   0.631  0.2392 -0.1374  0.5369
  230MOL    C7128009   6.535   0.354   0.648  0.4306 -0.3232 -0.2028
  230MOL    H7228010   6.457   0.403   0.706 -0.6992  1.0003 -2.7522
  230MOL    H7328011   6.493   0.321   0.553 -4.1355  2.6643  0.6349
  230MOL    C7428012   6.646   0.456   0.630  0.3934 -0.2029 -0.2117
  230MOL    F7528013   6.672   0.502   0.756  0.2394 -0.0655 -0.0698
  230MOL    F7628014   6.762   0.419   0.575  0.2659  0.0861  0.4710
  230MOL    C7728015   6.605   0.578   0.553  0.4256 -0.7390  0.2175
  230MOL    H7828016   6.677   0.655   0.582  2.1690 -1.6677 -1.4760
  230MOL    H7928017   6.507   0.606   0.591  0.2563  0.8974 -1.3696
  230MOL    C8028018   6.588   0.559   0.405  0.4697  0.3437  0.0270
  230MOL    F8128019   6.696   0.495   0.346  0.3229 -0.2204  0.0255
  230MOL    F8228020   6.476   0.481   0.394 -0.4622 -0.6804 -0.7049
  230MOL    C8328021   6.567   0.692   0.328  0.0420 -0.0267 -0.6882
  230MOL    H8428022   6.654   0.752   0.356  0.0361 -0.4506  0.2648
  230MOL    H8528023   6.475   0.736   0.368 -1.0201 -3.4756  0.8934
  230MOL    C8628024   6.586   0.706   0.176  0.6227 -0.1789 -0.3768
  230MOL    F8728025   6.535   0.827   0.145  0.1487 -0.0002 -0.0626
  230MOL    F8828026   6.715   0.695   0.148 -0.3315  0.0682 -0.3020
  230MOL    C8928027   6.505   0.592   0.104 -0.5558  0.0423  1.1087
  230MOL    H9028028   6.405   0.595   0.147 -1.3168 -1.0465 -0.5355
  230MOL    H9128029   6.552   0.497   0.127  2.1323  0.5235 -1.9946
  230MOL    C9228030   6.499   0.596   8.296  0.3869  0.6221 -0.2023
  230MOL    F9328031   6.626   0.579   8.249  0.0973 -0.8017  0.0213
  230MOL    F9428032   6.433   0.489   8.265  0.5328  0.4396 -0.2197
  230MOL    C9528033   6.437   0.723   8.234 -0.0592  0.3041  0.0713
  230MOL    H9628034   6.503   0.804   8.264 -0.2648  0.7970 -0.7920
  230MOL    H9728035   6.335   0.729   8.271 -0.1104  0.0288 -0.0197
  230MOL    C9828036   6.430   0.734   8.080  0.5579  0.1236  0.3810
  230MOL    F9928037   6.556   0.719   8.033  0.4164  0.3532 -0.0665
  230MOL   F10028038   6.354   0.636   8.019  0.4285 -0.9775  0.1309
  230MOL   C10128039   6.371   0.877   8.045 -0.7356 -0.1570  0.0333
  230MOL   H10228040   6.443   0.958   8.055 -1.8318  0.6173  1.8382
  230MOL   H10328041   6.291   0.906   8.113  0.2355  1.7802  0.3772
  230MOL   C10428042   6.326   0.891   7.899  0.2375  0.1082  0.2079
  230MOL   F10528043   6.431   0.840   7.842 -0.2272 -0.4602 -0.1425
  230MOL   F10628044   6.225   0.811   7.881 -0.3737  0.4833  0.8919
  230MOL   C10728045   6.296   1.037   7.857 -0.4736  0.0477 -0.0006
  230MOL   H10828046   6.282   1.031   7.749 -2.1820  2.1123  0.0709
  230MOL   H10928047   6.388   1.095   7.847 -0.7499  0.5568  0.3708
  230MOL   C11028048   6.183   1.115   7.930  0.0204 -0.1015  0.8847
  230MOL   F11128049   6.056   1.069   7.903  0.2278  0.0593 -0.3632
  230MOL   F11228050   6.193   1.103   8.058 -0.1131 -0.5359 -0.2152
  230MOL   C11328051   6.196   1.267   7.895  0.5684 -0.5407  0.1727
  230MOL   H11428052   6.205   1.266   7.786  0.4330 -1.1176  0.1691
  230MOL   H11528053   6.291   1.311   7.925  1.7854 -1.1757 -2.5939
  230MOL   C11628054   6.087   1.360   7.942  0.2053 -0.0580 -0.0999
  230MOL   F11728055   5.969   1.332   7.891  0.1584  0.1032 -0.3635
  230MOL   F11828056   6.070   1.351   8.076 -0.0897 -0.2597 -0.3256
  230MOL   C11928057   6.108   1.510   7.896 -0.0974 -0.2025  0.0007
  230MOL   H12028058   6.031   1.577   7.935  1.1381  1.4358 -0.3321
  230MOL   H12128059   6.092   1.529   7.790 -1.2303  0.5440  0.3001
  230MOL   H12228060   6.211   1.544   7.908  0.3583 -1.6394  0.2822
  231MOL     C128061   1.171   1.972   2.468  0.4006 -0.0899  0.0336
  231MOL     F228062   1.109   1.856   2.471 -0.1223  0.6437  0.0260
  231MOL     F328063   1.150   2.022   2.591 -0.0050 -0.0325 -0.2568
  231MOL     C428064   1.115   2.058   2.352 -0.1076 -0.4105 -0.1992
  231MOL     H528065   1.152   2.158   2.373 -1.3872  0.5089 -2.2594
  231MOL     H628066   1.007   2.049   2.362 -0.0882  1.1761  1.6660
  231MOL     H728067   1.279   1.961   2.458  0.2732 -1.0433 -0.3703
  231MOL     C828068   1.158   2.004   2.217 -0.3086 -0.0868 -0.1494
  231MOL     F928069   1.294   2.012   2.217  0.1613 -0.3187 -0.3697
  231MOL    F1028070   1.113   1.882   2.193 -0.4972  0.0559  0.1924
  231MOL    C1128071   1.099   2.075   2.097  0.7189 -0.0590 -0.7148
  231MOL    H1228072   0.990   2.072   2.096  0.7101 -0.6919  0.8993
  231MOL    H1328073   1.123   2.023   2.004  1.5108  1.1358 -1.1987
  231MOL    C1428074   1.149   2.222   2.063 -0.0177 -0.4496  0.1670
  231MOL    F1528075   1.116   2.294   2.170  0.0904  0.3501  0.3147
  231MOL    F1628076   1.284   2.212   2.040 -0.8237 -0.0452 -0.0673
  231MOL    C1728077   1.074   2.269   1.937  0.3938 -0.4285 -0.0186
  231MOL    H1828078   0.969   2.247   1.957  0.0641  0.2500 -1.0329
  231MOL    H1928079   1.107   2.209   1.853 -0.2007 -0.3564 -0.3015
  231MOL    C2028080   1.091   2.413   1.886 -0.0457  0.1807  0.3179
  231MOL    F2128081   1.017   2.492   1.966 -0.0353  0.1668 -0.2750
  231MOL    F2228082   1.225   2.437   1.903  0.0065  0.0377  0.3208
  231MOL    C2328083   1.041   2.444   1.743 -0.1558 -0.9822  0.4430
  231MOL    H2428084   1.116   2.410   1.673 -2.5825 -0.6246 -2.4182
  231MOL    H2528085   1.045   2.553   1.743  2.0598 -1.0422  1.4033
  231MOL    C2628086   0.899   2.392   1.714 -0.0943  0.1580 -0.5193
  231MOL    F2728087   0.901   2.259   1.726  0.0552  0.1081  0.2444
  231MOL    F2828088   0.805   2.435   1.800 -0.1706 -0.0607 -0.0238
  231MOL    C2928089   0.849   2.425   1.573 -0.0057  0.4005  0.0288
  231MOL    H3028090   0.906   2.362   1.505 -0.4534  0.4967 -0.4434
  231MOL    H3128091   0.867   2.528   1.542  0.4044  0.7402  1.3482
  231MOL    C3228092   0.701   2.388   1.540 -0.1208  0.7123  0.3753
  231MOL    F3328093   0.683   2.257   1.579  0.0106 -0.3317 -0.4523
  231MOL    F3428094   0.630   2.458   1.628  0.0782 -0.0596  0.2534
  231MOL    C3528095   0.673   2.422   1.395 -0.7746  0.1322 -0.8155
  231MOL    H3628096   0.743   2.370   1.329  0.6248  1.4055 -0.3532
  231MOL    H3728097   0.693   2.529   1.390 -1.2982  0.4274  2.2924
  231MOL    C3828098   0.526   2.397   1.348  0.1813 -0.8141  0.3524
  231MOL    F3928099   0.441   2.466   1.418 -0.3436  0.1719  0.3651
  231MOL    F4028100   0.524   2.462   1.230  0.3015  0.1441  0.2160
  231MOL    C4128101   0.489   2.249   1.331  0.0851 -0.2732 -0.3860
  231MOL    H4228102   0.501   2.192   1.423 -0.7595 -0.7721 -0.5775
  231MOL    H4328103   0.567   2.208   1.268  0.2148 -3.5524  1.7679
  231MOL    C4428104   0.350   2.225   1.273  0.0145 -0.2691  0.1957
  231MOL    F4528105   0.333   2.090   1.268 -0.1339  0.6820  0.4985
  231MOL    F4628106   0.254   2.276   1.351 -0.1790  0.0716 -0.0292
  231MOL    C4728107   0.330   2.280   1.127 -0.6108  0.2424  0.4806
  231MOL    H4828108   0.327   2.389   1.119 -2.8380  0.1673 -0.0722
  231MOL    H4928109   0.231   2.244   1.100 -0.8631 -1.4387  3.4385
  231MOL    C5028110   0.432   2.229   1.015  0.2078 -0.7342  0.0236
  231MOL    F5128111   0.539   2.307   1.015 -0.0418 -0.2254 -0.3922
  231MOL    F5228112   0.471   2.103   1.027 -0.1329  0.0573  0.1224
  231MOL    C5328113   0.358   2.234   0.882  0.6461 -0.0574  0.3485
  231MOL    H5428114   0.262   2.183   0.894  0.6987 -0.2963 -0.2455
  231MOL    H5528115   0.414   2.173   0.811  1.2644 -1.1706  1.7493
  231MOL    C5628116   0.325   2.380   0.822 -0.1474 -0.2225 -0.1704
  231MOL    F5728117   0.248   2.443   0.914 -0.7680  0.0355 -0.0331
  231MOL    F5828118   0.436   2.451   0.815 -0.0704 -0.4161 -0.5706
  231MOL    C5928119   0.239   2.376   0.692 -0.1482  0.4862 -0.5569
  231MOL    H6028120   0.310   2.364   0.610 -0.5666  0.9358 -0.9868
  231MOL    H6128121   0.200   2.477   0.678 -0.8711  0.5947  1.9787
  231MOL    C6228122   0.135   2.263   0.686  0.6789  0.0724  0.3530
  231MOL    F6328123   0.191   2.149   0.654  0.1235 -0.1841 -0.0739
  231MOL    F6428124   0.074   2.256   0.811 -0.6409 -0.4538  0.4547
  231MOL    C6528125   0.029   2.295   0.570 -0.0014 -0.1548 -0.1765
  231MOL    H6628126   0.084   2.297   0.476 -2.3973  2.2408 -1.5885
  231MOL    H6728127   8.343   2.398   0.568  1.7080  0.5254  1.9907
  231MOL    C6828128   8.253   2.199   0.563  0.3775 -0.2645  0.3336
  231MOL    F6928129   8.176   2.231   0.459  0.1318  0.7524 -0.1004
  231MOL    F7028130   8.281   2.075   0.555  0.0443 -0.4290  0.2699
  231MOL    C7128131   8.155   2.213   0.688  0.1963 -0.4281 -0.3754
  231MOL    H7228132   8.202   2.161   0.771  0.9572  0.5415 -0.1876
  231MOL    H7328133   8.065   2.154   0.672 -1.8166  2.2098  0.7827
  231MOL    C7428134   8.122   2.361   0.725 -0.5532 -0.1833 -0.8990
  231MOL    F7528135   8.232   2.427   0.787  0.0850 -0.0431 -0.4469
  231MOL    F7628136   8.075   2.435   0.626 -0.0219  0.3909  0.1232
  231MOL    C7728137   8.006   2.366   0.832 -0.3094 -0.2385 -0.3632
  231MOL    H7828138   8.048   2.323   0.923 -0.6133  2.6179  1.1783
  231MOL    H7928139   7.925   2.305   0.793  1.2304 -0.8970 -2.6743
  231MOL    C8028140   7.951   2.497   0.892 -0.5170  0.8319  0.0262
  231MOL    F8128141   8.043   2.562   0.967  0.1326 -0.6741  0.0068
  231MOL    F8228142   7.922   2.573   0.786 -0.0666  0.0392 -0.1036
  231MOL    C8328143   7.819   2.485   0.974  0.0568 -0.2763  0.3254
  231MOL    H8428144   7.740   2.452   0.907  1.6482 -2.1105 -0.6912
  231MOL    H8528145   7.779   2.584   0.997 -2.4505 -0.9071 -1.1772
  231MOL    C8628146   7.819   2.371   1.086 -0.8699 -0.1044  0.2482
  231MOL    F8728147   7.700   2.370   1.145 -0.2674  0.4451 -0.3508
  231MOL    F8828148   7.822   2.254   1.025 -0.1620 -0.4611  0.7021
  231MOL    C8928149   7.930   2.392   1.192  0.3151 -0.3485 -0.0154
  231MOL    H9028150   8.030   2.378   1.152  0.1458  0.1409 -0.6222
  231MOL    H9128151   7.914   2.309   1.261 -0.6699 -0.1992 -0.0468
  231MOL    C9228152   7.917   2.519   1.287  0.3583  0.8063  0.3523
  231MOL    F9328153   7.921   2.637   1.220 -0.2372  0.1314 -0.2779
  231MOL    F9428154   7.802   2.513   1.348 -0.1310  0.2113 -0.0027
  231MOL    C9528155   8.038   2.514   1.384 -0.2981 -0.6176  0.5580
  231MOL    H9628156   8.136   2.508   1.338 -1.7070 -0.4224 -2.5829
  231MOL    H9728157   8.022   2.429   1.451 -1.2683  0.5318  1.8363
  231MOL    C9828158   8.047   2.634   1.486 -0.5430 -0.1806 -0.7994
  231MOL    F9928159   8.141   2.594   1.568 -0.0274 -0.0732 -0.1877
  231MOL   F10028160   8.095   2.739   1.424 -0.1705  0.1246  0.4966
  231MOL   C10128161   7.911   2.662   1.559 -0.3605  0.1655  0.2363
  231MOL   H10228162   7.879   2.561   1.585  1.5320 -0.9888 -1.6664
  231MOL   H10328163   7.834   2.713   1.502 -0.1272 -0.2290 -0.4381
  231MOL   C10428164   7.929   2.751   1.681  0.3561  0.0688 -0.3964
  231MOL   F10528165   8.020   2.696   1.763  0.0025  0.0744  0.3362
  231MOL   F10628166   7.973   2.867   1.637 -0.4292  0.2115 -0.1221
  231MOL   C10728167   7.791   2.774   1.754 -0.9096  0.0042 -0.3054
  231MOL   H10828168   7.740   2.679   1.772 -1.4462  0.4113  0.3731
  231MOL   H10928169   7.715   2.814   1.687 -1.5994  0.3579  0.6745
  231MOL   C11028170   7.792   2.856   1.884 -0.3142  0.0878 -0.1728
  231MOL   F11128171   7.875   2.794   1.970  0.7007 -0.1399  0.3231
  231MOL   F11228172   7.855   2.976   1.863  0.1775 -0.0719  0.0587
  231MOL   C11328173   7.661   2.878   1.962  0.3753 -0.5629 -0.1179
  231MOL   H11428174   7.688   2.946   2.043  1.8747 -1.1841 -0.0872
  231MOL   H11528175   7.635   2.781   2.005  1.6081 -0.8561 -0.0314
  231MOL   C11628176   7.544   2.941   1.893 -0.6754 -0.2004 -0.5276
  231MOL   F11728177   7.575   3.057   1.851 -0.4014 -0.0768 -0.3547
  231MOL   F11828178   7.493   2.866   1.791 -0.0400 -0.0203 -0.3129
  231MOL   C11928179   7.428   2.978   1.984 -0.0102 -0.0162 -0.6568
  231MOL   H12028180   7.344   3.022   1.931 -1.2190  0.1542  1.3549
  231MOL   H12128181   7.465   3.033   2.071 -0.1092 -1.6801  0.4589
  231MOL   H12228182   7.380   2.885   2.013 -3.0211  2.1723  1.6580
  232MOL     C128183   0.066   2.337   3.710 -0.4208 -1.2129  0.0635
  232MOL     F228184   0.101   2.298   3.836 -0.0737 -0.2305 -0.2457
  232MOL     F328185   0.166   2.402   3.656  0.0206  0.2030  0.3831
  232MOL     C428186   8.300   2.447   3.726 -1.0431  0.4132  0.8587
  232MOL     H528187   8.281   2.499   3.632 -0.7452  0.4946  0.8422
  232MOL     H628188   8.333   2.522   3.797 -1.8195  2.6770 -1.0778
  232MOL     H728189   0.052   2.245   3.653  0.8525 -0.6730 -1.1551
  232MOL     C828190   8.163   2.397   3.771  0.6205 -0.2541 -0.6244
  232MOL     F928191   8.122   2.294   3.695 -0.2222  0.0180  0.3084
  232MOL    F1028192   8.163   2.336   3.891 -0.1634  0.0465 -0.4184
  232MOL    C1128193   8.050   2.503   3.778  0.5871  0.2491 -0.4067
  232MOL    H1228194   7.973   2.441   3.825  1.7980 -1.8766 -1.2135
  232MOL    H1328195   8.013   2.532   3.680 -2.6707  1.4540  1.0659
  232MOL    C1428196   8.072   2.626   3.859  0.2241  0.4255  0.6009
  232MOL    F1528197   8.171   2.697   3.802 -0.4937 -0.3372 -0.3057
  232MOL    F1628198   7.970   2.710   3.851 -0.1351 -0.2924 -0.0600
  232MOL    C1728199   8.089   2.594   4.009 -0.2585  0.1924  0.3693
  232MOL    H1828200   8.191   2.556   4.007  0.7933  2.9129 -3.1961
  232MOL    H1928201   8.015   2.520   4.040 -0.3330 -0.0957 -0.4781
  232MOL    C2028202   8.092   2.712   4.117  0.0114  0.3016 -0.0100
  232MOL    F2128203   7.973   2.766   4.124  0.0960 -0.1071 -0.3467
  232MOL    F2228204   8.111   2.658   4.241 -0.8530 -0.5842  0.3102
  232MOL    C2328205   8.195   2.828   4.104  0.4245  0.0445  0.0934
  232MOL    H2428206   8.167   2.881   4.013  0.6108  0.0754  0.0541
  232MOL    H2528207   8.289   2.776   4.089 -1.0264 -2.6596  0.0089
  232MOL    C2628208   8.213   2.930   4.216  0.2689 -0.9454 -0.4645
  232MOL    F2728209   8.096   2.971   4.260 -0.1291  0.1506 -0.1369
  232MOL    F2828210   8.280   2.874   4.319  0.1416 -0.1733 -0.3871
  232MOL    C2928211   8.290   3.065   4.180  0.6726  0.0128 -0.4232
  232MOL    H3028212   8.231   3.114   4.103 -1.9961 -0.8276  1.0361
  232MOL    H3128213   0.034   3.044   4.127 -0.9578 -2.1363 -2.5648
  232MOL    C3228214   8.330   3.170   4.295  0.0708 -0.2502 -0.1561
  232MOL    F3328215   0.052   3.115   4.391  0.1465 -0.1518  0.2199
  232MOL    F3428216   0.048   3.263   4.231  0.0336 -0.4609  0.3240
  232MOL    C3528217   8.198   3.231   4.357 -0.3528 -0.2411 -0.2699
  232MOL    H3628218   8.136   3.150   4.396 -1.2663  0.7389  0.3326
  232MOL    H3728219   8.152   3.260   4.262 -1.5224  0.3695  0.4784
  232MOL    C3828220   8.210   3.345   4.460  0.1281  0.1651 -0.0841
  232MOL    F3928221   8.091   3.395   4.465 -0.2572  0.7279 -0.0070
  232MOL    F4028222   8.242   3.292   4.574  0.3119 -0.1442  0.1741
  232MOL    C4128223   8.311   3.449   4.422 -0.7276 -0.1444  0.0972
  232MOL    H4228224   8.298   3.470   4.315 -0.6692  0.3577  0.1851
  232MOL    H4328225   0.062   3.410   4.418 -0.9612 -0.9746  1.9351
  232MOL    C4428226   8.316   3.570   4.515  0.2389 -0.7640  0.3280
  232MOL    F4528227   8.197   3.615   4.544  0.2557 -0.2989  0.3341
  232MOL    F4628228   0.027   3.527   4.630 -0.1414  0.9715  0.0411
  232MOL    C4728229   0.049   3.686   4.470  0.4006  0.0042 -0.4386
  232MOL    H4828230   0.152   3.662   4.497  0.0015 -0.9674  0.2296
  232MOL    H4928231   0.034   3.772   4.535  1.5456  0.8330 -1.2520
  232MOL    C5028232   0.041   3.733   4.328 -0.2440 -0.2431  0.3460
  232MOL    F5128233   0.123   3.833   4.306 -0.5218 -0.2286 -0.4716
  232MOL    F5228234   0.092   3.636   4.253 -0.1891 -0.4213  0.6759
  232MOL    C5328235   8.252   3.783   4.282  0.2622  0.5637  0.3208
  232MOL    H5428236   8.241   3.881   4.329 -1.1187 -0.9427  3.2465
  232MOL    H5528237   8.178   3.715   4.323  0.3055 -1.2031 -2.3789
  232MOL    C5628238   8.222   3.792   4.131  0.2624 -0.3993  0.8014
  232MOL    F5728239   8.220   3.663   4.085 -0.6289  0.4018  0.2717
  232MOL    F5828240   8.097   3.843   4.116 -0.4574 -0.2498 -0.5082
  232MOL    C5928241   8.331   3.886   4.060  0.0148  0.1178 -0.1645
  232MOL    H6028242   0.074   3.828   4.052 -0.0847 -0.4078  2.0551
  232MOL    H6128243   8.347   3.971   4.127  0.1737 -0.8239  1.0166
  232MOL    C6228244   8.288   3.935   3.917 -0.2007 -0.0706  0.5764
  232MOL    F6328245   8.168   3.995   3.927 -0.0790 -0.1142  0.2907
  232MOL    F6428246   0.022   4.032   3.878 -0.1020 -0.1995 -0.1971
  232MOL    C6528247   8.283   3.821   3.815  0.2614  0.3176  0.4141
  232MOL    H6628248   8.187   3.775   3.838 -0.4641  1.4218 -0.3677
  232MOL    H6728249   0.014   3.750   3.833  0.1961  0.2109  0.2929
  232MOL    C6828250   8.282   3.847   3.664 -0.1779 -0.5307  0.4495
  232MOL    F6928251   8.255   3.737   3.603 -0.3120 -0.5175 -0.3805
  232MOL    F7028252   8.177   3.923   3.643  0.2198 -0.3298 -0.1645
  232MOL    C7128253   0.062   3.900   3.607 -0.1124 -0.1792  0.2274
  232MOL    H7228254   0.093   3.992   3.657  0.9115  1.7468 -3.7518
  232MOL    H7328255   0.026   3.941   3.512 -1.6498  1.7366  1.5970
  232MOL    C7428256   0.176   3.806   3.582 -0.3263  0.0323  0.5093
  232MOL    F7528257   0.212   3.739   3.688  0.0806  0.3543  0.2958
  232MOL    F7628258   0.135   3.724   3.479 -0.0462 -0.4954  0.2843
  232MOL    C7728259   0.286   3.888   3.523 -0.2926  0.7560  0.5458
  232MOL    H7828260   0.296   3.966   3.598 -2.2275  2.0314 -0.4585
  232MOL    H7928261   0.246   3.929   3.430  0.7424 -1.1796 -0.7857
  232MOL    C8028262   0.417   3.817   3.491 -0.1476  0.8807  0.7298
  232MOL    F8128263   0.472   3.788   3.603  0.3010  0.0974 -0.0711
  232MOL    F8228264   0.398   3.709   3.413 -0.1081  0.4108  0.8080
  232MOL    C8328265   0.527   3.908   3.423 -0.0874 -0.5056  0.4987
  232MOL    H8428266   0.547   3.996   3.484 -0.7360 -0.0096  0.0037
  232MOL    H8528267   0.477   3.946   3.334 -0.3964 -0.2118  0.7980
  232MOL    C8628268   0.661   3.837   3.390  0.3640 -0.6367 -0.3620
  232MOL    F8728269   0.709   3.765   3.493  0.3342  0.5420 -0.0220
  232MOL    F8828270   0.650   3.763   3.277 -0.2026  0.1545  0.0848
  232MOL    C8928271   0.774   3.947   3.360  0.0967 -0.4064  0.1161
  232MOL    H9028272   0.788   4.023   3.436 -2.9358  0.2811  0.0727
  232MOL    H9128273   0.727   3.994   3.273  1.1182 -0.5627 -0.5293
  232MOL    C9228274   0.899   3.882   3.305  0.9116  0.2197 -0.8066
  232MOL    F9328275   0.958   3.807   3.403 -0.2590 -0.4714  0.2634
  232MOL    F9428276   0.867   3.793   3.209  0.6347 -0.4637  0.3839
  232MOL    C9528277   1.001   3.981   3.254 -0.9969  0.4696  0.2772
  232MOL    H9628278   1.095   3.927   3.246 -1.9254 -1.0919 -0.2764
  232MOL    H9728279   1.008   4.050   3.339 -0.9073 -1.1585  1.6207
  232MOL    C9828280   0.967   4.057   3.120  0.3037 -0.7901 -0.1647
  232MOL    F9928281   0.850   4.114   3.136  0.0498  0.0466  0.3710
  232MOL   F10028282   1.060   4.150   3.101  0.1713  0.4067  0.3493
  232MOL   C10128283   0.986   3.969   2.996  0.0508 -1.0489  0.0811
  232MOL   H10228284   0.913   3.889   3.001  0.5816 -1.4549  1.8887
  232MOL   H10328285   1.080   3.915   3.008  0.4415 -0.5019 -0.4671
  232MOL   C10428286   0.983   4.050   2.859  0.3439 -0.2812  0.2810
  232MOL   F10528287   1.062   4.155   2.855 -0.3154  0.1461 -0.3064
  232MOL   F10628288   1.017   3.966   2.769 -0.0385  0.3676  0.5241
  232MOL   C10728289   0.842   4.104   2.827  0.1381 -0.0898  0.5688
  232MOL   H10828290   0.823   4.187   2.896  0.7419 -2.9358  4.3640
  232MOL   H10928291   0.771   4.024   2.849  1.1330 -0.8868  0.9117
  232MOL   C11028292   0.815   4.155   2.687 -0.8028 -0.3550 -0.0197
  232MOL   F11128293   0.868   4.062   2.605  0.1842  0.3193  0.0313
  232MOL   F11228294   0.682   4.170   2.677 -0.1708 -0.3672 -0.5294
  232MOL   C11328295   0.893   4.283   2.638 -0.5048 -0.2058  0.2737
  232MOL   H11428296   1.001   4.269   2.630 -0.4658 -0.8915  1.7312
  232MOL   H11528297   0.893   4.358   2.718  1.0340 -0.6601  0.7175
  232MOL   C11628298   0.843   4.356   2.515 -0.9137 -0.3556 -0.2430
  232MOL   F11728299   0.717   4.392   2.530 -0.0039  0.4541 -0.2724
  232MOL   F11828300   0.916   4.469   2.512  0.1552 -0.3982 -0.6044
  232MOL   C11928301   0.878   4.282   2.382 -0.4399 -0.7887  0.0102
  232MOL   H12028302   0.859   4.349   2.299  1.4606 -0.9887 -0.6189
  232MOL   H12128303   0.823   4.191   2.359 -1.4039  0.2194 -1.7488
  232MOL   H12228304   0.983   4.253   2.385 -1.0347 -2.9940  0.7800
  233MOL     C128305   1.719   6.228   4.466 -0.0412  1.1230  0.4024
  233MOL     F228306   1.816   6.310   4.515  0.3141 -0.0491  0.2666
  233MOL     F328307   1.675   6.283   4.348  0.0731  0.1736  0.3561
  233MOL     C428308   1.604   6.234   4.575 -0.3246  0.2291 -0.2880
  233MOL     H528309   1.579   6.339   4.588  2.6103  1.0312 -0.9374
  233MOL     H628310   1.649   6.197   4.667 -1.4443 -0.8434 -0.1566
  233MOL     H728311   1.755   6.126   4.451  1.1043  1.3156  1.6746
  233MOL     C828312   1.481   6.154   4.541 -0.3995  0.1073 -0.2396
  233MOL     F928313   1.447   6.186   4.416  0.2040  0.6138  0.1524
  233MOL    F1028314   1.511   6.026   4.556  0.0869  0.8086  0.0762
  233MOL    C1128315   1.365   6.196   4.638  0.5299  0.2446 -0.3604
  233MOL    H1228316   1.330   6.300   4.635  0.4201  0.2978  2.0513
  233MOL    H1328317   1.410   6.184   4.736  0.5951  0.5132 -0.3550
  233MOL    C1428318   1.224   6.118   4.629 -0.0837 -0.2496 -0.5863
  233MOL    F1528319   1.250   5.993   4.670  0.1423 -0.4699 -0.0983
  233MOL    F1628320   1.142   6.174   4.723 -0.1060 -0.0180  0.8489
  233MOL    C1728321   1.156   6.117   4.501  0.9330 -0.4627  0.6821
  233MOL    H1828322   1.063   6.061   4.505  0.5485  0.2590  2.1133
  233MOL    H1928323   1.216   6.066   4.425 -1.5492 -0.1039 -1.5797
  233MOL    C2028324   1.121   6.262   4.441 -0.7313  0.3179  1.2264
  233MOL    F2128325   1.233   6.332   4.415 -0.4555 -0.0451 -0.1004
  233MOL    F2228326   1.061   6.238   4.324 -0.0597 -0.5293 -0.1205
  233MOL    C2328327   1.018   6.352   4.520 -0.1532  0.7573  0.0736
  233MOL    H2428328   1.055   6.379   4.619  0.6073 -1.0587  0.2967
  233MOL    H2528329   0.941   6.281   4.549 -1.1141  0.9527 -1.8885
  233MOL    C2628330   0.953   6.476   4.443  0.1143 -0.6605 -0.1433
  233MOL    F2728331   0.872   6.435   4.342  0.0686 -0.6334 -0.4922
  233MOL    F2828332   0.882   6.536   4.536  0.0011  0.4914 -0.3774
  233MOL    C2928333   1.055   6.580   4.380 -0.1715 -0.3737 -0.2115
  233MOL    H3028334   0.995   6.648   4.320 -1.2544 -0.5898  0.6221
  233MOL    H3128335   1.113   6.524   4.308  0.3843 -0.1238  0.0339
  233MOL    C3228336   1.152   6.654   4.485 -0.0822  0.3111 -0.3228
  233MOL    F3328337   1.077   6.738   4.565  0.2279  0.3457  0.3480
  233MOL    F3428338   1.208   6.561   4.559 -0.5854 -0.0014 -0.4372
  233MOL    C3528339   1.271   6.726   4.420 -0.1356 -0.2931  0.5496
  233MOL    H3628340   1.322   6.645   4.368 -2.9929 -1.7801 -0.0090
  233MOL    H3728341   1.317   6.745   4.518  2.7236 -0.6087 -0.6758
  233MOL    C3828342   1.247   6.859   4.352  0.1773 -0.3926 -0.4793
  233MOL    F3928343   1.146   6.846   4.268  0.5064 -0.2209 -0.3954
  233MOL    F4028344   1.218   6.952   4.442  0.0004  0.0921  0.1444
  233MOL    C4128345   1.366   6.919   4.271  0.3748  0.1590 -0.1786
  233MOL    H4228346   1.321   6.998   4.211 -0.7558  0.1185  0.6036
  233MOL    H4328347   1.396   6.837   4.205  0.3561 -0.5943  0.7418
  233MOL    C4428348   1.485   6.986   4.347  0.0282 -0.4016 -0.1778
  233MOL    F4528349   1.433   7.102   4.387 -0.0821  0.6292 -0.0587
  233MOL    F4628350   1.498   6.908   4.450  0.1668  0.0300  0.0172
  233MOL    C4728351   1.616   6.991   4.263 -0.2423  1.0493 -0.8241
  233MOL    H4828352   1.598   7.052   4.175  0.1965 -0.0839 -1.7168
  233MOL    H4928353   1.630   6.888   4.228  1.5165  0.4899  1.3624
  233MOL    C5028354   1.736   7.056   4.338  0.9241 -0.9453 -0.1828
  233MOL    F5128355   1.718   7.196   4.343  0.0078 -0.6491  0.1574
  233MOL    F5228356   1.751   6.998   4.460 -0.4141 -0.2473  0.7085
  233MOL    C5328357   1.873   7.052   4.274 -0.7045  0.7762  1.4935
  233MOL    H5428358   1.941   7.084   4.354  1.7122 -0.5257  0.0280
  233MOL    H5528359   1.884   7.117   4.188 -0.4885  2.9619  3.1250
  233MOL    C5628360   1.924   6.909   4.232 -0.5448  0.5994 -0.0488
  233MOL    F5728361   1.874   6.826   4.321 -0.0981 -1.0308  0.2397
  233MOL    F5828362   1.867   6.878   4.115 -0.9457  0.6120  0.0341
  233MOL    C5928363   2.081   6.887   4.230  0.4167  0.8405  0.7624
  233MOL    H6028364   2.107   6.876   4.336 -0.1877 -0.7509  0.7553
  233MOL    H6128365   2.129   6.977   4.191 -0.6120  1.8324  1.6915
  233MOL    C6228366   2.134   6.766   4.157 -0.2539 -0.3713 -0.3793
  233MOL    F6328367   2.113   6.766   4.021  0.1578  0.0230 -0.0946
  233MOL    F6428368   2.268   6.778   4.169 -0.1119  0.3906  0.4004
  233MOL    C6528369   2.081   6.634   4.216  0.1514 -0.2264 -0.3297
  233MOL    H6628370   1.980   6.609   4.185  0.1938  0.1188 -0.7507
  233MOL    H6728371   2.074   6.647   4.324  1.6843 -0.7961 -0.1430
  233MOL    C6828372   2.164   6.517   4.187 -0.3695  0.2880  0.1006
  233MOL    F6928373   2.080   6.413   4.182  0.0361 -0.0026 -0.0219
  233MOL    F7028374   2.211   6.529   4.069  0.4308  0.1621 -0.8926
  233MOL    C7128375   2.278   6.498   4.294  0.2431  0.5251 -0.0786
  233MOL    H7228376   2.229   6.513   4.390 -0.7469  1.0808 -0.6642
  233MOL    H7328377   2.343   6.583   4.273 -0.2617  1.0262  0.3985
  233MOL    C7428378   2.347   6.360   4.290 -0.2283 -0.0474 -0.3241
  233MOL    F7528379   2.392   6.349   4.163  0.1651 -0.5655  0.1003
  233MOL    F7628380   2.452   6.381   4.373  1.4253 -0.0078  0.0947
  233MOL    C7728381   2.257   6.245   4.327 -0.8203  0.2546  0.2820
  233MOL    H7828382   2.331   6.164   4.329  2.2987  2.9993 -0.1900
  233MOL    H7928383   2.188   6.217   4.247 -1.9648 -2.2017  2.0610
  233MOL    C8028384   2.195   6.237   4.468  0.1376  0.0446 -0.0050
  233MOL    F8128385   2.291   6.233   4.563 -0.2717  0.0750 -0.1253
  233MOL    F8228386   2.104   6.327   4.494 -0.1511  0.6468 -0.1000
  233MOL    C8328387   2.109   6.109   4.488 -0.8698  0.1938  0.4422
  233MOL    H8428388   2.051   6.082   4.400  0.0063 -1.4995  0.3636
  233MOL    H8528389   2.047   6.130   4.575 -2.5988  1.8833 -1.1683
  233MOL    C8628390   2.191   5.976   4.511  0.4802 -0.9417 -0.4134
  233MOL    F8728391   2.260   5.960   4.404  0.1883  0.0733  0.3440
  233MOL    F8828392   2.265   5.983   4.621  0.0652  0.2829 -0.2818
  233MOL    C8928393   2.108   5.846   4.515 -0.0953  0.1916 -0.0851
  233MOL    H9028394   2.171   5.769   4.558 -0.0796  0.8312  1.0687
  233MOL    H9128395   2.088   5.813   4.413  0.8251  0.3908 -0.3318
  233MOL    C9228396   1.980   5.845   4.612 -0.5375  0.3152  0.1575
  233MOL    F9328397   1.891   5.923   4.554  0.4080 -0.0238 -0.0333
  233MOL    F9428398   1.932   5.721   4.609 -0.7631  0.1857  0.1437
  233MOL    C9528399   2.001   5.898   4.753  0.5259  0.3699 -0.1682
  233MOL    H9628400   2.050   5.995   4.757 -1.2038  1.2550  0.3608
  233MOL    H9728401   2.064   5.827   4.807  0.3794 -0.3783 -0.9838
  233MOL    C9828402   1.865   5.915   4.834  0.1482  0.0682 -1.0574
  233MOL    F9928403   1.783   5.992   4.763  0.0987  0.3641 -0.4741
  233MOL   F10028404   1.802   5.797   4.848  0.3003  0.0217  0.4265
  233MOL   C10128405   1.883   6.002   4.958 -0.1451  0.0357  0.6324
  233MOL   H10228406   1.882   6.106   4.927 -2.8266 -1.2083 -3.9074
  233MOL   H10328407   1.981   5.978   5.000  0.0637  0.1883  0.2274
  233MOL   C10428408   1.776   5.950   5.063 -0.1378  0.5117  0.2165
  233MOL   F10528409   1.656   5.952   5.016 -0.7702  0.0550  0.4582
  233MOL   F10628410   1.816   5.834   5.117  0.0655 -0.2512 -0.3359
  233MOL   C10728411   1.769   6.054   5.176  0.0764 -0.2581  1.0321
  233MOL   H10828412   1.764   6.156   5.138  1.3323 -1.0322 -1.3143
  233MOL   H10928413   1.871   6.061   5.215  0.3099  2.5451  0.0382
  233MOL   C11028414   1.669   6.026   5.288  0.3325 -0.1649 -1.3588
  233MOL   F11128415   1.699   5.914   5.353 -0.6214  0.2851  0.2104
  233MOL   F11228416   1.681   6.128   5.380 -0.1952  0.1502 -0.1388
  233MOL   C11328417   1.525   6.003   5.256 -0.4161 -0.2366  0.3296
  233MOL   H11428418   1.485   5.963   5.350  0.3486  1.8995  1.5904
  233MOL   H11528419   1.510   5.915   5.193 -0.9765  0.5302 -0.6164
  233MOL   C11628420   1.438   6.116   5.191 -0.0039  0.3388  0.0024
  233MOL   F11728421   1.420   6.210   5.281  0.1856 -0.4383 -0.2643
  233MOL   F11828422   1.503   6.175   5.093 -0.3415  0.2118 -0.2861
  233MOL   C11928423   1.293   6.078   5.135 -0.3324  0.7825  0.2393
  233MOL   H12028424   1.220   6.029   5.199  0.6420 -1.1708 -0.1272
  233MOL   H12128425   1.293   6.028   5.038 -2.2335  0.1504  0.5483
  233MOL   H12228426   1.246   6.175   5.117 -1.7713  0.1722  0.6977
  234MOL     C128427   3.759   3.425   1.138  0.4766  0.2256  0.1225
  234MOL     F228428   3.883   3.410   1.088  0.5482  0.4003  0.3286
  234MOL     F328429   3.735   3.553   1.144  0.1402 -0.1350 -0.4995
  234MOL     C428430   3.750   3.368   1.277 -0.4802 -0.3031 -0.0800
  234MOL     H528431   3.765   3.260   1.274  0.8624 -0.1050 -1.5753
  234MOL     H628432   3.655   3.382   1.327 -0.0775 -0.4271  0.7326
  234MOL     H728433   3.688   3.396   1.060 -1.7624 -1.0318  2.5456
  234MOL     C828434   3.858   3.414   1.380  0.2341 -0.6422 -0.3617
  234MOL     F928435   3.828   3.356   1.497 -0.0424 -0.2575  0.0317
  234MOL    F1028436   3.975   3.360   1.348  0.5575 -0.4065  0.2475
  234MOL    C1128437   3.855   3.566   1.405 -0.3788 -0.3951 -0.1464
  234MOL    H1228438   3.756   3.609   1.423 -0.4331 -1.4587  2.1656
  234MOL    H1328439   3.882   3.614   1.311 -3.1519  1.2052 -0.1997
  234MOL    C1428440   3.957   3.606   1.510 -0.4769 -0.3781  1.3115
  234MOL    F1528441   3.929   3.553   1.627  0.4745  0.5476  0.0886
  234MOL    F1628442   4.085   3.557   1.484  0.0207 -0.4021  0.1473
  234MOL    C1728443   3.953   3.761   1.526 -0.9048  0.7278  0.4057
  234MOL    H1828444   3.849   3.789   1.514 -0.9512  0.8420  1.0514
  234MOL    H1928445   4.004   3.821   1.450 -1.0109  1.0280  0.5734
  234MOL    C2028446   3.998   3.812   1.661  1.1571  0.0885 -0.6431
  234MOL    F2128447   3.979   3.940   1.645  0.1640  0.6279 -0.3499
  234MOL    F2228448   3.920   3.788   1.771 -0.0921  0.0952 -0.1903
  234MOL    C2328449   4.147   3.774   1.688  0.7206 -0.3443 -0.6247
  234MOL    H2428450   4.206   3.807   1.602  0.8945 -2.1020 -1.2192
  234MOL    H2528451   4.149   3.665   1.682 -0.8778 -0.3469 -1.3841
  234MOL    C2628452   4.216   3.823   1.824  0.4720 -0.2617 -0.2011
  234MOL    F2728453   4.337   3.787   1.815 -0.1288  0.3303  0.0235
  234MOL    F2828454   4.203   3.954   1.843  0.7618 -0.4527 -0.5041
  234MOL    C2928455   4.169   3.759   1.948 -0.4247 -0.1770  0.3751
  234MOL    H3028456   4.184   3.651   1.946  1.4954  0.0583  0.9927
  234MOL    H3128457   4.063   3.775   1.964 -0.4247 -1.3573  1.6346
  234MOL    C3228458   4.242   3.795   2.075 -0.3011  0.2915 -0.4200
  234MOL    F3328459   4.381   3.802   2.069  0.3333 -0.3504  0.3465
  234MOL    F3428460   4.193   3.912   2.110  0.3798  0.7952  0.0061
  234MOL    C3528461   4.208   3.692   2.182 -0.3592 -0.5200 -0.4226
  234MOL    H3628462   4.244   3.597   2.144 -2.8202 -1.6359 -0.0772
  234MOL    H3728463   4.100   3.673   2.182 -0.1343 -1.8805 -1.8430
  234MOL    C3828464   4.267   3.722   2.323 -0.0118  0.2259 -0.2089
  234MOL    F3928465   4.395   3.720   2.321  0.2808 -0.0263  0.2549
  234MOL    F4028466   4.230   3.843   2.370 -0.1506 -0.3593  0.4270
  234MOL    C4128467   4.232   3.615   2.427  0.0415 -0.2180  0.0027
  234MOL    H4228468   4.237   3.659   2.526 -1.2873 -0.5723  0.2367
  234MOL    H4328469   4.305   3.534   2.436 -1.2911 -1.5896 -1.2268
  234MOL    C4428470   4.088   3.555   2.421  1.2209 -0.1272 -1.0039
  234MOL    F4528471   4.000   3.649   2.403 -0.1267 -0.0261  0.2726
  234MOL    F4628472   4.080   3.470   2.325 -0.0526  0.3692 -0.1919
  234MOL    C4728473   4.056   3.486   2.554  0.0394 -0.2444 -0.0653
  234MOL    H4828474   4.060   3.551   2.641 -1.1919  0.2999 -0.4025
  234MOL    H4928475   4.129   3.405   2.563 -1.1379 -1.4299 -1.0205
  234MOL    C5028476   3.916   3.410   2.561  0.0964 -0.8094  0.0724
  234MOL    F5128477   3.825   3.498   2.526 -0.2928 -0.1966  0.3698
  234MOL    F5228478   3.917   3.307   2.478  0.4979  0.0762 -0.0913
  234MOL    C5328479   3.899   3.353   2.697  0.2775 -0.0988 -0.2099
  234MOL    H5428480   3.898   3.433   2.771 -1.4333 -0.6748  0.4160
  234MOL    H5528481   3.986   3.291   2.721  1.3069  1.6249  0.6200
  234MOL    C5628482   3.768   3.271   2.722  0.4515  0.2221  0.0375
  234MOL    F5728483   3.673   3.340   2.663 -0.1490  0.2133  0.7596
  234MOL    F5828484   3.784   3.147   2.669 -0.2634 -0.3403  0.1240
  234MOL    C5928485   3.731   3.238   2.876 -0.8710 -1.1256  0.0625
  234MOL    H6028486   3.726   3.341   2.911  0.7283 -0.4218 -1.6925
  234MOL    H6128487   3.825   3.211   2.924 -0.0678  1.5528  0.1047
  234MOL    C6228488   3.603   3.153   2.911 -0.5311 -0.2288  0.3314
  234MOL    F6328489   3.584   3.177   3.038 -0.4655  0.1815  0.0718
  234MOL    F6428490   3.508   3.214   2.848  0.0716 -0.4366 -0.5320
  234MOL    C6528491   3.606   3.006   2.869 -0.5505  0.0338  0.6213
  234MOL    H6628492   3.620   3.008   2.761  0.0048  0.4914  0.7004
  234MOL    H6728493   3.504   2.970   2.883 -1.1513  2.4670  2.9786
  234MOL    C6828494   3.698   2.906   2.941 -0.4377  0.7261 -0.3134
  234MOL    F6928495   3.811   2.970   2.952  0.2446 -0.4177 -0.6274
  234MOL    F7028496   3.651   2.892   3.069 -0.2864  0.2699 -0.2034
  234MOL    C7128497   3.710   2.777   2.863 -0.3810 -0.2085 -0.1166
  234MOL    H7228498   3.610   2.758   2.824  0.8359 -2.2656 -2.3693
  234MOL    H7328499   3.729   2.698   2.935  1.5514  0.7340  0.4251
  234MOL    C7428500   3.818   2.778   2.751 -1.0186 -0.3070 -0.1188
  234MOL    F7528501   3.803   2.875   2.663  0.5876 -0.2281  0.5745
  234MOL    F7628502   3.934   2.795   2.813  0.4483  0.1513  0.1286
  234MOL    C7728503   3.830   2.634   2.688  0.2369  0.3227  0.9250
  234MOL    H7828504   3.882   2.552   2.736  2.0622  1.1728  0.4373
  234MOL    H7928505   3.900   2.647   2.606  0.4676 -4.1586  0.2985
  234MOL    C8028506   3.704   2.587   2.612 -0.9204  0.0200  0.2842
  234MOL    F8128507   3.608   2.539   2.698  0.1789 -0.2729  0.2553
  234MOL    F8228508   3.657   2.688   2.544 -0.6406  0.5456  0.4920
  234MOL    C8328509   3.738   2.472   2.518  0.4610  0.0376 -0.2643
  234MOL    H8428510   3.771   2.386   2.575 -0.1445  0.0351  0.0929
  234MOL    H8528511   3.831   2.491   2.465  1.2186  0.6731  1.2431
  234MOL    C8628512   3.628   2.412   2.429  0.2330  0.2859 -0.7971
  234MOL    F8728513   3.528   2.370   2.507 -0.4096  0.2731 -0.1429
  234MOL    F8828514   3.593   2.502   2.342 -0.6894  0.7098  0.0926
  234MOL    C8928515   3.679   2.303   2.326 -0.6367  0.3882 -0.0783
  234MOL    H9028516   3.764   2.334   2.265  0.6889  1.6471  2.3092
  234MOL    H9128517   3.597   2.288   2.255 -0.6188  0.2393 -0.0670
  234MOL    C9228518   3.712   2.171   2.386  0.1930  0.2463  0.1987
  234MOL    F9328519   3.803   2.164   2.487  0.2208  0.3187 -0.1808
  234MOL    F9428520   3.598   2.108   2.423 -0.3908 -0.3071 -0.2534
  234MOL    C9528521   3.755   2.075   2.273 -0.0924 -0.5748  0.0830
  234MOL    H9628522   3.828   2.121   2.205  0.6938 -2.8617 -0.6617
  234MOL    H9728523   3.671   2.078   2.204  0.1533 -0.7007 -0.2239
  234MOL    C9828524   3.811   1.931   2.294  0.2783  0.3940  0.4538
  234MOL    F9928525   3.902   1.929   2.388  0.1421 -0.0932 -0.0850
  234MOL   F10028526   3.705   1.861   2.335  0.2887  0.0649 -0.3996
  234MOL   C10128527   3.882   1.865   2.176  0.7827  0.2295 -0.0355
  234MOL   H10228528   3.931   1.774   2.212  1.5594 -0.1082 -1.9107
  234MOL   H10328529   3.960   1.926   2.130 -0.0500  1.6729  0.4265
  234MOL   C10428530   3.791   1.823   2.059  0.3402  0.6282 -0.2927
  234MOL   F10528531   3.705   1.923   2.036  0.2459  0.1080  0.6265
  234MOL   F10628532   3.881   1.807   1.960  0.1920  0.3697 -0.4683
  234MOL   C10728533   3.713   1.689   2.070  0.0894  0.0576  0.0486
  234MOL   H10828534   3.672   1.671   1.971  0.9053 -1.5315 -0.0133
  234MOL   H10928535   3.624   1.699   2.133 -2.6753 -1.9837 -3.3172
  234MOL   C11028536   3.787   1.562   2.122 -0.4448  0.9650 -0.1237
  234MOL   F11128537   3.895   1.551   2.050 -0.4734 -0.0089 -0.0577
  234MOL   F11228538   3.805   1.586   2.257  0.1807 -0.1030  0.3041
  234MOL   C11328539   3.693   1.434   2.092  0.9035 -0.4630  0.6298
  234MOL   H11428540   3.669   1.431   1.985  1.2426  1.9328  0.4462
  234MOL   H11528541   3.602   1.454   2.149 -0.0835 -0.4275 -0.9074
  234MOL   C11628542   3.758   1.302   2.122  0.7074  0.3138 -0.6011
  234MOL   F11728543   3.668   1.204   2.106 -0.5369 -0.3354  0.0713
  234MOL   F11828544   3.851   1.268   2.035 -0.2015 -0.4615 -0.5527
  234MOL   C11928545   3.824   1.287   2.261 -0.0663 -0.6601 -0.4412
  234MOL   H12028546   3.857   1.183   2.271  0.8928 -0.4578 -1.4111
  234MOL   H12128547   3.755   1.318   2.340 -0.2957  1.0411 -1.2896
  234MOL   H12228548   3.905   1.360   2.257 -0.9564  0.2807 -1.3264
  235MOL     C128549   6.262   3.462   6.758 -0.0184  0.3700 -0.1295
  235MOL     F228550   6.335   3.357   6.796 -0.2190  0.1447 -0.1459
  235MOL     F328551   6.326   3.576   6.773  0.7336 -0.3904 -0.3766
  235MOL     C428552   6.119   3.461   6.819 -0.2923  0.3602 -0.1713
  235MOL     H528553   6.070   3.550   6.779  0.2775 -0.4598 -2.8132
  235MOL     H628554   6.127   3.471   6.927  0.6716  1.5008 -0.3437
  235MOL     H728555   6.256   3.454   6.649  0.1676  1.4717 -0.2207
  235MOL     C828556   6.032   3.349   6.772 -0.6540  0.2094  0.1742
  235MOL     F928557   6.027   3.338   6.635 -0.1059 -0.0856 -0.0198
  235MOL    F1028558   6.073   3.231   6.815 -0.0659 -0.1094 -0.2310
  235MOL    C1128559   5.887   3.360   6.824 -0.0763  0.1697 -0.0918
  235MOL    H1228560   5.885   3.370   6.933  0.2807  2.0975 -0.2478
  235MOL    H1328561   5.828   3.272   6.797 -1.1212  1.2516 -1.3850
  235MOL    C1428562   5.803   3.482   6.773  0.2080 -0.4678 -0.5510
  235MOL    F1528563   5.852   3.596   6.814  0.1633 -0.1307 -0.2579
  235MOL    F1628564   5.799   3.480   6.642  0.1301  0.2707 -0.0847
  235MOL    C1728565   5.657   3.480   6.824 -0.1439  0.4898 -0.1291
  235MOL    H1828566   5.603   3.412   6.758  1.2017 -0.1840 -0.5492
  235MOL    H1928567   5.623   3.582   6.808 -3.1474 -0.5618 -0.8755
  235MOL    C2028568   5.618   3.456   6.971 -0.3755 -0.4029  0.1667
  235MOL    F2128569   5.485   3.472   6.975  0.1062 -0.3156  0.0715
  235MOL    F2228570   5.647   3.328   6.999 -0.0222  0.2343  0.0339
  235MOL    C2328571   5.688   3.556   7.056  0.1001  0.5935 -0.0149
  235MOL    H2428572   5.657   3.658   7.032 -3.4743 -0.3642  0.3863
  235MOL    H2528573   5.795   3.541   7.039 -0.2960 -1.3502 -0.8843
  235MOL    C2628574   5.671   3.537   7.213  0.1878 -0.4947  0.0009
  235MOL    F2728575   5.732   3.426   7.258  0.2694 -0.2485  0.4530
  235MOL    F2828576   5.748   3.630   7.263  0.2873  0.0447  0.9700
  235MOL    C2928577   5.534   3.558   7.257 -0.2151  0.3772  0.0812
  235MOL    H3028578   5.483   3.482   7.198  0.1660 -0.5396  0.9143
  235MOL    H3128579   5.484   3.649   7.224 -0.9123  0.0069  0.1119
  235MOL    C3228580   5.510   3.539   7.408 -0.3729 -0.1509  0.4128
  235MOL    F3328581   5.522   3.411   7.435 -0.1518  0.0073 -0.1456
  235MOL    F3428582   5.587   3.613   7.481  0.2783 -0.0402 -0.1210
  235MOL    C3528583   5.356   3.577   7.440 -0.0502 -0.5164 -0.1504
  235MOL    H3628584   5.287   3.519   7.378  1.3460 -0.7538 -1.5105
  235MOL    H3728585   5.341   3.680   7.406 -1.7232 -0.7404 -0.1662
  235MOL    C3828586   5.303   3.549   7.585 -0.2049  0.4041 -0.0147
  235MOL    F3928587   5.335   3.424   7.611 -0.4506  0.3315 -0.0411
  235MOL    F4028588   5.378   3.631   7.660  0.3096  0.4177  0.1917
  235MOL    C4128589   5.152   3.585   7.616  1.2091 -0.5614  0.5033
  235MOL    H4228590   5.128   3.559   7.719 -0.5559  1.9538  0.7808
  235MOL    H4328591   5.094   3.523   7.548  0.6782 -1.7891  2.0632
  235MOL    C4428592   5.108   3.724   7.579  0.4002  0.0242  0.0250
  235MOL    F4528593   5.182   3.822   7.631  0.2403  0.1698 -0.2779
  235MOL    F4628594   5.110   3.739   7.447 -0.4520 -0.3235  0.2575
  235MOL    C4728595   4.962   3.747   7.642  0.9255 -0.0582  0.2506
  235MOL    H4828596   4.943   3.854   7.636 -1.0397 -0.4095 -0.0343
  235MOL    H4928597   4.971   3.730   7.749  1.0689  2.3095  0.6549
  235MOL    C5028598   4.841   3.674   7.573 -0.4912  0.3349  0.1568
  235MOL    F5128599   4.846   3.705   7.440  0.4707  0.1318 -0.1780
  235MOL    F5228600   4.865   3.547   7.589  0.2130 -0.0193 -0.2638
  235MOL    C5328601   4.700   3.712   7.634 -0.5455 -0.4209 -0.0182
  235MOL    H5428602   4.672   3.806   7.588 -2.4855 -1.4057 -0.9151
  235MOL    H5528603   4.717   3.725   7.741  2.5393 -1.4986 -0.3158
  235MOL    C5628604   4.584   3.612   7.606 -0.7827  0.2351  0.1836
  235MOL    F5728605   4.477   3.665   7.651  0.2195 -0.6544  0.8149
  235MOL    F5828606   4.567   3.618   7.474  0.0102  0.2590 -0.5352
  235MOL    C5928607   4.603   3.464   7.650  0.4902 -0.2925  0.6462
  235MOL    H6028608   4.690   3.413   7.610 -0.3398 -1.2058 -0.0374
  235MOL    H6128609   4.520   3.410   7.604  1.3869 -1.1561  0.0063
  235MOL    C6228610   4.605   3.433   7.803 -0.7699 -0.4716 -0.1426
  235MOL    F6328611   4.705   3.502   7.850  0.0086  0.0324 -0.2037
  235MOL    F6428612   4.489   3.466   7.851  0.2155 -0.1515 -0.1832
  235MOL    C6528613   4.621   3.282   7.842  0.2096 -0.7996  0.6153
  235MOL    H6628614   4.724   3.259   7.816  0.2111  1.9186 -2.0581
  235MOL    H6728615   4.567   3.216   7.774 -0.3280  0.4796 -0.2273
  235MOL    C6828616   4.588   3.254   7.989  0.5359  0.1035 -0.4036
  235MOL    F6928617   4.471   3.283   8.024  0.3484 -0.1993  0.3978
  235MOL    F7028618   4.591   3.116   7.996 -0.2371 -0.2553  0.2338
  235MOL    C7128619   4.677   3.314   8.095 -0.2917 -0.0606  0.0770
  235MOL    H7228620   4.671   3.422   8.086 -2.0262 -0.0291  1.2210
  235MOL    H7328621   4.780   3.289   8.072 -0.0571  1.0823 -0.1099
  235MOL    C7428622   4.651   3.263   8.239 -0.4301  0.7481 -0.3178
  235MOL    F7528623   4.525   3.275   8.273  0.1860  0.0666  0.6764
  235MOL    F7628624   4.685   3.135   8.251  0.3226  0.3723 -0.2937
  235MOL    C7728625   4.736   3.335   8.344 -0.0688  0.7023 -0.3876
  235MOL    H7828626   4.709   3.303   0.095  0.6252  0.8111 -0.1657
  235MOL    H7928627   4.710   3.441   8.348  0.0056  0.7722 -1.5807
  235MOL    C8028628   4.883   3.309   8.347  0.0453  0.6188  0.1290
  235MOL    F8128629   4.912   3.182   8.324 -0.4492  0.0797 -0.3703
  235MOL    F8228630   4.950   3.385   8.258 -0.2829 -0.3351 -0.5844
  235MOL    C8328631   4.957   3.341   0.127  0.6083  0.0352 -0.2392
  235MOL    H8428632   4.901   3.323   0.218  1.8742  0.2264  0.5895
  235MOL    H8528633   4.962   3.450   0.122 -1.0011  0.1233 -0.0481
  235MOL    C8628634   5.100   3.284   0.141  0.3115  0.1176  0.7085
  235MOL    F8728635   5.098   3.151   0.153 -0.0502 -0.4186  0.1311
  235MOL    F8828636   5.160   3.313   0.029 -0.0012  0.2052 -0.0442
  235MOL    C8928637   5.189   3.329   0.258 -0.1988 -0.1158 -0.0505
  235MOL    H9028638   5.278   3.267   0.254 -0.0207  0.2116 -1.3494
  235MOL    H9128639   5.141   3.296   0.351 -0.3837  1.0020  0.2669
  235MOL    C9228640   5.208   3.476   0.284 -0.0529  0.6086 -0.1944
  235MOL    F9328641   5.241   3.533   0.174  0.1770 -0.0516  0.0049
  235MOL    F9428642   5.086   3.521   0.323 -0.5154 -0.2058  0.0884
  235MOL    C9528643   5.312   3.488   0.401  0.1828 -0.4678  0.3641
  235MOL    H9628644   5.401   3.440   0.362 -1.6829 -1.3522 -2.9887
  235MOL    H9728645   5.272   3.433   0.486 -1.2445 -1.6088 -0.9995
  235MOL    C9828646   5.348   3.629   0.447 -0.2332  0.1189 -0.0545
  235MOL    F9928647   5.370   3.719   0.350  0.0640 -0.2299  0.2278
  235MOL   F10028648   5.242   3.672   0.515 -0.0006  0.3099 -0.1440
  235MOL   C10128649   5.468   3.612   0.542  0.0581 -0.7570 -0.4024
  235MOL   H10228650   5.557   3.587   0.485  0.9363  1.5275 -0.0896
  235MOL   H10328651   5.457   3.523   0.603  1.4399 -0.9032 -0.3495
  235MOL   C10428652   5.517   3.743   0.616  0.2764  0.8072 -0.0981
  235MOL   F10528653   5.556   3.837   0.527  0.0280 -0.1261  0.1819
  235MOL   F10628654   5.408   3.794   0.669 -0.9479  0.5544 -0.0427
  235MOL   C10728655   5.611   3.738   0.730 -0.3814 -0.3990 -0.1571
  235MOL   H10828656   5.559   3.688   0.812 -1.2774  2.9774  1.4490
  235MOL   H10928657   5.628   3.841   0.764 -0.9035 -0.6090  0.7686
  235MOL   C11028658   5.749   3.671   0.711 -0.4361 -0.3503 -0.1590
  235MOL   F11128659   5.743   3.543   0.674  0.6285 -0.1914  0.0084
  235MOL   F11228660   5.823   3.743   0.623  0.1008 -0.0953 -0.4865
  235MOL   C11328661   5.834   3.675   0.842 -0.2833  0.0514  0.5209
  235MOL   H11428662   5.854   3.780   0.862  1.8479 -0.3788  0.8324
  235MOL   H11528663   5.930   3.629   0.818  0.8448  1.1633  2.7204
  235MOL   C11628664   5.779   3.595   0.965  0.7757  0.0667 -0.3573
  235MOL   F11728665   5.875   3.581   1.057  0.5068  0.0499 -0.0406
  235MOL   F11828666   5.685   3.679   1.017 -0.2637 -0.4199 -0.0744
  235MOL   C11928667   5.703   3.460   0.945  0.2221  0.2423 -0.6114
  235MOL   H12028668   5.621   3.473   0.875  0.8725  2.6313 -0.9510
  235MOL   H12128669   5.679   3.423   1.045  0.1568  0.5883 -0.4999
  235MOL   H12228670   5.770   3.383   0.907 -0.2606 -0.3127 -0.3552
  236MOL     C128671   5.085   6.761   4.691  0.1355  0.0680 -0.2994
  236MOL     F228672   5.056   6.872   4.758  0.3531 -0.5487 -0.3717
  236MOL     F328673   5.032   6.768   4.569  0.4622 -0.0278  0.0045
  236MOL     C428674   5.013   6.649   4.769  0.0452 -0.8418 -0.1865
  236MOL     H528675   4.905   6.664   4.768 -0.0046 -1.2237 -1.1156
  236MOL     H628676   5.048   6.655   4.872 -2.8687  0.6097  0.7640
  236MOL     H728677   5.192   6.753   4.672  0.2924 -1.0480  0.9842
  236MOL     C828678   5.035   6.504   4.724 -0.0553  0.2816 -0.4741
  236MOL     F928679   4.964   6.484   4.606 -0.6262 -0.3983 -0.3913
  236MOL    F1028680   5.162   6.483   4.703  0.4816 -0.2882 -0.2863
  236MOL    C1128681   4.977   6.408   4.831  0.0669 -1.0551  0.0694
  236MOL    H1228682   5.027   6.440   4.922 -1.1312 -0.4169  0.5189
  236MOL    H1328683   5.012   6.306   4.819  1.3153 -0.5283 -0.8994
  236MOL    C1428684   4.833   6.411   4.875 -0.2380 -0.6097  0.2685
  236MOL    F1528685   4.819   6.322   4.971  0.8194 -0.4359  0.2578
  236MOL    F1628686   4.816   6.533   4.927  0.2221  0.1223 -0.3874
  236MOL    C1728687   4.725   6.385   4.769  0.0763  0.0681  0.0959
  236MOL    H1828688   4.723   6.462   4.692 -0.2107 -0.4167 -0.3774
  236MOL    H1928689   4.634   6.396   4.828 -1.5877  0.1220 -2.4440
  236MOL    C2028690   4.737   6.247   4.690 -0.0515 -0.1665 -0.4151
  236MOL    F2128691   4.839   6.241   4.605 -0.2312 -0.8180  0.4033
  236MOL    F2228692   4.764   6.151   4.785  0.3015 -0.1621  0.0423
  236MOL    C2328693   4.609   6.207   4.625  0.2355  0.1839 -0.2087
  236MOL    H2428694   4.523   6.235   4.686 -2.7498 -0.6566 -3.7820
  236MOL    H2528695   4.602   6.098   4.619 -0.6069  0.1798  0.7053
  236MOL    C2628696   4.589   6.260   4.484  0.8515 -0.5392 -0.2222
  236MOL    F2728697   4.617   6.390   4.486 -0.2347  0.4815 -0.0965
  236MOL    F2828698   4.666   6.196   4.387 -0.5676  0.1084 -0.0567
  236MOL    C2928699   4.440   6.253   4.440  0.1409 -0.4968  0.2672
  236MOL    H3028700   4.392   6.323   4.508  2.7874  0.1495  1.5223
  236MOL    H3128701   4.393   6.156   4.459 -1.6912  0.3318 -0.0031
  236MOL    C3228702   4.407   6.302   4.301  0.3462 -0.2301  0.5645
  236MOL    F3328703   4.435   6.192   4.232  0.0675  0.1043 -0.1195
  236MOL    F3428704   4.272   6.313   4.298  0.0118  0.1247  0.1713
  236MOL    C3528705   4.465   6.427   4.240  0.4008  0.3157 -0.4349
  236MOL    H3628706   4.574   6.415   4.238  0.6295  2.2879 -0.9362
  236MOL    H3728707   4.444   6.509   4.308 -2.2240  0.6344 -1.6051
  236MOL    C3828708   4.411   6.467   4.107 -0.0474 -0.3994  0.6095
  236MOL    F3928709   4.397   6.353   4.038 -0.2316 -0.1882  0.4414
  236MOL    F4028710   4.291   6.509   4.124 -0.3574 -0.3897 -0.0121
  236MOL    C4128711   4.502   6.575   4.051 -0.3822 -0.3625 -0.4569
  236MOL    H4228712   4.590   6.531   4.003 -0.2759 -1.3586  0.6345
  236MOL    H4328713   4.541   6.639   4.130 -0.0506  1.2611 -1.9009
  236MOL    C4428714   4.445   6.678   3.951  0.0418  0.5544  0.0339
  236MOL    F4528715   4.371   6.615   3.858  0.3390  0.5677  0.2175
  236MOL    F4628716   4.358   6.762   4.016  0.4788 -0.1835  0.1536
  236MOL    C4728717   4.563   6.763   3.894  0.4924  0.0184 -0.1156
  236MOL    H4828718   4.632   6.697   3.841  0.8130 -0.2134  0.5771
  236MOL    H4928719   4.625   6.803   3.975  1.5748  0.4094 -1.1161
  236MOL    C5028720   4.520   6.874   3.802 -0.7226  0.4514  0.1107
  236MOL    F5128721   4.442   6.823   3.701 -0.1326 -0.2801  0.1221
  236MOL    F5228722   4.444   6.963   3.873 -0.2858 -0.4963  0.4602
  236MOL    C5328723   4.639   6.957   3.736  0.0485 -0.2400 -0.5282
  236MOL    H5428724   4.705   6.890   3.681 -0.8006 -0.3604 -1.4025
  236MOL    H5528725   4.699   6.986   3.823 -1.5222 -1.7894  1.1232
  236MOL    C5628726   4.603   7.071   3.650  0.0423  1.0323 -0.1669
  236MOL    F5728727   4.522   7.037   3.547 -0.4623 -0.0666 -0.0913
  236MOL    F5828728   4.548   7.163   3.731  0.2462 -0.4771 -0.1947
  236MOL    C5928729   4.729   7.126   3.577 -0.6382 -1.0416 -0.3100
  236MOL    H6028730   4.762   7.042   3.516 -0.4460 -0.4947 -0.9580
  236MOL    H6128731   4.804   7.145   3.654  0.2552  1.9447 -1.8485
  236MOL    C6228732   4.714   7.255   3.485  0.2972 -0.8331 -0.5982
  236MOL    F6328733   4.607   7.249   3.409  0.2991 -0.1211 -0.1010
  236MOL    F6428734   4.695   7.365   3.558 -0.5293  0.3121 -0.3925
  236MOL    C6528735   4.828   7.293   3.394  1.0192  0.1321  0.7326
  236MOL    H6628736   4.806   7.377   3.328  0.5304 -1.0505 -0.6181
  236MOL    H6728737   4.847   7.219   3.317 -0.6400 -2.5256  2.8022
  236MOL    C6828738   4.964   7.320   3.469 -0.3933 -0.6274  0.1444
  236MOL    F6928739   4.949   7.390   3.580  0.6509  0.5394  0.7024
  236MOL    F7028740   5.006   7.202   3.504 -0.0333 -0.0100  0.2480
  236MOL    C7128741   5.057   7.383   3.362  1.1461  0.2268  0.2808
  236MOL    H7228742   5.028   7.485   3.337  0.7996  0.0295 -0.1354
  236MOL    H7328743   5.063   7.325   3.270  2.3082  0.5034  0.1744
  236MOL    C7428744   5.201   7.393   3.405 -0.4633 -0.0035  0.6806
  236MOL    F7528745   5.248   7.277   3.449 -0.6212 -0.1541  0.4653
  236MOL    F7628746   5.268   7.427   3.294  0.1244  0.4369  0.1372
  236MOL    C7728747   5.226   7.506   3.507 -0.3124 -0.2693 -0.6552
  236MOL    H7828748   5.183   7.458   3.595  0.9213 -0.4318 -0.1254
  236MOL    H7928749   5.165   7.593   3.483 -0.1864  0.3005  1.0147
  236MOL    C8028750   5.366   7.555   3.541 -0.9750 -0.0299  0.7444
  236MOL    F8128751   5.426   7.613   3.431 -0.1675  0.0439  0.3782
  236MOL    F8228752   5.360   7.649   3.637  0.1473 -0.1903 -0.7869
  236MOL    C8328753   5.465   7.446   3.586  0.7449  0.6366 -0.4707
  236MOL    H8428754   5.462   7.374   3.503  1.8922  1.9329 -1.6686
  236MOL    H8528755   5.440   7.396   3.679 -0.4980  1.1588 -0.5137
  236MOL    C8628756   5.611   7.497   3.614  0.3922 -0.3506  0.3794
  236MOL    F8728757   5.658   7.533   3.495  0.5683 -0.4221 -0.4386
  236MOL    F8828758   5.625   7.603   3.696 -0.1285  0.0712  0.2485
  236MOL    C8928759   5.700   7.393   3.679  0.5497  0.4405  0.0835
  236MOL    H9028760   5.676   7.370   3.783  1.0394  0.0266  0.1057
  236MOL    H9128761   5.803   7.429   3.676  0.4744  0.5268 -1.8608
  236MOL    C9228762   5.698   7.256   3.606  0.3093 -0.2941  0.1837
  236MOL    F9328763   5.577   7.204   3.616  0.2882 -0.0130  0.2417
  236MOL    F9428764   5.728   7.274   3.477  0.5526 -0.0160 -0.2148
  236MOL    C9528765   5.813   7.178   3.664 -0.0883 -0.1244  0.8403
  236MOL    H9628766   5.804   7.183   3.772  2.4442 -0.1047  1.0757
  236MOL    H9728767   5.902   7.231   3.631 -1.5074  0.4829 -2.2284
  236MOL    C9828768   5.836   7.037   3.610 -0.4622 -0.2730 -0.1928
  236MOL    F9928769   5.728   6.974   3.649  0.0717  0.3801 -0.3192
  236MOL   F10028770   5.829   7.035   3.479  0.2096  0.4638  0.1319
  236MOL   C10128771   5.962   6.960   3.648  0.2622  0.5950 -0.0116
  236MOL   H10228772   6.003   6.996   3.742  1.0989  0.6886 -0.4054
  236MOL   H10328773   6.033   6.989   3.570  0.8702  0.2939  0.4221
  236MOL   C10428774   5.954   6.806   3.644  0.0845 -0.0988 -0.5773
  236MOL   F10528775   6.084   6.774   3.666  0.0355 -0.0752 -0.5964
  236MOL   F10628776   5.882   6.767   3.745  0.2530 -0.1847  0.4619
  236MOL   C10728777   5.906   6.744   3.510 -0.9146  0.4249 -0.1974
  236MOL   H10828778   5.957   6.784   3.423 -1.3494 -1.2789 -1.2497
  236MOL   H10928779   5.811   6.794   3.492 -0.1042  2.4267  0.8703
  236MOL   C11028780   5.880   6.594   3.502 -0.7565  0.9408 -0.6272
  236MOL   F11128781   5.786   6.582   3.592 -0.0454 -0.2769 -0.3584
  236MOL   F11228782   5.823   6.542   3.392 -0.6434 -0.0121  0.0972
  236MOL   C11328783   6.007   6.509   3.535 -0.0650 -0.5336 -0.2795
  236MOL   H11428784   6.062   6.548   3.621  1.0062 -1.0757 -0.7157
  236MOL   H11528785   6.074   6.510   3.449 -0.5524 -1.0532 -0.6716
  236MOL   C11628786   5.966   6.363   3.580 -0.4163 -0.5590 -0.5085
  236MOL   F11728787   6.076   6.290   3.605 -0.8101  0.2243  0.1602
  236MOL   F11828788   5.898   6.381   3.695 -0.0427 -0.6240  0.0661
  236MOL   C11928789   5.886   6.276   3.478 -0.8957 -0.1343 -0.0973
  236MOL   H12028790   5.928   6.254   3.379  1.0812  1.6258  0.3177
  236MOL   H12128791   5.794   6.330   3.457 -0.1802  1.6499  1.2869
  236MOL   H12228792   5.855   6.187   3.532 -2.7752  0.5967  0.0678
  237MOL     C128793   0.713   8.240   5.517  0.2079  1.1860  0.1393
  237MOL     F228794   0.757   8.113   5.511  0.0999 -0.3950  0.0336
  237MOL     F328795   0.599   8.247   5.441 -0.0105 -0.2438 -0.1058
  237MOL     C428796   0.833   8.331   5.472 -0.3961  0.9097  0.3924
  237MOL     H528797   0.794   0.082   5.457 -0.7138  0.8791  0.9952
  237MOL     H628798   0.876   8.298   5.378 -1.6784 -2.0066  0.7910
  237MOL     H728799   0.681   8.268   5.617  2.1348  2.5130  0.4147
  237MOL     C828800   0.942   8.342   5.575 -0.0019 -1.0303  0.0555
  237MOL     F928801   0.898   0.010   5.696  0.0506 -0.7807  0.0960
  237MOL    F1028802   1.003   8.220   5.560  0.1088 -0.3125 -0.0929
  237MOL    C1128803   1.046   0.104   5.546 -0.0689 -1.0371  0.3844
  237MOL    H1228804   0.995   0.200   5.556  1.8139 -0.0432  0.6959
  237MOL    H1328805   1.073   0.090   5.442  0.9627 -0.1707  0.5236
  237MOL    C1428806   1.177   0.116   5.622  0.7010 -0.1049  0.1072
  237MOL    F1528807   1.252   0.007   5.602 -0.4247 -0.0057  0.2713
  237MOL    F1628808   1.229   0.219   5.557 -0.2725 -0.0551  0.5176
  237MOL    C1728809   1.156   0.145   5.773 -0.3173 -0.4366  0.0667
  237MOL    H1828810   1.086   0.075   5.819  0.4806  0.5328  2.8408
  237MOL    H1928811   1.113   0.245   5.781  1.3583  0.3435 -0.4867
  237MOL    C2028812   1.281   0.161   5.853  0.4234 -0.0530 -0.0115
  237MOL    F2128813   1.242   0.187   5.980 -0.1616 -0.1375  0.0700
  237MOL    F2228814   1.344   0.049   5.853 -0.6008 -0.0822  0.3765
  237MOL    C2328815   1.391   0.267   5.805 -0.2048  0.3735  0.4958
  237MOL    H2428816   1.348   0.366   5.819 -0.6257  0.4174 -1.0587
  237MOL    H2528817   1.405   0.247   5.699  2.3201 -1.6350  1.1678
  237MOL    C2628818   1.528   0.253   5.869 -0.4050 -0.4067  0.0624
  237MOL    F2728819   1.585   0.134   5.851 -0.0750 -0.3865  0.1157
  237MOL    F2828820   1.593   0.346   5.793 -0.0511 -0.0595  0.1003
  237MOL    C2928821   1.527   0.284   6.025 -0.6614  0.1970 -0.2202
  237MOL    H3028822   1.473   0.204   6.075  1.0121 -1.1673 -0.5219
  237MOL    H3128823   1.463   0.367   6.052 -1.4258 -1.2596  2.6960
  237MOL    C3228824   1.665   0.296   6.095  0.3503 -0.3245 -0.3170
  237MOL    F3328825   1.728   0.181   6.075  0.3812  0.3676  0.3774
  237MOL    F3428826   1.734   0.386   6.029  0.2215 -0.0807 -0.3138
  237MOL    C3528827   1.658   0.333   6.245 -0.2879  1.3584  0.8475
  237MOL    H3628828   1.754   0.312   6.292 -0.6306  0.0955  0.9781
  237MOL    H3728829   1.587   0.269   6.297  1.0094 -0.8970 -0.0897
  237MOL    C3828830   1.629   0.486   6.273 -0.4594 -0.2331  0.1611
  237MOL    F3928831   1.719   0.559   6.208  0.3734  0.1403 -0.0414
  237MOL    F4028832   1.510   0.523   6.221 -0.1742 -0.4944  0.2185
  237MOL    C4128833   1.633   0.518   6.428  0.3199  0.0932  0.1008
  237MOL    H4228834   1.720   0.475   6.477 -0.4161 -0.6315  0.7645
  237MOL    H4328835   1.544   0.471   6.468  0.5984 -0.6953 -0.1877
  237MOL    C4428836   1.630   0.666   6.468 -1.3807 -0.1491 -0.1628
  237MOL    F4528837   1.746   0.716   6.419  0.6430 -0.2775 -0.0502
  237MOL    F4628838   1.529   0.733   6.401 -0.2304  0.1240 -0.2624
  237MOL    C4728839   1.620   0.699   6.619  0.1919 -0.0563 -0.6115
  237MOL    H4828840   1.684   0.629   6.672 -1.9379 -0.8741  0.9728
  237MOL    H4928841   1.524   0.661   6.653  0.9856 -1.7847 -0.2476
  237MOL    C5028842   1.658   0.840   6.670  0.3606  0.4025  0.7640
  237MOL    F5128843   1.650   0.846   6.798 -0.0148 -0.3294 -0.0997
  237MOL    F5228844   1.791   0.862   6.643 -0.1357 -0.3097  0.2804
  237MOL    C5328845   1.571   0.960   6.616 -0.1779  0.3904 -0.3076
  237MOL    H5428846   1.570   0.946   6.508  0.3570  1.1698 -0.4155
  237MOL    H5528847   1.632   1.049   6.630 -0.5042  0.9653 -2.4335
  237MOL    C5628848   1.431   0.992   6.683 -0.6589 -0.7486  0.6814
  237MOL    F5728849   1.347   0.887   6.674 -0.1048  0.0639 -0.2490
  237MOL    F5828850   1.442   1.034   6.811 -0.0756  0.6555  0.1454
  237MOL    C5928851   1.362   1.111   6.606 -0.3915  0.2584 -0.3973
  237MOL    H6028852   1.263   1.130   6.649 -0.7364 -1.4155 -0.4117
  237MOL    H6128853   1.340   1.078   6.504 -0.3549  1.2980 -0.7411
  237MOL    C6228854   1.448   1.241   6.608 -0.1943 -0.4205 -0.5405
  237MOL    F6328855   1.520   1.255   6.720  0.0240 -0.1259  0.1822
  237MOL    F6428856   1.531   1.243   6.499 -0.7227  0.6133  0.0711
  237MOL    C6528857   1.366   1.365   6.595 -0.8250  0.2375 -0.4759
  237MOL    H6628858   1.284   1.345   6.665  0.0217  0.8226  0.7037
  237MOL    H6728859   1.319   1.377   6.498  1.1304  0.0092 -1.4639
  237MOL    C6828860   1.424   1.508   6.629  0.6105 -0.0858  0.4865
  237MOL    F6928861   1.326   1.595   6.610  0.3554 -0.5635 -1.5456
  237MOL    F7028862   1.461   1.495   6.760 -0.1579  0.2982  0.0240
  237MOL    C7128863   1.551   1.532   6.545  0.0511 -0.2321 -0.1366
  237MOL    H7228864   1.614   1.443   6.538  1.9592  0.8020  3.1198
  237MOL    H7328865   1.599   1.606   6.609  0.4036 -0.8559  0.3231
  237MOL    C7428866   1.537   1.581   6.400  0.4085  0.0085 -0.6996
  237MOL    F7528867   1.452   1.501   6.339 -0.7190 -0.2121 -0.4910
  237MOL    F7628868   1.486   1.708   6.397  0.3102 -0.3061  0.2510
  237MOL    C7728869   1.659   1.568   6.307  0.0595  0.0667  0.6471
  237MOL    H7828870   1.630   1.551   6.203  1.6707 -1.0860  0.3584
  237MOL    H7928871   1.701   1.469   6.327  2.2098  0.6696 -0.7073
  237MOL    C8028872   1.778   1.677   6.325  0.1468  0.0475 -0.1583
  237MOL    F8128873   1.814   1.697   6.449 -0.1150 -0.2543  0.0813
  237MOL    F8228874   1.881   1.635   6.262  0.3418 -0.2695 -0.0193
  237MOL    C8328875   1.744   1.823   6.272  0.6856 -0.0355  0.9169
  237MOL    H8428876   1.676   1.869   6.344  0.8944  0.4751  0.7947
  237MOL    H8528877   1.687   1.812   6.180 -0.8070 -0.0265  1.8156
  237MOL    C8628878   1.859   1.921   6.257 -0.0470 -0.6896 -0.1110
  237MOL    F8728879   1.927   1.932   6.366 -0.1987  0.3172 -0.2386
  237MOL    F8828880   1.945   1.872   6.172 -0.3802  0.2909  0.2699
  237MOL    C8928881   1.820   2.066   6.210  0.0613  0.3780 -0.0807
  237MOL    H9028882   1.917   2.107   6.181 -0.0493  0.0573 -0.9012
  237MOL    H9128883   1.785   2.124   6.296  0.6747 -1.4213  1.4218
  237MOL    C9228884   1.713   2.078   6.097 -0.0433  0.0634 -0.7303
  237MOL    F9328885   1.736   1.991   6.002  0.2840 -0.7759  0.2649
  237MOL    F9428886   1.590   2.055   6.165  0.1725 -0.1273 -0.1059
  237MOL    C9528887   1.709   2.215   6.016 -0.4818  0.0857  0.8000
  237MOL    H9628888   1.627   2.204   5.945 -1.9738  2.5136  2.0876
  237MOL    H9728889   1.803   2.210   5.961  0.0424 -0.1812  1.6981
  237MOL    C9828890   1.693   2.339   6.100  0.8045 -0.2514  0.7354
  237MOL    F9928891   1.614   2.299   6.202  0.4587 -0.5704  0.5337
  237MOL   F10028892   1.811   2.366   6.156  0.1313 -0.6013  0.4214
  237MOL   C10128893   1.631   2.460   6.025  0.9030 -0.0591  0.1440
  237MOL   H10228894   1.548   2.414   5.972  0.8387  0.2240 -0.0012
  237MOL   H10328895   1.714   2.495   5.963 -0.0049  0.3043 -0.8728
  237MOL   C10428896   1.597   2.584   6.116 -0.1015  0.4100 -0.5276
  237MOL   F10528897   1.557   2.535   6.232 -0.5289 -0.7974  0.1082
  237MOL   F10628898   1.705   2.658   6.139  0.5428  0.3876  0.5513
  237MOL   C10728899   1.495   2.689   6.068 -0.1282 -0.6582  0.6730
  237MOL   H10828900   1.468   2.758   6.148  1.3681 -1.9019  2.2901
  237MOL   H10928901   1.400   2.640   6.047 -0.1387  0.3577 -1.8289
  237MOL   C11028902   1.538   2.766   5.943 -0.0487  0.7225 -0.2005
  237MOL   F11128903   1.649   2.841   5.959  0.0984 -0.1140 -0.0266
  237MOL   F11228904   1.563   2.673   5.850  0.7181 -0.4042  0.1266
  237MOL   C11328905   1.421   2.850   5.887  0.3764  0.4253 -0.0626
  237MOL   H11428906   1.370   2.906   5.966  0.0447 -0.6093  0.4636
  237MOL   H11528907   1.351   2.773   5.855 -1.9256  1.9158  1.3078
  237MOL   C11628908   1.455   2.931   5.757  0.2233 -0.6108  0.6019
  237MOL   F11728909   1.556   3.018   5.782 -0.5977  0.2105  0.3133
  237MOL   F11828910   1.498   2.850   5.666 -0.4475  0.1993  0.1751
  237MOL   C11928911   1.336   3.008   5.697  0.4803  0.6216  0.3181
  237MOL   H12028912   1.353   3.029   5.591  4.9494  0.3597  0.8615
  237MOL   H12128913   1.314   3.101   5.749  0.2952  0.4800  0.4909
  237MOL   H12228914   1.250   2.941   5.702  0.0529  1.0548 -1.0500
  238MOL     C128915   1.627   5.928   0.807  0.0677  0.1118  0.1355
  238MOL     F228916   1.718   5.832   0.795  0.0157  0.1934 -0.8759
  238MOL     F328917   1.609   5.959   0.934  0.4992  0.2038  0.1181
  238MOL     C428918   1.492   5.885   0.738 -0.1136  0.5708  0.8661
  238MOL     H528919   1.420   5.967   0.745 -0.1427  0.3793  3.0377
  238MOL     H628920   1.460   5.800   0.799  2.7259 -0.9519  0.2799
  238MOL     H728921   1.659   6.027   0.771  2.0520  0.7212  3.4071
  238MOL     C828922   1.512   5.837   0.589 -0.4104  0.4668  0.0663
  238MOL     F928923   1.554   5.946   0.520  0.1295 -0.6944  0.2937
  238MOL    F1028924   1.609   5.741   0.601 -0.4380 -0.0111 -0.7710
  238MOL    C1128925   1.384   5.784   0.521  0.3183 -0.1109  0.0551
  238MOL    H1228926   1.303   5.857   0.517  0.1236 -0.3371 -0.1522
  238MOL    H1328927   1.342   5.702   0.580 -1.2610 -0.2783 -1.2577
  238MOL    C1428928   1.390   5.733   0.374  0.2555 -0.0140 -0.2563
  238MOL    F1528929   1.490   5.644   0.359 -0.3652  0.0004 -0.0606
  238MOL    F1628930   1.280   5.662   0.363  0.3889  0.0236  0.0438
  238MOL    C1728931   1.399   5.851   0.273 -0.4127  0.8038 -0.5466
  238MOL    H1828932   1.496   5.901   0.277  0.9682 -1.5224 -3.1273
  238MOL    H1928933   1.323   5.924   0.300 -0.4822  0.5274  0.0076
  238MOL    C2028934   1.391   5.801   0.129  0.0044  0.1834  0.1150
  238MOL    F2128935   1.496   5.720   0.098 -0.1003  0.0317 -0.3751
  238MOL    F2228936   1.279   5.733   0.106  0.4698 -0.1064  0.3585
  238MOL    C2328937   1.390   5.912   0.023 -0.2689  0.3406 -0.3216
  238MOL    H2428938   1.308   5.979   0.049 -0.3421  0.7156 -1.4779
  238MOL    H2528939   1.356   5.862   8.282  0.7615  0.4397 -0.7684
  238MOL    C2628940   1.524   5.984   8.343  0.1073  0.5198 -0.3156
  238MOL    F2728941   1.570   6.057   0.091 -0.4520 -0.3569 -0.8059
  238MOL    F2828942   1.613   5.892   8.310 -0.0312  0.0108 -0.1701
  238MOL    C2928943   1.504   6.080   8.224  0.6881  0.7356  0.0428
  238MOL    H3028944   1.465   6.033   8.134  1.4073 -1.1111  0.6605
  238MOL    H3128945   1.596   6.132   8.199  0.4961  0.9108 -0.3013
  238MOL    C3228946   1.403   6.202   8.256  0.2207  0.0707  0.0072
  238MOL    F3328947   1.277   6.154   8.252 -0.0876  0.1897 -0.1652
  238MOL    F3428948   1.424   6.248   0.028 -0.0945  0.2269  0.0351
  238MOL    C3528949   1.417   6.325   8.162  0.0644 -0.9422  0.0708
  238MOL    H3628950   1.516   6.370   8.169 -0.1872  0.0288 -2.0488
  238MOL    H3728951   1.340   6.391   8.200  0.1597  1.0958 -3.1145
  238MOL    C3828952   1.395   6.299   8.009 -1.0278  0.0097  0.0105
  238MOL    F3928953   1.501   6.235   7.959  0.4374  0.0530 -0.2109
  238MOL    F4028954   1.277   6.237   7.995  0.1257  0.3314  0.0885
  238MOL    C4128955   1.413   6.436   7.933  0.1425  0.0368 -0.3982
  238MOL    H4228956   1.520   6.459   7.937  0.1858 -0.2721  0.3102
  238MOL    H4328957   1.360   6.518   7.981 -0.6150 -1.2515  0.9794
  238MOL    C4428958   1.383   6.435   7.784 -0.0903  0.1692  0.6224
  238MOL    F4528959   1.413   6.548   7.734  0.0686  0.1536 -0.6889
  238MOL    F4628960   1.464   6.347   7.725  0.0670  0.2218 -0.3862
  238MOL    C4728961   1.236   6.399   7.759  0.4711  0.5607 -0.5363
  238MOL    H4828962   1.173   6.456   7.827 -0.5528  0.0717 -1.0621
  238MOL    H4928963   1.200   6.299   7.783 -4.0992  1.9006 -1.4027
  238MOL    C5028964   1.176   6.444   7.622 -0.7577  0.2926  0.4537
  238MOL    F5128965   1.045   6.420   7.624  0.1601 -0.0255  0.4624
  238MOL    F5228966   1.195   6.575   7.616  0.0450  0.0047 -0.0862
  238MOL    C5328967   1.237   6.351   7.508  0.2059 -0.0170 -0.4105
  238MOL    H5428968   1.182   6.257   7.493 -0.5209  0.3093  0.1674
  238MOL    H5528969   1.343   6.338   7.529  0.5640 -0.9374 -2.6088
  238MOL    C5628970   1.227   6.409   7.363 -0.8203 -0.1596  0.0266
  238MOL    F5728971   1.098   6.405   7.333  0.6309  0.2822  0.3292
  238MOL    F5828972   1.264   6.531   7.379  0.3599 -0.1545  0.2145
  238MOL    C5928973   1.316   6.336   7.255  0.0292  0.0073 -0.5421
  238MOL    H6028974   1.313   6.381   7.156  1.7975  0.3898 -0.4253
  238MOL    H6128975   1.264   6.243   7.229  0.3892 -0.3863  0.1251
  238MOL    C6228976   1.463   6.300   7.295 -0.1799  0.2630  0.3985
  238MOL    F6328977   1.466   6.221   7.405 -0.1063 -0.0876  0.1774
  238MOL    F6428978   1.510   6.231   7.188  0.5787 -0.4028 -0.2840
  238MOL    C6528979   1.550   6.423   7.320  0.6302  0.2787 -0.4242
  238MOL    H6628980   1.500   6.490   7.390  0.3371 -0.0446 -0.3225
  238MOL    H6728981   1.559   6.482   7.229  0.4260 -2.8603 -2.5390
  238MOL    C6828982   1.684   6.389   7.386 -0.8668 -0.0249 -0.0094
  238MOL    F6928983   1.665   6.330   7.504  0.3998  0.4064  0.0145
  238MOL    F7028984   1.742   6.310   7.306  0.2167  0.3760 -0.1360
  238MOL    C7128985   1.780   6.507   7.405 -0.2200 -0.0471  0.2946
  238MOL    H7228986   1.725   6.591   7.449 -0.4744  2.0939 -3.8061
  238MOL    H7328987   1.816   6.567   7.321 -0.3050  1.1538  1.0916
  238MOL    C7428988   1.905   6.483   7.488  0.4151 -0.0897 -0.7122
  238MOL    F7528989   1.964   6.391   7.415 -0.0918  0.1840 -0.4670
  238MOL    F7628990   1.975   6.595   7.496  0.6715  0.5446 -0.8040
  238MOL    C7728991   1.893   6.447   7.640 -0.4577  0.3459 -0.2598
  238MOL    H7828992   1.993   6.413   7.668 -0.1601  1.4214  0.0334
  238MOL    H7928993   1.827   6.363   7.660  1.7016 -0.5626  3.4269
  238MOL    C8028994   1.861   6.551   7.750  0.0333 -0.3983  0.0253
  238MOL    F8128995   1.959   6.647   7.749 -0.1003  0.2236  0.2504
  238MOL    F8228996   1.742   6.609   7.729 -0.1532 -0.2090 -0.1651
  238MOL    C8328997   1.854   6.499   7.895  0.1530 -0.6264  0.6498
  238MOL    H8428998   1.771   6.430   7.905  0.2679 -0.6882  1.2007
  238MOL    H8528999   1.841   6.587   7.957 -4.0214 -1.3784  0.9729
  238MOL    C8629000   1.983   6.421   7.948 -0.1704 -0.1549 -0.1436
  238MOL    F8729001   1.976   6.295   7.908 -0.2150 -0.5177  0.2589
  238MOL    F8829002   2.091   6.478   7.891  0.0732  0.3613  0.3403
  238MOL    C8929003   1.996   6.418   8.099  0.1786 -0.5942  0.2513
  238MOL    H9029004   2.057   6.504   8.126  1.3791 -0.8810 -1.4664
  238MOL    H9129005   2.058   6.331   8.120  0.2444 -0.9279 -1.2318
  238MOL    C9229006   1.863   6.406   8.177 -0.0357 -0.8828 -0.5111
  238MOL    F9329007   1.776   6.502   8.152  0.1225  0.2138 -0.2474
  238MOL    F9429008   1.808   6.288   8.141  0.1874  0.2804 -0.1254
  238MOL    C9529009   1.887   6.403   8.332 -0.3272  0.7840  0.7468
  238MOL    H9629010   1.965   6.479   8.336  0.2980  0.1527  0.7620
  238MOL    H9729011   1.931   6.304   8.349  0.2476  0.6804 -1.1954
  238MOL    C9829012   1.766   6.435   0.077 -0.0016  0.2518 -0.0325
  238MOL    F9929013   1.725   6.561   0.066  0.5175  0.0464 -0.6123
  238MOL   F10029014   1.678   6.345   0.044 -0.0497 -0.5012 -0.4937
  238MOL   C10129015   1.799   6.410   0.223  0.0254  0.3806  0.6632
  238MOL   H10229016   1.899   6.442   0.253  1.1829 -1.0106 -1.5290
  238MOL   H10329017   1.795   6.302   0.240 -0.1969  0.6203  2.1112
  238MOL   C10429018   1.698   6.463   0.328 -0.2793  0.3923  1.1886
  238MOL   F10529019   1.714   6.398   0.440  0.2242  0.2624 -0.0446
  238MOL   F10629020   1.713   6.589   0.349  0.2884 -0.5561  0.4951
  238MOL   C10729021   1.551   6.442   0.277 -0.9156 -0.2153  0.9151
  238MOL   H10829022   1.539   6.335   0.259  0.9994  0.2801 -4.0509
  238MOL   H10929023   1.529   6.497   0.185  1.7658  1.5113  1.2592
  238MOL   C11029024   1.450   6.501   0.380 -0.6163 -0.5856 -0.3929
  238MOL   F11129025   1.481   6.476   0.506 -0.2669  0.1490  0.1620
  238MOL   F11229026   1.457   6.632   0.350 -0.3700 -0.1850  0.0470
  238MOL   C11329027   1.312   6.453   0.354 -0.7389  0.5629 -0.1588
  238MOL   H11429028   1.305   6.451   0.245 -0.1041  0.5557 -0.1993
  238MOL   H11529029   1.245   6.527   0.398  0.6076  1.3231  0.6062
  238MOL   C11629030   1.281   6.305   0.405  0.3244 -0.6039 -0.5953
  238MOL   F11729031   1.186   6.258   0.327 -0.7853 -0.2898 -0.1813
  238MOL   F11829032   1.383   6.221   0.395 -0.0145 -0.0683  0.8153
  238MOL   C11929033   1.229   6.302   0.549  1.0709 -0.6388  0.3395
  238MOL   H12029034   1.308   6.328   0.619  0.5091 -1.5590  1.3278
  238MOL   H12129035   1.208   6.198   0.574 -0.4597 -0.4857 -0.2277
  238MOL   H12229036   1.135   6.355   0.569  0.0287 -2.8401  1.4206
  239MOL     C129037   4.136   8.322   0.880 -0.0145 -0.2841  0.8414
  239MOL     F229038   4.044   0.058   0.935  0.0632 -0.1125  0.2273
  239MOL     F329039   4.221   0.057   0.820 -0.7964  0.1486 -0.4652
  239MOL     C429040   4.070   8.218   0.790 -0.4088  0.2119 -0.1141
  239MOL     H529041   4.009   8.259   0.709  0.4951  2.2853  0.2224
  239MOL     H629042   3.991   8.172   0.848 -0.9551 -2.8440 -3.1089
  239MOL     H729043   4.187   8.269   0.961  1.3988 -1.9631 -1.1095
  239MOL     C829044   4.165   8.110   0.739  0.1877  0.3732  0.0844
  239MOL     F929045   4.278   8.179   0.710 -0.1269  0.4392  0.0609
  239MOL    F1029046   4.190   8.020   0.828  0.8094 -0.3006 -0.2438
  239MOL    C1129047   4.113   8.016   0.621  0.2773  0.5296 -0.8434
  239MOL    H1229048   4.075   8.082   0.542 -2.2528 -2.1118 -1.9443
  239MOL    H1329049   4.018   7.967   0.642 -0.0438 -0.2469 -3.8889
  239MOL    C1429050   4.206   7.914   0.561 -0.0502  0.5274 -0.5291
  239MOL    F1529051   4.281   7.852   0.661 -0.1778  0.1340 -0.1586
  239MOL    F1629052   4.137   7.816   0.499 -0.1559  0.3184 -0.1849
  239MOL    C1729053   4.307   7.970   0.453  0.7413  0.0468 -0.2865
  239MOL    H1829054   4.379   7.890   0.437 -0.8709 -1.7263  1.0169
  239MOL    H1929055   4.363   8.055   0.492  1.3387  0.2944 -1.6328
  239MOL    C2029056   4.256   8.014   0.309  0.4027 -0.6171 -0.2337
  239MOL    F2129057   4.167   7.923   0.264  0.3865 -0.1453  0.4937
  239MOL    F2229058   4.203   8.136   0.315 -0.0908  0.1438 -0.2772
  239MOL    C2329059   4.372   8.010   0.197  0.4534 -0.6664 -0.1800
  239MOL    H2429060   4.318   8.049   0.110 -0.2910  0.5077  0.7955
  239MOL    H2529061   4.380   7.902   0.190  0.1222 -0.6159 -1.4439
  239MOL    C2629062   4.500   8.090   0.234  0.9692  0.3922  0.0446
  239MOL    F2729063   4.448   8.214   0.259  0.1637  0.2321 -0.5040
  239MOL    F2829064   4.562   8.052   0.341 -0.6684 -0.0398 -0.2710
  239MOL    C2929065   4.603   8.095   0.119 -0.5647 -0.4056 -0.1243
  239MOL    H3029066   4.683   8.157   0.159  0.8969 -1.8041 -0.7756
  239MOL    H3129067   4.562   8.147   0.032  0.2882  0.0565 -0.2557
  239MOL    C3229068   4.655   7.962   0.058 -0.2490 -0.4336 -0.7433
  239MOL    F3329069   4.680   7.878   0.158 -0.7648  0.5810  0.0150
  239MOL    F3429070   4.553   7.902   8.344 -0.2329  0.3023  0.0357
  239MOL    C3529071   4.773   7.974   8.308 -0.0833 -0.1021  0.2640
  239MOL    H3629072   4.863   8.002   0.012 -0.8946  0.3449  1.4061
  239MOL    H3729073   4.764   8.058   8.239 -1.1968 -1.9417 -1.9157
  239MOL    C3829074   4.810   7.859   8.204  0.5027 -0.1228 -0.3915
  239MOL    F3929075   4.708   7.835   8.123  0.2453 -0.0759 -0.0196
  239MOL    F4029076   4.909   7.904   8.130  0.6453  0.2217 -0.2181
  239MOL    C4129077   4.823   7.724   8.276  0.0328  0.7477 -0.6934
  239MOL    H4229078   4.845   7.644   8.205  0.7007 -0.4761  0.8474
  239MOL    H4329079   4.732   7.706   8.334  0.4707  0.1017 -0.1970
  239MOL    C4429080   4.938   7.708   0.026 -0.2246 -0.2347 -0.5823
  239MOL    F4529081   5.048   7.729   8.299  0.2387 -0.6163 -0.8522
  239MOL    F4629082   4.932   7.812   0.115 -0.1075  0.2269 -0.3833
  239MOL    C4729083   4.943   7.581   0.113  0.8187 -0.3079 -0.3743
  239MOL    H4829084   5.036   7.583   0.169  0.2734 -0.8766  0.5711
  239MOL    H4929085   4.954   7.491   0.053  0.5206  0.4836 -1.6571
  239MOL    C5029086   4.823   7.572   0.220  0.1849 -0.3992 -0.0431
  239MOL    F5129087   4.815   7.659   0.314 -0.2426 -0.0379  0.0819
  239MOL    F5229088   4.708   7.545   0.156 -0.3468  0.0623  0.3758
  239MOL    C5329089   4.841   7.440   0.289  1.2400  0.1349  0.5712
  239MOL    H5429090   4.855   7.356   0.221 -2.4290  0.0970 -0.2664
  239MOL    H5529091   4.744   7.410   0.331  0.2215  2.5264 -0.0276
  239MOL    C5629092   4.951   7.421   0.404  0.0441  0.3150  0.2627
  239MOL    F5729093   5.073   7.451   0.353 -0.1687  0.5158  0.0806
  239MOL    F5829094   4.934   7.496   0.506 -0.6432 -0.3696 -0.3316
  239MOL    C5929095   4.954   7.275   0.456  0.7952  0.3947  0.4857
  239MOL    H6029096   4.958   7.209   0.370 -0.8367 -0.3144  0.9360
  239MOL    H6129097   4.860   7.251   0.507 -0.0269 -3.2344 -2.5117
  239MOL    C6229098   5.053   7.233   0.565 -0.0733  0.5020 -0.3081
  239MOL    F6329099   5.040   7.097   0.576 -0.4138 -0.2254 -0.1573
  239MOL    F6429100   5.172   7.266   0.513 -0.4735 -0.0793  0.1603
  239MOL    C6529101   5.034   7.305   0.700  1.1334 -0.8710 -0.1016
  239MOL    H6629102   4.930   7.291   0.730  1.3705  0.5011  1.4296
  239MOL    H6729103   5.051   7.410   0.679  3.9421 -1.7810 -2.7038
  239MOL    C6829104   5.137   7.276   0.818  0.5796 -0.0094 -0.2894
  239MOL    F6929105   5.262   7.296   0.782 -0.0706 -0.0639 -0.2801
  239MOL    F7029106   5.097   7.357   0.913 -0.4041  0.4060  0.0063
  239MOL    C7129107   5.126   7.134   0.865 -0.1865 -0.5566  0.2092
  239MOL    H7229108   5.169   7.063   0.795  0.1299  0.2556 -0.4197
  239MOL    H7329109   5.022   7.100   0.868  0.1801 -1.7355 -0.3434
  239MOL    C7429110   5.198   7.108   1.002 -0.1758 -0.3459 -0.4404
  239MOL    F7529111   5.121   7.154   1.093  0.1011  0.0774 -0.1273
  239MOL    F7629112   5.201   6.981   1.018  0.3716 -0.0746  0.0502
  239MOL    C7729113   5.334   7.174   1.019  0.0827 -0.0942 -0.2833
  239MOL    H7829114   5.325   7.281   1.039 -0.2566  0.0556 -1.2448
  239MOL    H7929115   5.390   7.151   0.929 -2.3288 -1.8000 -1.4117
  239MOL    C8029116   5.418   7.127   1.139  0.4423  0.7396 -0.2691
  239MOL    F8129117   5.340   7.153   1.245  0.4799  0.0002  0.1913
  239MOL    F8229118   5.443   6.993   1.125 -0.0228  0.3584  0.0806
  239MOL    C8329119   5.554   7.204   1.135  0.1642  0.7783  0.3469
  239MOL    H8429120   5.524   7.306   1.160 -1.6615  0.3795 -0.1657
  239MOL    H8529121   5.585   7.208   1.031 -1.6696 -1.6575 -0.3231
  239MOL    C8629122   5.658   7.147   1.223 -0.2601 -0.2453 -0.6818
  239MOL    F8729123   5.700   7.040   1.160 -0.3678  0.1153  0.7629
  239MOL    F8829124   5.754   7.236   1.239 -0.1613  0.6370  0.0484
  239MOL    C8929125   5.624   7.096   1.361  0.2015  0.3076 -0.3458
  239MOL    H9029126   5.537   7.031   1.363  0.2763  0.2408  1.0811
  239MOL    H9129127   5.579   7.177   1.418 -2.7544 -1.4732 -0.0846
  239MOL    C9229128   5.724   7.027   1.450  0.3682 -0.1639  0.1474
  239MOL    F9329129   5.793   6.935   1.376  0.0467 -0.4542 -0.1668
  239MOL    F9429130   5.809   7.118   1.488 -0.4771  0.1269 -0.1902
  239MOL    C9529131   5.672   6.948   1.572 -0.5621 -0.6355 -0.0410
  239MOL    H9629132   5.756   6.912   1.632 -0.4317  1.2982  1.0042
  239MOL    H9729133   5.618   6.863   1.531  1.7487 -1.5299 -1.3293
  239MOL    C9829134   5.594   7.033   1.669 -0.2336  0.0434 -0.1498
  239MOL    F9929135   5.673   7.132   1.712  0.0738  0.7951 -0.2528
  239MOL   F10029136   5.483   7.085   1.617 -0.2793  0.4774 -0.1272
  239MOL   C10129137   5.556   6.958   1.796  0.0021  0.2103  0.6124
  239MOL   H10229138   5.463   6.901   1.782 -0.1012  0.8078 -1.2478
  239MOL   H10329139   5.530   7.030   1.873 -1.1951 -0.7940  1.1813
  239MOL   C10429140   5.647   6.847   1.851  0.2553  0.3083  0.3592
  239MOL   F10529141   5.633   6.736   1.775  0.6503  0.2904  1.0219
  239MOL   F10629142   5.776   6.877   1.857  0.3454 -0.3045  0.1703
  239MOL   C10729143   5.618   6.820   2.001 -0.4664 -0.0950  0.3497
  239MOL   H10829144   5.644   6.916   2.046 -2.8890  1.2348 -1.0039
  239MOL   H10929145   5.686   6.746   2.043 -0.8549  0.9601  2.8952
  239MOL   C11029146   5.470   6.771   2.024 -0.0508 -0.0624 -0.2728
  239MOL   F11129147   5.377   6.864   2.007 -0.6665 -0.4275 -0.4503
  239MOL   F11229148   5.443   6.677   1.926  0.4444  0.3416 -0.0273
  239MOL   C11329149   5.453   6.711   2.163 -0.6747  0.7159  0.0749
  239MOL   H11429150   5.497   6.794   2.219  2.7224 -1.3322  0.6160
  239MOL   H11529151   5.513   6.621   2.174 -2.0484 -0.0395  1.6068
  239MOL   C11629152   5.308   6.684   2.205  0.8710  0.0003 -0.5084
  239MOL   F11729153   5.306   6.609   2.316 -0.0980 -0.4474  0.3981
  239MOL   F11829154   5.237   6.798   2.228 -0.7794 -0.4000 -0.6062
  239MOL   C11929155   5.229   6.596   2.114  0.3309 -0.5642 -0.2445
  239MOL   H12029156   5.130   6.572   2.154 -1.0394  1.2223 -2.4117
  239MOL   H12129157   5.272   6.497   2.100  2.3117 -0.1043  2.2688
  239MOL   H12229158   5.209   6.645   2.019 -0.2625 -1.0247 -0.3587
  240MOL     C129159   3.824   7.654   3.417  0.6267 -0.3537 -0.3456
  240MOL     F229160   3.907   7.545   3.394 -0.0830  0.0722  0.3708
  240MOL     F329161   3.706   7.599   3.459 -0.0763  0.0191  0.2857
  240MOL     C429162   3.792   7.744   3.298 -0.1451 -0.1620  0.1214
  240MOL     H529163   3.694   7.789   3.314 -0.5538 -0.3259 -1.8131
  240MOL     H629164   3.781   7.683   3.209  2.8308 -1.6959  0.7509
  240MOL     H729165   3.867   7.710   3.499  3.6033  0.4531 -2.3973
  240MOL     C829166   3.906   7.842   3.271 -0.1954 -0.1383  0.3065
  240MOL     F929167   3.946   7.891   3.383 -0.8552 -0.1919 -0.0513
  240MOL    F1029168   4.003   7.770   3.216 -0.3280 -0.1262  0.1180
  240MOL    C1129169   3.857   7.948   3.168 -0.2729  0.5562 -0.1610
  240MOL    H1229170   3.774   8.001   3.216 -1.5931 -0.4628 -1.2706
  240MOL    H1329171   3.805   7.900   3.085 -0.5792  2.5464 -1.1436
  240MOL    C1429172   3.965   8.051   3.121 -0.0079 -0.4605 -0.0134
  240MOL    F1529173   4.001   8.142   3.214  0.1065 -0.2104 -0.2082
  240MOL    F1629174   4.070   7.979   3.083  0.1026 -0.6246 -0.6044
  240MOL    C1729175   3.920   8.137   3.000 -0.3610  0.3351  0.0368
  240MOL    H1829176   3.889   8.068   2.921  0.6243  1.7746 -1.6568
  240MOL    H1929177   4.005   8.195   2.963  0.6526 -1.3561 -0.3096
  240MOL    C2029178   3.805   8.241   3.029  0.2704 -0.0567 -0.4005
  240MOL    F2129179   3.697   8.188   3.076 -0.2178 -0.0578 -0.3128
  240MOL    F2229180   3.845   8.329   3.126  0.2572  0.1208  0.0005
  240MOL    C2329181   3.752   8.319   2.902  0.4024 -0.0383 -0.2890
  240MOL    H2429182   3.740   8.254   2.815 -0.0651 -0.8616  0.3728
  240MOL    H2529183   3.838   0.033   2.886  0.4299  0.0276  0.1312
  240MOL    C2629184   3.625   0.054   2.922  0.0646  0.1474 -0.7239
  240MOL    F2729185   3.525   8.318   2.949 -0.3462 -0.4918 -0.2867
  240MOL    F2829186   3.642   0.138   3.020 -0.3852 -0.8682 -0.0159
  240MOL    C2929187   3.582   0.125   2.795  0.2775 -0.0251  0.1396
  240MOL    H3029188   3.483   0.166   2.812  0.6780  0.0761  2.3200
  240MOL    H3129189   3.563   0.049   2.720 -0.2356 -0.6080  0.8576
  240MOL    C3229190   3.666   0.230   2.727 -0.2800  0.1751 -0.5759
  240MOL    F3329191   3.702   0.323   2.823  0.4160  0.2333  0.2075
  240MOL    F3429192   3.778   0.168   2.686 -0.0078 -0.0114  0.7977
  240MOL    C3529193   3.610   0.294   2.597 -0.6019  0.8136 -0.1092
  240MOL    H3629194   3.520   0.345   2.631  0.0475  1.8822  0.0043
  240MOL    H3729195   3.587   0.211   2.530  0.7965  0.9628 -0.8065
  240MOL    C3829196   3.699   0.394   2.523  0.3568 -0.1461 -0.6487
  240MOL    F3929197   3.716   0.494   2.606  0.1438  0.3295  0.5085
  240MOL    F4029198   3.814   0.345   2.488  0.3891  0.4019 -0.3694
  240MOL    C4129199   3.625   0.447   2.400  0.3940  1.0773 -0.0414
  240MOL    H4229200   3.535   0.503   2.428  0.2713  0.7626  0.2015
  240MOL    H4329201   3.599   0.366   2.333  1.1358  0.8319 -0.0345
  240MOL    C4429202   3.703   0.541   2.317 -0.7586 -0.5538 -0.4930
  240MOL    F4529203   3.796   0.481   2.247 -0.2868 -0.1580  0.6471
  240MOL    F4629204   3.619   0.605   2.236  0.3813  0.1885  0.3168
  240MOL    C4729205   3.774   0.665   2.390  0.5822  0.3316 -0.2587
  240MOL    H4829206   3.856   0.627   2.451 -1.1251 -3.5681 -0.2531
  240MOL    H4929207   3.700   0.711   2.455 -0.4709  1.0686 -1.9483
  240MOL    C5029208   3.836   0.781   2.308  0.3610 -0.6716  0.5770
  240MOL    F5129209   3.746   0.854   2.248  0.3059 -0.2143  0.1666
  240MOL    F5229210   3.894   0.854   2.389  0.1507 -0.0397  0.1356
  240MOL    C5329211   3.933   0.723   2.201 -0.0188 -0.2915 -0.2528
  240MOL    H5429212   3.882   0.660   2.128  0.8963 -2.1393  0.6721
  240MOL    H5529213   4.019   0.667   2.237  0.1931 -0.0790 -0.4287
  240MOL    C5629214   4.002   0.825   2.111  0.6306  0.4030 -0.6320
  240MOL    F5729215   4.064   0.756   2.021  0.5631 -0.0111 -0.1568
  240MOL    F5829216   3.920   0.899   2.036 -0.6558 -0.2239  0.3991
  240MOL    C5929217   4.107   0.913   2.175  0.0890  0.1590 -0.3545
  240MOL    H6029218   4.056   0.985   2.239 -0.2858  0.2494 -0.7515
  240MOL    H6129219   4.155   0.978   2.101 -0.3516  1.3030  0.3425
  240MOL    C6229220   4.224   0.850   2.260 -0.0081 -0.2501 -0.2503
  240MOL    F6329221   4.177   0.803   2.373  0.4372 -0.4102 -0.2291
  240MOL    F6429222   4.274   0.747   2.191 -0.2364 -0.2823 -0.1860
  240MOL    C6529223   4.344   0.949   2.286 -0.0500 -0.4474 -0.1904
  240MOL    H6629224   4.389   0.970   2.189  2.3854  1.4467  1.2960
  240MOL    H6729225   4.407   0.891   2.354  2.4749  0.7941 -1.4024
  240MOL    C6829226   4.293   1.077   2.356 -0.0871  0.6581  0.6988
  240MOL    F6929227   4.210   1.141   2.273  0.2493  0.0206  0.3910
  240MOL    F7029228   4.240   1.048   2.474  0.2288 -0.3224 -0.1283
  240MOL    C7129229   4.414   1.166   2.373  0.2666  0.0124 -0.5991
  240MOL    H7229230   4.449   1.185   2.272  3.1274 -1.4016  0.0578
  240MOL    H7329231   4.483   1.105   2.432 -0.1327 -0.5878 -0.7541
  240MOL    C7429232   4.389   1.300   2.431  0.5151 -0.1962 -0.2233
  240MOL    F7529233   4.299   1.372   2.369  0.0331  0.4126 -0.4945
  240MOL    F7629234   4.332   1.281   2.546 -0.3402  0.2107  0.0945
  240MOL    C7729235   4.509   1.390   2.456  0.0225  0.3207 -0.0759
  240MOL    H7829236   4.573   1.340   2.529  0.7801 -1.6280 -2.0116
  240MOL    H7929237   4.487   1.482   2.511 -3.0957 -2.3799  3.5193
  240MOL    C8029238   4.587   1.423   2.321 -0.1707 -0.1155 -0.1228
  240MOL    F8129239   4.686   1.509   2.363 -0.3350  0.5548 -0.1354
  240MOL    F8229240   4.649   1.312   2.283 -0.3914 -0.0169 -0.1980
  240MOL    C8329241   4.505   1.474   2.200  0.3301 -0.1731 -0.0881
  240MOL    H8429242   4.424   1.409   2.167  0.0221  0.1994 -0.0720
  240MOL    H8529243   4.565   1.478   2.108 -1.7503  0.3543 -1.4620
  240MOL    C8629244   4.471   1.623   2.213 -0.7905  0.3192 -0.5513
  240MOL    F8729245   4.582   1.701   2.234  0.0545 -0.4114  0.5842
  240MOL    F8829246   4.435   1.647   2.089 -0.1884  0.7325  0.3099
  240MOL    C8929247   4.342   1.661   2.292 -0.5792  0.6917  0.3370
  240MOL    H9029248   4.348   1.622   2.394 -1.2158 -0.4414 -0.0487
  240MOL    H9129249   4.249   1.627   2.246  0.1742 -0.7350 -0.1890
  240MOL    C9229250   4.319   1.807   2.316 -0.3138 -0.0608  0.4975
  240MOL    F9329251   4.197   1.815   2.374  0.3776  0.0619 -0.5514
  240MOL    F9429252   4.416   1.853   2.397 -0.0996 -0.2936  0.0440
  240MOL    C9529253   4.309   1.896   2.183 -0.3771  0.3823 -0.9120
  240MOL    H9629254   4.242   1.842   2.115 -0.2475 -0.7055 -0.1810
  240MOL    H9729255   4.407   1.899   2.136 -0.7517  1.1987 -1.6812
  240MOL    C9829256   4.265   2.044   2.206 -0.1930 -0.5841 -0.6103
  240MOL    F9929257   4.247   2.109   2.089  0.2843  0.0802  0.5482
  240MOL   F10029258   4.142   2.050   2.265 -0.4720 -0.4400 -0.1321
  240MOL   C10129259   4.360   2.136   2.285  0.5351  0.1222 -0.1210
  240MOL   H10229260   4.461   2.109   2.254  1.1262 -1.5687  2.9955
  240MOL   H10329261   4.362   2.125   2.394  0.5291 -1.3167 -0.2513
  240MOL   C10429262   4.341   2.287   2.273 -0.7324  0.2617  0.7577
  240MOL   F10529263   4.213   2.320   2.278  0.7249  0.4438  0.3150
  240MOL   F10629264   4.399   2.346   2.375 -0.5100  0.0085 -0.3855
  240MOL   C10729265   4.398   2.351   2.149 -0.2961 -0.4452  0.1219
  240MOL   H10829266   4.361   2.303   2.058  1.3426  1.3976 -1.5626
  240MOL   H10929267   4.505   2.331   2.146 -0.4246 -1.1541  0.0377
  240MOL   C11029268   4.382   2.503   2.136  0.9643  0.3297 -0.6193
  240MOL   F11129269   4.247   2.529   2.153 -0.1482 -0.1290 -0.5354
  240MOL   F11229270   4.444   2.573   2.226  0.2103 -0.7895 -0.4634
  240MOL   C11329271   4.432   2.555   1.999  0.5819  0.0578 -0.6790
  240MOL   H11429272   4.363   2.516   1.925 -1.2409 -0.3440  1.1996
  240MOL   H11529273   4.536   2.524   1.987  0.8107 -0.8021  3.1697
  240MOL   C11629274   4.427   2.710   1.982  0.5941 -0.2729 -0.8438
  240MOL   F11729275   4.488   2.775   2.082  0.2338 -0.3313  0.3859
  240MOL   F11829276   4.506   2.730   1.881  0.2502  0.1514  0.0087
  240MOL   C11929277   4.293   2.770   1.930 -0.1331 -0.0322 -0.0570
  240MOL   H12029278   4.213   2.757   2.002  0.6816 -0.8936  0.7144
  240MOL   H12129279   4.251   2.712   1.848 -1.2187 -1.2236  1.3324
  240MOL   H12229280   4.296   2.876   1.906  0.5743  0.3455  1.6430
  241MOL     C129281   3.567   6.161   0.475 -0.0665  0.5419  0.3376
  241MOL     F229282   3.579   6.200   0.346  0.4968  0.3015  0.5318
  241MOL     F329283   3.462   6.222   0.532 -0.0585 -0.3170 -0.3162
  241MOL     C429284   3.696   6.183   0.560  0.9131 -0.2874  0.5130
  241MOL     H529285   3.655   6.157   0.658  0.1975 -1.8198 -0.1783
  241MOL     H629286   3.729   6.287   0.560 -0.0865  0.0358  0.7103
  241MOL     H729287   3.545   6.054   0.475  0.0476  0.5198 -0.5234
  241MOL     C829288   3.810   6.097   0.516 -0.6139  0.4751  0.7341
  241MOL     F929289   3.764   5.973   0.482 -0.1110  0.8722 -0.5320
  241MOL    F1029290   3.876   6.141   0.412 -0.2658 -0.2103 -0.3625
  241MOL    C1129291   3.923   6.088   0.615 -0.4917 -0.4243 -0.3027
  241MOL    H1229292   4.005   6.026   0.581  1.5862  1.6206  0.8287
  241MOL    H1329293   3.888   6.040   0.706 -2.0039 -1.7621 -1.5582
  241MOL    C1429294   3.985   6.220   0.672 -0.1448 -0.4444 -0.2381
  241MOL    F1529295   4.015   6.300   0.574 -0.3303  0.1597 -0.2309
  241MOL    F1629296   3.896   6.275   0.754 -0.5090  0.0525  0.4147
  241MOL    C1729297   4.105   6.194   0.770 -0.0125 -0.3870 -0.6276
  241MOL    H1829298   4.177   6.122   0.732 -0.2729 -0.1300 -1.6199
  241MOL    H1929299   4.074   6.146   0.863  0.3844  1.9486  0.7613
  241MOL    C2029300   4.187   6.312   0.827  0.0133 -0.1035 -0.3702
  241MOL    F2129301   4.272   6.248   0.901 -0.3938  0.5375 -0.4461
  241MOL    F2229302   4.254   6.356   0.721 -0.1703 -0.0681  0.2057
  241MOL    C2329303   4.106   6.422   0.893  0.0736 -0.1904 -0.2371
  241MOL    H2429304   4.025   6.382   0.954  0.3594  1.1540  1.0715
  241MOL    H2529305   4.042   6.461   0.814 -0.2704  0.4075  0.3386
  241MOL    C2629306   4.189   6.537   0.963 -0.1496  0.0868  0.1114
  241MOL    F2729307   4.250   6.609   0.867  0.4636  0.3276 -0.0011
  241MOL    F2829308   4.089   6.615   1.014 -0.3698 -0.0122  0.1510
  241MOL    C2929309   4.290   6.490   1.075 -0.6397 -0.9921 -0.6888
  241MOL    H3029310   4.378   6.443   1.030 -0.1132  0.1850 -0.9094
  241MOL    H3129311   4.249   6.406   1.130  0.4696  0.3102  2.2379
  241MOL    C3229312   4.341   6.602   1.166 -0.2254 -0.1946  0.0031
  241MOL    F3329313   4.379   6.708   1.097 -0.2913  0.1234 -0.0867
  241MOL    F3429314   4.237   6.637   1.245 -0.4995  0.1620  0.4088
  241MOL    C3529315   4.453   6.557   1.256 -0.3458 -0.5469 -0.1702
  241MOL    H3629316   4.546   6.538   1.202  0.4126 -1.2578  1.3500
  241MOL    H3729317   4.421   6.465   1.305 -0.0394  0.2627  1.6063
  241MOL    C3829318   4.485   6.663   1.368  0.4598 -0.6140 -0.3642
  241MOL    F3929319   4.607   6.627   1.412  0.0083 -0.0165  0.2392
  241MOL    F4029320   4.506   6.782   1.311  0.1112  0.0688 -0.2921
  241MOL    C4129321   4.387   6.675   1.490 -0.1126  0.4467 -0.2654
  241MOL    H4229322   4.382   6.569   1.518  0.4973  0.3112 -0.6779
  241MOL    H4329323   4.286   6.711   1.469  0.3771  2.9650  1.4295
  241MOL    C4429324   4.435   6.746   1.620  0.0135 -0.0211  0.3677
  241MOL    F4529325   4.344   6.695   1.712  0.4031 -0.3069 -0.2785
  241MOL    F4629326   4.568   6.723   1.640  0.1699 -0.3666  0.3577
  241MOL    C4729327   4.412   6.903   1.605 -0.6727 -0.7908 -0.1147
  241MOL    H4829328   4.304   6.916   1.591 -0.3283  0.7216 -1.4324
  241MOL    H4929329   4.455   6.927   1.508 -0.6943 -2.5055 -0.5814
  241MOL    C5029330   4.476   6.995   1.710 -0.2742  0.5700 -0.1967
  241MOL    F5129331   4.448   6.958   1.838 -0.1815  0.2592  0.4527
  241MOL    F5229332   4.611   6.974   1.703  0.0634 -0.5403 -1.0442
  241MOL    C5329333   4.445   7.148   1.695  0.0522 -0.0797  0.3913
  241MOL    H5429334   4.338   7.169   1.699  0.5355  2.8484 -0.7161
  241MOL    H5529335   4.484   7.178   1.598  1.9734  1.5017  1.6227
  241MOL    C5629336   4.511   7.226   1.803  0.7565  0.5326 -0.0752
  241MOL    F5729337   4.456   7.193   1.918 -0.0820  0.8753  0.2390
  241MOL    F5829338   4.640   7.204   1.822 -0.7100  0.4564 -0.1196
  241MOL    C5929339   4.505   7.380   1.797 -0.3357 -0.6325 -0.3926
  241MOL    H6029340   4.595   7.420   1.751 -0.4755 -2.2598 -2.1371
  241MOL    H6129341   4.521   7.417   1.898  0.0468 -1.1067 -0.2793
  241MOL    C6229342   4.384   7.449   1.745 -0.1881  0.3905  0.0756
  241MOL    F6329343   4.370   7.435   1.612  0.3345  0.0821 -0.3567
  241MOL    F6429344   4.277   7.391   1.807  0.0305  0.0347  0.3382
  241MOL    C6529345   4.379   7.598   1.799  0.3033  0.9615  0.0749
  241MOL    H6629346   4.351   7.598   1.905 -0.3047  1.3395 -0.0809
  241MOL    H6729347   4.289   7.628   1.744 -1.2623 -2.9230  0.3243
  241MOL    C6829348   4.496   7.694   1.759  0.5120 -0.1882 -0.1546
  241MOL    F6929349   4.604   7.662   1.823  0.2658 -0.1137 -0.1523
  241MOL    F7029350   4.525   7.683   1.631  0.2590 -0.3082  0.0116
  241MOL    C7129351   4.468   7.846   1.800  0.3517 -0.1316  0.1537
  241MOL    H7229352   4.554   7.905   1.769 -0.0394  0.3021 -0.1225
  241MOL    H7329353   4.465   7.853   1.909 -1.2191  2.3642 -0.0165
  241MOL    C7429354   4.343   7.903   1.738  0.0658  0.0719 -0.5638
  241MOL    F7529355   4.353   7.880   1.608 -0.2510  0.0594 -0.2731
  241MOL    F7629356   4.237   7.833   1.783  0.0262  0.2234 -0.8859
  241MOL    C7729357   4.317   8.052   1.759  0.5748  0.0063 -0.1611
  241MOL    H7829358   4.233   8.079   1.695  0.3056 -0.9969 -0.2337
  241MOL    H7929359   4.400   8.106   1.713 -0.4885 -2.0789 -4.8582
  241MOL    C8029360   4.305   8.115   1.900  0.3411 -0.2561 -0.1706
  241MOL    F8129361   4.413   8.091   1.974  0.0438  0.3765  0.1302
  241MOL    F8229362   4.308   8.246   1.885  0.1386 -0.4503 -0.4539
  241MOL    C8329363   4.184   8.083   1.989 -0.2493 -0.5660  0.1617
  241MOL    H8429364   4.195   8.135   2.084 -1.9931 -0.5677  0.3793
  241MOL    H8529365   4.188   7.978   2.016 -1.8406 -0.7325 -0.2264
  241MOL    C8629366   4.044   8.106   1.924  0.5765 -0.0323 -0.3944
  241MOL    F8729367   4.038   8.235   1.882 -0.0903 -0.2025 -0.6537
  241MOL    F8829368   4.034   8.027   1.820 -0.3611 -0.3438 -0.3725
  241MOL    C8929369   3.933   8.075   2.028 -0.0112  0.6589  0.6826
  241MOL    H9029370   3.839   8.117   1.993  1.0081  0.3564 -2.6054
  241MOL    H9129371   3.956   8.131   2.119  0.4891 -0.3162  1.1695
  241MOL    C9229372   3.892   7.932   2.038 -0.2420  0.0233  0.0362
  241MOL    F9329373   3.853   7.889   1.914 -0.0389  0.3003  0.1384
  241MOL    F9429374   3.988   7.861   2.086 -0.3379 -0.1995  0.0754
  241MOL    C9529375   3.767   7.926   2.129 -0.4273 -0.0534  0.0880
  241MOL    H9629376   3.690   7.984   2.079  0.0238 -1.6993 -2.6320
  241MOL    H9729377   3.789   7.988   2.215  0.2482  1.4168 -1.1241
  241MOL    C9829378   3.720   7.789   2.166 -0.1441  0.4155 -0.3700
  241MOL    F9929379   3.598   7.807   2.213 -0.0024 -0.4840 -0.2086
  241MOL   F10029380   3.712   7.721   2.055  0.0965  0.2491 -0.2664
  241MOL   C10129381   3.808   7.722   2.266  0.2714 -0.3810 -0.2498
  241MOL   H10229382   3.854   7.788   2.339  0.2047  1.4380 -1.8030
  241MOL   H10329383   3.895   7.684   2.212  1.1369  0.9888  0.1537
  241MOL   C10429384   3.746   7.600   2.336  0.1245 -0.5009  0.0881
  241MOL   F10529385   3.656   7.652   2.422  0.1908 -0.4265  0.5441
  241MOL   F10629386   3.676   7.524   2.259 -0.5331 -0.1511 -0.2241
  241MOL   C10729387   3.848   7.520   2.419  0.2087  0.3015 -0.2436
  241MOL   H10829388   3.796   7.437   2.466  1.2214  0.1260  0.5758
  241MOL   H10929389   3.880   7.593   2.494 -0.6262  0.9159 -0.4781
  241MOL   C11029390   3.976   7.464   2.342  0.0580  0.1065  0.9755
  241MOL   F11129391   3.946   7.422   2.220  0.3192  0.7498 -0.1750
  241MOL   F11229392   4.054   7.567   2.318 -0.2897 -0.2473 -0.3529
  241MOL   C11329393   4.049   7.350   2.413 -0.4764  0.0099  0.2451
  241MOL   H11429394   3.978   7.268   2.404 -1.5856  0.9403  0.4914
  241MOL   H11529395   4.072   7.366   2.518  1.4070 -0.1349 -0.1195
  241MOL   C11629396   4.185   7.313   2.351  0.7448 -0.0394 -0.1012
  241MOL   F11729397   4.164   7.294   2.222  0.0989 -0.4953  0.3800
  241MOL   F11829398   4.262   7.421   2.353 -0.2772  0.0666  0.2234
  241MOL   C11929399   4.268   7.202   2.410  0.0933 -0.1265  0.0890
  241MOL   H12029400   4.233   7.099   2.404  0.0842 -0.0576 -1.2454
  241MOL   H12129401   4.294   7.218   2.515 -1.1898  0.4345  0.3221
  241MOL   H12229402   4.361   7.188   2.354  0.0902 -0.7569  0.2336
  242MOL     C129403   5.590   4.572   5.725 -0.7284  0.1668 -0.0375
  242MOL     F229404   5.566   4.622   5.602  0.4832 -0.7765  0.0562
  242MOL     F329405   5.701   4.504   5.708 -0.4283  0.3302 -0.2473
  242MOL     C429406   5.479   4.483   5.792  0.3159  0.0939 -0.0667
  242MOL     H529407   5.456   4.401   5.724  0.9354  0.0888 -0.2739
  242MOL     H629408   5.379   4.527   5.790  0.7267  1.1531  1.6828
  242MOL     H729409   5.613   4.654   5.794 -1.3038 -0.4191  0.8570
  242MOL     C829410   5.522   4.434   5.933  0.3591 -0.8902  1.1157
  242MOL     F929411   5.633   4.358   5.925  0.1356  0.0786  0.1458
  242MOL    F1029412   5.561   4.535   6.003 -0.0117 -0.1760 -0.1761
  242MOL    C1129413   5.409   4.367   6.015  0.5034  0.3061 -0.4555
  242MOL    H1229414   5.382   4.279   5.955  0.1644  1.3282 -1.8166
  242MOL    H1329415   5.322   4.432   6.011  1.5738  1.7876 -0.0662
  242MOL    C1429416   5.430   4.338   6.169  0.4033 -0.0495 -0.1218
  242MOL    F1529417   5.560   4.298   6.186 -0.1049  0.1922 -0.5171
  242MOL    F1629418   5.397   4.442   6.246 -0.1705 -0.2655 -0.5409
  242MOL    C1729419   5.346   4.219   6.216  0.2089  0.1314  0.4232
  242MOL    H1829420   5.377   4.204   6.319  1.0050  2.2171  0.5040
  242MOL    H1929421   5.382   4.132   6.161  0.1997  1.2665 -1.4255
  242MOL    C2029422   5.198   4.231   6.211 -0.0537 -0.2619  0.1843
  242MOL    F2129423   5.152   4.226   6.087  0.0027 -0.6614 -0.3256
  242MOL    F2229424   5.160   4.112   6.263 -0.2642 -0.0602 -0.6758
  242MOL    C2329425   5.137   4.346   6.288 -0.1065 -0.0681  0.3084
  242MOL    H2429426   5.155   4.430   6.221 -2.8177 -1.2470 -1.9615
  242MOL    H2529427   5.187   4.376   6.381  1.9074  1.4015 -1.2016
  242MOL    C2629428   4.983   4.337   6.312  0.8513 -0.0697  0.9551
  242MOL    F2729429   4.926   4.329   6.196 -0.0414  0.1978  0.6319
  242MOL    F2829430   4.954   4.224   6.381  0.2833  0.1502 -0.1589
  242MOL    C2929431   4.935   4.453   6.397  0.1428 -0.1177  0.3776
  242MOL    H3029432   4.957   4.545   6.343 -0.1150  0.5974  1.4784
  242MOL    H3129433   4.984   4.462   6.494  0.1477 -0.1880  0.3807
  242MOL    C3229434   4.784   4.466   6.431  0.3487 -0.6030  0.2607
  242MOL    F3329435   4.777   4.589   6.477  0.7464  0.2877 -0.2896
  242MOL    F3429436   4.713   4.466   6.313 -1.1603  0.9852 -0.2353
  242MOL    C3529437   4.737   4.359   6.537  0.3463  0.1531  0.5695
  242MOL    H3629438   4.809   4.356   6.619  0.3679  1.1623  0.6005
  242MOL    H3729439   4.741   4.264   6.486 -2.5254  0.4463 -0.3200
  242MOL    C3829440   4.587   4.393   6.596 -0.3748  0.1804  0.5478
  242MOL    F3929441   4.610   4.493   6.686  0.3085 -0.0707  0.0843
  242MOL    F4029442   4.502   4.434   6.507  0.3363  0.0076 -0.1568
  242MOL    C4129443   4.526   4.266   6.663  0.0269 -0.1571 -0.0635
  242MOL    H4229444   4.505   4.202   6.577  2.2038  1.1595 -1.6317
  242MOL    H4329445   4.427   4.284   6.706 -0.5982 -2.2601 -0.5519
  242MOL    C4429446   4.604   4.178   6.756 -0.4196  0.3107 -0.0876
  242MOL    F4529447   4.708   4.123   6.688  0.1850 -0.5498 -0.4698
  242MOL    F4629448   4.663   4.253   6.849  0.1358  0.3157  0.1712
  242MOL    C4729449   4.519   4.064   6.827  0.1422  0.0988 -0.4338
  242MOL    H4829450   4.443   4.027   6.758 -0.8767 -0.9180  1.2143
  242MOL    H4929451   4.452   4.120   6.891 -1.9409 -3.4088  0.5773
  242MOL    C5029452   4.594   3.945   6.898 -0.4851 -0.3372 -0.1605
  242MOL    F5129453   4.499   3.861   6.932  0.3061 -0.0156 -0.4072
  242MOL    F5229454   4.673   3.881   6.813 -1.0729 -0.1863  0.4305
  242MOL    C5329455   4.690   3.975   7.014 -0.5064  0.1447  0.1789
  242MOL    H5429456   4.781   4.017   6.972  0.2474 -2.7738 -1.2826
  242MOL    H5529457   4.727   3.877   7.045  0.9844 -0.0195 -2.0135
  242MOL    C5629458   4.648   4.070   7.134 -0.4976 -0.6340 -0.8698
  242MOL    F5729459   4.645   4.194   7.083  0.7219  0.7454 -0.5474
  242MOL    F5829460   4.527   4.029   7.174  0.3989 -0.4102  0.1093
  242MOL    C5929461   4.728   4.050   7.273 -0.3019  0.0552  0.4190
  242MOL    H6029462   4.709   3.947   7.303 -0.2473  0.8353  3.3067
  242MOL    H6129463   4.678   4.115   7.344 -1.2080 -0.2529  0.0629
  242MOL    C6229464   4.881   4.090   7.257  0.4151  0.2068 -0.2290
  242MOL    F6329465   4.936   4.014   7.166 -0.3545 -0.2311  0.2123
  242MOL    F6429466   4.890   4.216   7.207 -0.7624  0.4143  0.5247
  242MOL    C6529467   4.962   4.072   7.395  0.1993  0.5151  0.4624
  242MOL    H6629468   4.951   3.968   7.427 -2.8414  0.0106 -2.1026
  242MOL    H6729469   4.914   4.135   7.469 -1.6699 -2.0141  1.4747
  242MOL    C6829470   5.107   4.122   7.395 -0.5725 -0.3328 -0.2430
  242MOL    F6929471   5.149   4.075   7.512  0.2502 -0.3840  0.3409
  242MOL    F7029472   5.182   4.061   7.304  0.3953  0.3782  0.1900
  242MOL    C7129473   5.140   4.267   7.374 -0.0581 -0.1898  0.7089
  242MOL    H7229474   5.063   4.325   7.425  0.7022  1.6872 -0.2496
  242MOL    H7329475   5.117   4.289   7.269  3.0591 -0.9966 -0.1979
  242MOL    C7429476   5.276   4.320   7.409  0.6571 -0.4772 -0.1239
  242MOL    F7529477   5.287   4.314   7.541  0.1489  0.4732  0.0044
  242MOL    F7629478   5.366   4.233   7.367 -0.0802  0.0151 -0.5140
  242MOL    C7729479   5.300   4.464   7.361 -0.2502  0.0589 -0.1545
  242MOL    H7829480   5.220   4.524   7.404 -2.1112 -2.6358  0.2324
  242MOL    H7929481   5.288   4.468   7.252  0.1685  3.4936 -0.1201
  242MOL    C8029482   5.434   4.526   7.418  0.2964  0.0346 -0.4104
  242MOL    F8129483   5.434   4.653   7.381 -0.5190 -0.1751  0.2015
  242MOL    F8229484   5.429   4.530   7.551 -0.1632 -0.4284 -0.0786
  242MOL    C8329485   5.559   4.450   7.362  0.0193  0.0237  0.1828
  242MOL    H8429486   5.547   4.434   7.255  0.1488 -1.6388  0.4063
  242MOL    H8529487   5.577   4.352   7.406 -0.5915  0.5385  1.6286
  242MOL    C8629488   5.700   4.525   7.375 -0.2293  0.0739  0.8079
  242MOL    F8729489   5.796   4.461   7.313  0.0187  0.3117  0.2782
  242MOL    F8829490   5.691   4.638   7.303 -0.2137 -0.3626 -0.6205
  242MOL    C8929491   5.737   4.542   7.521 -0.2702 -0.6328  0.1042
  242MOL    H9029492   5.752   4.449   7.575  1.3237  0.1252  1.0444
  242MOL    H9129493   5.646   4.580   7.568 -0.9894 -0.8613 -1.0893
  242MOL    C9229494   5.857   4.642   7.542 -0.3903  0.4859 -0.2146
  242MOL    F9329495   5.973   4.602   7.485  0.1536  0.2023 -0.0855
  242MOL    F9429496   5.831   4.758   7.489  0.0542  0.1284  0.4667
  242MOL    C9529497   5.894   4.688   7.686  0.5087 -0.4648 -0.3571
  242MOL    H9629498   5.808   4.748   7.715 -0.4948 -0.9118 -2.3137
  242MOL    H9729499   5.974   4.762   7.679 -0.7100  0.7793 -1.3981
  242MOL    C9829500   5.936   4.582   7.783 -0.2135 -0.2453  0.9377
  242MOL    F9929501   5.988   4.635   7.892 -0.2395  0.4034  0.6520
  242MOL   F10029502   5.814   4.537   7.814 -0.1098 -0.4537 -0.4050
  242MOL   C10129503   6.022   4.463   7.743 -0.2734 -1.1994  0.4813
  242MOL   H10229504   6.126   4.491   7.724 -0.6719 -1.1316 -1.7723
  242MOL   H10329505   5.982   4.423   7.650 -1.8102  0.3879  0.4309
  242MOL   C10429506   6.029   4.344   7.845 -0.2531  0.0633  0.2458
  242MOL   F10529507   6.087   4.378   7.963  0.2336  0.0831 -0.1234
  242MOL   F10629508   5.905   4.291   7.862 -0.1682  0.3810 -1.2007
  242MOL   C10729509   6.115   4.228   7.784 -0.6428  0.0771  0.2272
  242MOL   H10829510   6.216   4.265   7.764 -1.6382  2.5046 -0.5295
  242MOL   H10929511   6.075   4.204   7.686  1.9408 -1.3119 -0.5281
  242MOL   C11029512   6.137   4.097   7.862  0.0862 -0.3952  0.0700
  242MOL   F11129513   6.143   4.003   7.772  0.2295 -0.1784 -0.4481
  242MOL   F11229514   6.254   4.109   7.923  0.0859 -0.8867 -0.2865
  242MOL   C11329515   6.047   4.049   7.977  0.0359 -0.2468  0.7372
  242MOL   H11429516   5.941   4.055   7.954  0.4546 -1.3934 -1.6947
  242MOL   H11529517   6.068   4.123   8.054  1.3097 -0.5559  0.6955
  242MOL   C11629518   6.066   3.910   8.034 -0.3772 -0.0426  0.2410
  242MOL   F11729519   6.058   3.811   7.939  0.2511 -0.5641 -0.7689
  242MOL   F11829520   6.186   3.893   8.089 -0.0072 -0.6003 -0.5191
  242MOL   C11929521   5.963   3.862   8.142  0.4493 -0.2997 -0.2037
  242MOL   H12029522   5.973   3.907   8.241 -1.4367 -0.5953  0.1323
  242MOL   H12129523   5.977   3.756   8.167 -0.9271 -0.2725  0.7245
  242MOL   H12229524   5.866   3.879   8.095  1.1039 -0.8315 -1.7773
  243MOL     C129525   3.924   5.590   0.246  0.1560  0.7515  0.1236
  243MOL     F229526   3.864   5.612   0.366  0.0548 -0.0836  0.6431
  243MOL     F329527   4.025   5.508   0.273  0.3259 -0.0277  0.4437
  243MOL     C429528   3.974   5.727   0.192 -0.1310 -0.3566 -0.0223
  243MOL     H529529   4.061   5.709   0.128  0.1681 -0.9375  0.5484
  243MOL     H629530   4.006   5.789   0.275 -0.5702 -1.3500  0.9038
  243MOL     H729531   3.855   5.533   0.183  0.1229  2.3916 -1.3633
  243MOL     C829532   3.860   5.815   0.128 -0.2764  0.3438 -0.2184
  243MOL     F929533   3.821   5.769   0.008 -0.1800  0.0113 -0.0677
  243MOL    F1029534   3.748   5.814   0.205 -0.6599  0.2705  0.0640
  243MOL    C1129535   3.902   5.957   0.124 -1.2136  0.4878  0.6581
  243MOL    H1229536   3.992   5.955   0.062  0.5639  2.1393  3.0842
  243MOL    H1329537   3.927   5.995   0.223  1.5261  2.1495 -0.5871
  243MOL    C1429538   3.787   6.049   0.059 -0.1026 -0.0858 -0.3671
  243MOL    F1529539   3.753   6.007   8.287  0.0143 -0.8534  0.3089
  243MOL    F1629540   3.682   6.035   0.140  0.8321 -0.0874  0.1612
  243MOL    C1729541   3.827   6.201   0.060  0.1489  0.5958  0.1683
  243MOL    H1829542   3.843   6.226   0.165 -3.0771  0.1557  0.8065
  243MOL    H1929543   3.740   6.262   0.035 -1.7641 -1.3044  1.9968
  243MOL    C2029544   3.945   6.241   8.317 -0.2365  0.1670 -0.0323
  243MOL    F2129545   4.054   6.177   0.003  0.3535 -0.6204  0.3152
  243MOL    F2229546   3.914   6.214   8.192  0.3012  0.3539  0.0730
  243MOL    C2329547   3.969   6.395   8.318  0.1127 -0.1566 -0.0521
  243MOL    H2429548   3.876   6.452   8.324  0.6289  0.6110  0.6810
  243MOL    H2529549   4.022   6.426   8.228  0.8971  0.3157  0.5683
  243MOL    C2629550   4.041   6.451   0.095 -0.2140 -0.1455  0.1529
  243MOL    F2729551   3.968   6.438   0.197  0.1385  0.1512  0.0288
  243MOL    F2829552   4.159   6.387   0.120 -0.3747 -0.1281 -0.1212
  243MOL    C2929553   4.079   6.600   0.088  0.3835 -0.3275 -0.1296
  243MOL    H3029554   4.154   6.607   0.010  1.3837 -3.0558  0.5475
  243MOL    H3129555   4.127   6.623   0.183  0.4061 -1.2178  0.0814
  243MOL    C3229556   3.983   6.705   0.052  0.2911  0.5339  1.0865
  243MOL    F3329557   3.913   6.668   8.288  0.6307  0.3363 -0.1603
  243MOL    F3429558   3.899   6.729   0.147 -0.2114 -0.5193  0.0245
  243MOL    C3529559   4.048   6.843   0.029  0.0085  0.0880 -0.4382
  243MOL    H3629560   4.135   6.839   8.312  0.3983 -2.6776  0.1693
  243MOL    H3729561   4.092   6.878   0.122  2.3848 -2.1530 -0.6524
  243MOL    C3829562   3.951   6.955   8.324 -0.5108  0.4630  0.6896
  243MOL    F3929563   4.023   7.064   8.294 -0.1950 -0.4305 -0.2856
  243MOL    F4029564   3.898   6.907   8.205 -0.4806 -0.3991  0.0573
  243MOL    C4129565   3.839   6.997   0.070 -0.4349  1.3658  0.3236
  243MOL    H4229566   3.877   7.030   0.166 -0.6101 -1.8661  1.5579
  243MOL    H4329567   3.765   6.922   0.097 -0.7427  1.1390 -1.0747
  243MOL    C4429568   3.741   7.097   0.002  0.3010  0.4585  0.5880
  243MOL    F4529569   3.806   7.217   8.320 -0.1440  0.4151  0.4237
  243MOL    F4629570   3.691   7.039   8.241 -0.3816  0.0932 -0.3100
  243MOL    C4729571   3.616   7.131   0.092  0.4541 -0.1386 -0.1605
  243MOL    H4829572   3.637   7.189   0.181  0.6187 -1.2649  0.5553
  243MOL    H4929573   3.592   7.032   0.133 -0.8865  0.2310 -0.0055
  243MOL    C5029574   3.499   7.203   0.024  1.3517  0.2193 -0.5424
  243MOL    F5129575   3.452   7.116   8.286  0.0881 -0.2072 -0.4586
  243MOL    F5229576   3.404   7.225   0.113 -0.3817 -0.4490 -0.1961
  243MOL    C5329577   3.533   7.332   8.298  0.4573 -0.6228 -0.1036
  243MOL    H5429578   3.443   7.356   8.242  0.3904 -1.5149 -0.3970
  243MOL    H5529579   3.612   7.312   8.225  1.3145  0.6122  0.4652
  243MOL    C5629580   3.566   7.451   0.038 -0.2488 -0.2440 -0.4011
  243MOL    F5729581   3.461   7.472   0.112  0.1612 -0.3306 -0.4007
  243MOL    F5829582   3.666   7.405   0.121  0.2337  0.4397  0.0367
  243MOL    C5929583   3.616   7.575   8.312  0.2963  0.2850  0.1746
  243MOL    H6029584   3.550   7.591   8.226  0.6763 -0.7043 -0.3100
  243MOL    H6129585   3.714   7.563   8.266  0.3131  1.2483 -0.0655
  243MOL    C6229586   3.625   7.702   0.045  0.3762  0.3110  0.8024
  243MOL    F6329587   3.679   7.797   8.318  0.3684 -0.0455 -0.3365
  243MOL    F6429588   3.502   7.747   0.069  0.0943 -0.2654 -0.3845
  243MOL    C6529589   3.686   7.686   0.183 -0.6546 -0.3102 -0.0186
  243MOL    H6629590   3.788   7.651   0.167 -0.2584  0.3458  1.0207
  243MOL    H6729591   3.631   7.607   0.235  0.9257 -2.6267 -1.7460
  243MOL    C6829592   3.678   7.812   0.274 -0.2003  0.2550 -0.0159
  243MOL    F6929593   3.553   7.834   0.314  0.3021  0.6146  0.0194
  243MOL    F7029594   3.746   7.779   0.384  0.4685 -0.1694 -0.0171
  243MOL    C7129595   3.729   7.946   0.208 -0.1498  0.3589  0.1845
  243MOL    H7229596   3.671   7.975   0.120  0.1802 -0.0268 -0.1658
  243MOL    H7329597   3.828   7.919   0.171 -0.3196  1.2183 -0.9109
  243MOL    C7429598   3.739   8.074   0.306  0.4693 -0.3064  0.4429
  243MOL    F7529599   3.838   8.051   0.394  0.3502  0.0576  0.6228
  243MOL    F7629600   3.777   8.178   0.237 -0.8009  0.4666  0.9611
  243MOL    C7729601   3.607   8.118   0.367 -0.2453 -0.6430  0.0690
  243MOL    H7829602   3.551   8.046   0.426  1.2359 -1.1017  0.9388
  243MOL    H7929603   3.540   8.148   0.286 -0.2783  0.8519  0.6227
  243MOL    C8029604   3.612   8.254   0.444  0.0819 -0.7776 -0.4381
  243MOL    F8129605   3.653   0.001   0.358  0.2197 -0.5886 -0.2059
  243MOL    F8229606   3.488   8.276   0.477 -0.3094 -0.0343 -0.3557
  243MOL    C8329607   3.706   8.243   0.569  0.5757 -0.2567  0.5392
  243MOL    H8429608   3.807   8.274   0.539  1.0458 -0.4724  1.8491
  243MOL    H8529609   3.730   8.141   0.596 -0.1778 -0.5863 -0.0395
  243MOL    C8629610   3.667   8.328   0.688  0.2415 -0.0255  0.1069
  243MOL    F8729611   3.549   8.291   0.739 -0.1599 -0.6357 -0.0133
  243MOL    F8829612   3.761   8.296   0.776 -0.3902 -0.3695 -0.0726
  243MOL    C8929613   3.668   0.132   0.659 -0.4523  0.8387  0.4602
  243MOL    H9029614   3.592   0.152   0.584 -0.5572  0.2927  0.4192
  243MOL    H9129615   3.762   0.156   0.609 -0.6427  0.3401 -0.1341
  243MOL    C9229616   3.656   0.234   0.775  0.3967 -0.1693  0.0069
  243MOL    F9329617   3.765   0.230   0.860  0.2148 -0.1218  0.0356
  243MOL    F9429618   3.664   0.352   0.722  0.0051 -0.1987  0.0751
  243MOL    C9529619   3.522   0.221   0.847  0.1482  0.2915  0.2433
  243MOL    H9629620   3.531   0.292   0.929 -0.5820  1.6130 -0.8067
  243MOL    H9729621   3.506   0.120   0.886 -0.8008 -0.0609 -1.0475
  243MOL    C9829622   3.404   0.244   0.750  0.7350  0.0205 -0.3668
  243MOL    F9929623   3.418   0.352   0.669 -0.0080  0.5939 -0.1498
  243MOL   F10029624   3.393   0.144   0.665  0.1775 -0.5271 -0.0668
  243MOL   C10129625   3.266   0.270   0.825 -0.4221  0.2940 -0.2295
  243MOL   H10229626   3.189   0.297   0.753 -0.1387  0.9728 -0.2888
  243MOL   H10329627   3.282   0.364   0.880  2.6937  0.4639 -1.3274
  243MOL   C10429628   3.214   0.169   0.936  0.4313  0.1612  0.0484
  243MOL   F10529629   3.177   0.045   0.893  0.5371  0.0372  0.1140
  243MOL   F10629630   3.303   0.160   1.032  0.5721 -0.0077  0.1044
  243MOL   C10729631   3.099   0.221   1.031  1.2882 -0.3786  0.0260
  243MOL   H10829632   3.122   0.323   1.063 -3.9394  1.4799 -1.4803
  243MOL   H10929633   3.097   0.161   1.121  0.4594  0.8946  0.8729
  243MOL   C11029634   2.954   0.226   0.970 -1.0744 -0.1751  0.7585
  243MOL   F11129635   2.965   0.315   0.874  0.0509 -0.2470 -0.6544
  243MOL   F11229636   2.916   0.109   0.917  0.3867  0.1309  0.2710
  243MOL   C11329637   2.850   0.290   1.064  0.5972 -0.6507  0.6148
  243MOL   H11429638   2.756   0.264   1.016  1.7720 -0.4841 -1.8887
  243MOL   H11529639   2.866   0.398   1.060 -2.7002 -0.1591 -1.3969
  243MOL   C11629640   2.834   0.239   1.210 -0.6137 -0.1661 -0.9787
  243MOL   F11729641   2.952   0.258   1.269 -0.0246  0.3961 -0.3840
  243MOL   F11829642   2.735   0.311   1.267  0.4847  0.2334 -0.0146
  243MOL   C11929643   2.802   0.084   1.222 -0.2196 -0.4036  0.3760
  243MOL   H12029644   2.881   0.017   1.187 -0.3833 -0.4169  0.0303
  243MOL   H12129645   2.723   0.039   1.163 -1.6128  1.1779  1.0056
  243MOL   H12229646   2.796   0.063   1.328 -1.3301 -0.7312  0.2538
  244MOL     C129647   5.900   3.343   8.317  0.1041  0.2472 -0.3680
  244MOL     F229648   5.951   3.463   8.338  0.0146  0.0571  0.8258
  244MOL     F329649   5.931   3.300   8.194 -0.0262  0.2794 -0.5250
  244MOL     C429650   5.748   3.365   8.330 -0.2338  0.1796 -0.0536
  244MOL     H529651   5.699   3.281   8.281  0.2827  0.1328 -0.4998
  244MOL     H629652   5.703   3.443   8.269  0.0187  0.0388 -0.4274
  244MOL     H729653   5.939   3.274   0.042 -0.0388  0.5753  0.0154
  244MOL     C829654   5.698   3.385   0.122 -0.5447  0.1353  0.2148
  244MOL     F929655   5.564   3.379   0.121 -0.3256 -0.6008  0.4596
  244MOL    F1029656   5.742   3.280   0.179  0.4358 -0.0378  0.2848
  244MOL    C1129657   5.738   3.520   0.196 -0.7432 -0.2321 -0.5911
  244MOL    H1229658   5.845   3.517   0.220 -1.6674 -1.5821  3.8187
  244MOL    H1329659   5.690   3.522   0.293  1.4317  0.8010  0.5058
  244MOL    C1429660   5.688   3.650   0.126 -0.6189 -0.0704  0.5157
  244MOL    F1529661   5.755   3.675   0.013 -0.2002 -0.1506  0.2831
  244MOL    F1629662   5.554   3.643   0.103  0.7111  0.1468 -0.0259
  244MOL    C1729663   5.697   3.782   0.209  0.9255 -0.0649  0.4546
  244MOL    H1829664   5.621   3.774   0.287  1.7254 -1.0686  1.1452
  244MOL    H1929665   5.660   3.858   0.140 -0.8366 -0.9052  0.4707
  244MOL    C2029666   5.829   3.831   0.274  0.6278 -0.6935  0.2500
  244MOL    F2129667   5.879   3.741   0.359 -0.2836 -0.5423 -0.5196
  244MOL    F2229668   5.918   3.849   0.171  0.4326  0.2079 -0.6395
  244MOL    C2329669   5.831   3.962   0.348 -0.4450 -0.2438  0.3239
  244MOL    H2429670   5.930   3.961   0.394 -0.4437  0.6320  0.3491
  244MOL    H2529671   5.750   3.960   0.421 -1.5442 -1.2390 -0.9043
  244MOL    C2629672   5.812   4.094   0.268 -0.0431  0.3775 -0.2811
  244MOL    F2729673   5.703   4.077   0.198 -0.0530 -0.6670  0.5122
  244MOL    F2829674   5.792   4.191   0.359 -0.1339  0.2068 -0.5483
  244MOL    C2929675   5.917   4.153   0.167 -0.4421  0.2331 -0.2981
  244MOL    H3029676   5.908   4.098   0.073 -2.1653  0.9535 -0.5693
  244MOL    H3129677   6.018   4.133   0.204 -0.3568 -0.4700 -0.8843
  244MOL    C3229678   5.908   4.297   0.108 -0.1019 -0.1893 -0.0650
  244MOL    F3329679   5.918   4.379   0.214  0.1477 -0.1719 -0.2066
  244MOL    F3429680   6.015   4.315   0.029  0.3702  0.3560 -0.5660
  244MOL    C3529681   5.770   4.336   0.039  0.1894 -0.3323  0.4608
  244MOL    H3629682   5.772   4.445   0.040 -2.0850 -0.2744  1.5763
  244MOL    H3729683   5.690   4.310   0.108  1.0904 -0.7099  1.3831
  244MOL    C3829684   5.750   4.282   8.240 -0.0224 -0.4499  0.8494
  244MOL    F3929685   5.854   4.327   8.179  0.3607  0.2881  0.1574
  244MOL    F4029686   5.755   4.148   8.238  0.5052 -0.1488  0.1838
  244MOL    C4129687   5.619   4.338   8.172  0.4481 -0.1335 -0.1973
  244MOL    H4229688   5.529   4.290   8.211 -0.5587  1.6387 -0.3365
  244MOL    H4329689   5.630   4.317   8.066  3.6997  1.6553 -0.2665
  244MOL    C4429690   5.598   4.488   8.191 -0.0249 -0.2195  0.2637
  244MOL    F4529691   5.504   4.523   8.103 -0.1265  0.1842  0.7563
  244MOL    F4629692   5.548   4.510   8.313 -0.3736 -0.1680 -0.1411
  244MOL    C4729693   5.715   4.585   8.156  1.2648  0.0642  0.2034
  244MOL    H4829694   5.748   4.562   8.055  0.8979  1.7800 -0.3260
  244MOL    H4929695   5.802   4.564   8.218  0.2160  0.6740  1.9554
  244MOL    C5029696   5.686   4.736   8.172 -0.2223  0.4196 -0.4638
  244MOL    F5129697   5.587   4.776   8.091 -0.2473  0.0996 -0.0455
  244MOL    F5229698   5.664   4.764   8.300 -0.0567 -0.5842 -0.2311
  244MOL    C5329699   5.815   4.811   8.123 -0.5702  0.6439 -0.0793
  244MOL    H5429700   5.836   4.800   8.017  1.0562 -0.1512  0.3025
  244MOL    H5529701   5.897   4.777   8.187 -2.1495  1.0879  2.2495
  244MOL    C5629702   5.806   4.968   8.148 -0.2525 -0.2840  0.1101
  244MOL    F5729703   5.696   5.025   8.089  0.1183  0.5812 -0.2456
  244MOL    F5829704   5.788   4.977   8.284 -0.3892  0.0252  0.1567
  244MOL    C5929705   5.937   5.049   8.117  1.1743  0.7250 -0.3942
  244MOL    H6029706   6.014   4.995   8.173 -0.3239 -3.2204 -1.9145
  244MOL    H6129707   5.922   5.145   8.166 -3.0590  0.2615 -0.5749
  244MOL    C6229708   5.970   5.071   7.961 -0.0579 -0.1545  0.4100
  244MOL    F6329709   5.987   4.947   7.903  0.0538  0.1192  0.2978
  244MOL    F6429710   5.874   5.127   7.894 -0.2260 -0.5004  0.2982
  244MOL    C6529711   6.099   5.150   7.927 -0.7565 -0.2857 -0.2519
  244MOL    H6629712   6.092   5.155   7.818 -0.2144 -0.3853 -0.2906
  244MOL    H6729713   6.186   5.094   7.960 -1.8055 -1.2339  0.9438
  244MOL    C6829714   6.098   5.296   7.974  0.1246  0.1221  0.7444
  244MOL    F6929715   5.981   5.356   7.947  0.1127 -0.5749 -0.4116
  244MOL    F7029716   6.117   5.295   8.104 -0.2619  0.1885  0.6343
  244MOL    C7129717   6.216   5.378   7.924 -0.1505 -0.0542  0.0990
  244MOL    H7229718   6.199   5.397   7.818  1.8533  0.0145 -0.2187
  244MOL    H7329719   6.302   5.311   7.930 -0.7038 -0.7277  0.7732
  244MOL    C7429720   6.240   5.516   7.994 -0.0374  0.2384  0.3313
  244MOL    F7529721   6.135   5.596   7.962  0.0779  0.5055  0.2908
  244MOL    F7629722   6.256   5.496   8.123  0.0394 -0.2500 -0.3566
  244MOL    C7729723   6.369   5.586   7.950  0.6133 -0.1425  0.4999
  244MOL    H7829724   6.449   5.533   8.003  2.1435  0.8263 -0.7848
  244MOL    H7929725   6.371   5.687   7.991  0.3981 -0.5066  1.4225
  244MOL    C8029726   6.419   5.588   7.803  0.2546  0.8559 -0.8713
  244MOL    F8129727   6.534   5.646   7.799 -0.8060  0.1483 -0.1477
  244MOL    F8229728   6.434   5.463   7.757 -0.2263  0.5063  0.3061
  244MOL    C8329729   6.313   5.660   7.706 -0.4129  0.1253  0.0759
  244MOL    H8429730   6.256   5.741   7.752  1.7566  1.3386  0.6748
  244MOL    H8529731   6.236   5.584   7.691 -0.0626 -0.0988 -0.6128
  244MOL    C8629732   6.375   5.712   7.570  0.1765  0.0851 -0.2201
  244MOL    F8729733   6.282   5.770   7.501 -0.0401 -0.2552  0.0929
  244MOL    F8829734   6.460   5.799   7.619 -0.1114 -0.6210  0.1536
  244MOL    C8929735   6.435   5.599   7.486  0.5316 -0.4693  0.3072
  244MOL    H9029736   6.348   5.534   7.473 -2.5167  2.8043  3.0836
  244MOL    H9129737   6.506   5.533   7.535 -0.7423 -0.5084  2.1608
  244MOL    C9229738   6.491   5.644   7.347 -0.4554  0.5158 -0.3599
  244MOL    F9329739   6.581   5.738   7.382  0.4100  0.0302  0.3230
  244MOL    F9429740   6.552   5.537   7.293 -0.0386 -0.5162 -0.3085
  244MOL    C9529741   6.391   5.710   7.254  0.8326 -0.0038  0.2039
  244MOL    H9629742   6.351   5.807   7.286 -0.2652 -0.0718 -0.9412
  244MOL    H9729743   6.302   5.647   7.251  0.3247  0.6978  0.4202
  244MOL    C9829744   6.444   5.737   7.115 -0.9306 -0.1760 -0.3189
  244MOL    F9929745   6.569   5.792   7.125  0.2785  0.5495 -0.0055
  244MOL   F10029746   6.456   5.618   7.043  0.2535  0.0747 -0.2220
  244MOL   C10129747   6.360   5.845   7.039 -0.0971 -0.7043 -0.2079
  244MOL   H10229748   6.347   5.933   7.103 -0.9294 -0.0787 -1.2362
  244MOL   H10329749   6.260   5.808   7.018 -0.0122 -0.8068 -0.4265
  244MOL   C10429750   6.424   5.896   6.910 -0.3574  0.0308 -0.4362
  244MOL   F10529751   6.345   5.978   6.846  0.2126 -0.2584  0.6344
  244MOL   F10629752   6.526   5.973   6.948  0.1281  0.0487  0.0801
  244MOL   C10729753   6.473   5.792   6.804  0.5976  0.2481 -0.5081
  244MOL   H10829754   6.387   5.731   6.776  0.1481  0.0440  1.2171
  244MOL   H10929755   6.562   5.740   6.838  0.8472  1.0000  0.0164
  244MOL   C11029756   6.530   5.866   6.676 -0.2720 -0.1463 -0.0669
  244MOL   F11129757   6.426   5.928   6.624  0.2624 -0.7438  0.0349
  244MOL   F11229758   6.632   5.949   6.714  0.3722 -0.0350 -0.2072
  244MOL   C11329759   6.598   5.777   6.572  0.2638 -0.8169 -0.3573
  244MOL   H11429760   6.551   5.681   6.551  0.2958 -0.9420  0.1412
  244MOL   H11529761   6.686   5.743   6.628  0.0945 -1.2900 -0.3750
  244MOL   C11629762   6.631   5.850   6.436 -0.0275 -0.4802 -0.6780
  244MOL   F11729763   6.522   5.889   6.380 -0.7261 -0.5453  0.2504
  244MOL   F11829764   6.717   5.950   6.453  0.0967 -0.2008  0.1949
  244MOL   C11929765   6.672   5.755   6.328  0.3881  0.4866  0.3412
  244MOL   H12029766   6.589   5.686   6.313 -0.5985  2.0550 -1.5641
  244MOL   H12129767   6.755   5.688   6.353  1.1917  0.4484 -2.2793
  244MOL   H12229768   6.687   5.807   6.234  0.1732  0.9243  0.5476
  245MOL     C129769   7.035   3.982   5.265  0.3741  0.1867  0.2390
  245MOL     F229770   6.983   3.966   5.142 -0.6543  0.0784  0.0149
  245MOL     F329771   6.986   4.097   5.311  0.4209  0.3433  0.3439
  245MOL     C429772   7.186   3.974   5.267  0.6107  0.6849  0.3612
  245MOL     H529773   7.227   3.981   5.368  0.8436  1.6539  0.2089
  245MOL     H629774   7.231   4.066   5.229  0.8720  0.4314  0.0615
  245MOL     H729775   6.981   3.909   5.325  0.3054 -1.5860 -1.8922
  245MOL     C829776   7.255   3.855   5.199 -0.3153 -0.3811  0.8169
  245MOL     F929777   7.254   3.741   5.276  0.4257  0.0147  0.2854
  245MOL    F1029778   7.195   3.837   5.082 -0.1520 -0.4657 -0.4808
  245MOL    C1129779   7.392   3.899   5.165  0.2217 -0.3827  0.1336
  245MOL    H1229780   7.424   3.960   5.250  0.9190 -0.3327 -0.1629
  245MOL    H1329781   7.397   3.975   5.087 -1.0086  2.9854  3.1676
  245MOL    C1429782   7.488   3.790   5.123 -0.3198 -0.3924  0.2584
  245MOL    F1529783   7.521   3.711   5.219  0.3031  0.2475  0.4302
  245MOL    F1629784   7.434   3.713   5.022 -0.2463 -0.4314 -0.3339
  245MOL    C1729785   7.621   3.839   5.066 -0.2179  0.1810 -0.2912
  245MOL    H1829786   7.599   3.876   4.966 -0.1899  1.4533  0.1596
  245MOL    H1929787   7.670   3.743   5.053 -1.2270 -0.5596  1.1905
  245MOL    C2029788   7.686   3.946   5.150  0.0143  0.1740  0.3620
  245MOL    F2129789   7.620   4.063   5.139  0.0565  0.0831  0.3147
  245MOL    F2229790   7.680   3.903   5.280 -0.3469  0.3750  0.1343
  245MOL    C2329791   7.827   3.956   5.106  0.0523 -0.6168 -0.1850
  245MOL    H2429792   7.829   3.960   4.997  1.5968  1.9884 -0.1153
  245MOL    H2529793   7.877   3.866   5.143 -0.4682 -1.4278 -1.4354
  245MOL    C2629794   7.911   4.075   5.169  0.9684  0.7563  0.4620
  245MOL    F2729795   7.855   4.194   5.132 -0.2362  0.0556 -0.4245
  245MOL    F2829796   7.908   4.072   5.303 -0.3685 -0.1242  0.5075
  245MOL    C2929797   8.061   4.087   5.120  0.4128 -0.0544 -0.2212
  245MOL    H3029798   8.068   4.116   5.016  2.7243 -1.8670 -0.5967
  245MOL    H3129799   8.098   3.985   5.110 -1.4380 -0.7333 -0.3373
  245MOL    C3229800   8.162   4.174   5.195  0.6817  0.0630  0.1988
  245MOL    F3329801   8.210   4.109   5.302 -0.6055 -0.0360 -0.5074
  245MOL    F3429802   8.261   4.186   5.108  0.1367  0.4281 -0.6280
  245MOL    C3529803   8.109   4.314   5.234  0.8819  0.7140  0.2149
  245MOL    H3629804   8.014   4.310   5.287 -0.3959  1.1789 -1.9733
  245MOL    H3729805   8.081   4.361   5.140 -0.3022 -0.0882  0.1536
  245MOL    C3829806   8.206   4.397   5.319 -0.2462 -0.0967  0.1628
  245MOL    F3929807   8.143   4.508   5.352  0.1746 -0.0135  0.3578
  245MOL    F4029808   8.229   4.323   5.425  0.7764  0.4514 -0.1677
  245MOL    C4129809   8.346   4.417   5.270  0.0614 -0.0957  0.0113
  245MOL    H4229810   0.043   4.321   5.247  2.9607  1.6210 -1.5599
  245MOL    H4329811   0.059   4.453   5.351  0.4828 -0.8655  0.0350
  245MOL    C4429812   8.337   4.509   5.149 -0.2275 -0.2809  0.5578
  245MOL    F4529813   8.253   4.482   5.054  0.0986  0.1796  0.1166
  245MOL    F4629814   8.308   4.631   5.200 -0.6063 -0.1565  0.2406
  245MOL    C4729815   0.124   4.520   5.085 -0.1049 -0.4884 -0.5705
  245MOL    H4829816   0.148   4.421   5.046  1.1341  0.0091 -1.1064
  245MOL    H4929817   0.194   4.545   5.164  0.1029 -0.1389 -0.8614
  245MOL    C5029818   0.142   4.637   4.980 -0.5886 -0.0399 -0.1533
  245MOL    F5129819   0.040   4.633   4.897 -0.1694 -0.4691 -0.8927
  245MOL    F5229820   0.137   4.751   5.051 -0.0051  0.4056  0.2194
  245MOL    C5329821   0.273   4.646   4.901 -0.0126 -0.1646 -0.4373
  245MOL    H5429822   0.352   4.661   4.975 -1.3051  1.0416  0.7118
  245MOL    H5529823   0.261   4.735   4.840  0.3012 -0.5684 -1.0999
  245MOL    C5629824   0.303   4.528   4.816  0.1154  0.1205 -0.7377
  245MOL    F5729825   0.340   4.424   4.893  0.0145  0.2897 -0.0133
  245MOL    F5829826   0.199   4.498   4.741 -0.0330 -0.1662  0.2996
  245MOL    C5929827   0.423   4.563   4.721 -0.0574 -0.1932  0.5860
  245MOL    H6029828   0.507   4.600   4.780  2.7693 -3.0565 -1.4566
  245MOL    H6129829   0.390   4.652   4.668 -1.1166 -0.7807  0.2473
  245MOL    C6229830   0.475   4.466   4.616 -0.6380  0.3207 -0.1057
  245MOL    F6329831   0.375   4.430   4.540 -0.3185  0.5707 -0.7319
  245MOL    F6429832   0.565   4.533   4.541  0.0761 -0.1399 -0.0344
  245MOL    C6529833   0.538   4.337   4.676 -0.0577 -0.3516  0.1195
  245MOL    H6629834   0.483   4.292   4.759 -2.0775 -0.1031 -1.0272
  245MOL    H6729835   0.633   4.371   4.716 -0.5328  0.6553  0.3895
  245MOL    C6829836   0.562   4.228   4.570  0.0317 -0.4966 -0.0831
  245MOL    F6929837   0.446   4.175   4.536 -0.2646 -0.6352 -0.4733
  245MOL    F7029838   0.619   4.283   4.458  0.0280 -0.5206 -0.0007
  245MOL    C7129839   0.649   4.119   4.627  0.2375  0.5754  0.0499
  245MOL    H7229840   0.642   4.110   4.735 -0.0606  1.9554  0.1583
  245MOL    H7329841   0.745   4.168   4.608 -0.1994  0.9119 -1.3266
  245MOL    C7429842   0.643   3.979   4.560 -0.7262 -0.6224 -0.5260
  245MOL    F7529843   0.632   4.002   4.428  0.2601  0.5825 -0.6387
  245MOL    F7629844   0.760   3.927   4.581 -0.0096 -0.1717  0.3081
  245MOL    C7729845   0.516   3.893   4.593  0.5826 -0.4630  0.3585
  245MOL    H7829846   0.426   3.941   4.556  0.8765 -0.5317 -0.4684
  245MOL    H7929847   0.506   3.877   4.700 -1.3988 -1.3651  0.0510
  245MOL    C8029848   0.525   3.751   4.552  0.1843  0.0856  0.3466
  245MOL    F8129849   0.636   3.684   4.585  0.4016  0.8126 -0.2482
  245MOL    F8229850   0.423   3.687   4.612  0.4554  0.0354 -0.3989
  245MOL    C8329851   0.512   3.738   4.398 -0.3241 -0.7030  0.4164
  245MOL    H8429852   0.588   3.798   4.348 -0.0599 -0.5803  0.9554
  245MOL    H8529853   0.414   3.776   4.367 -0.4328 -0.7237  0.7305
  245MOL    C8629854   0.497   3.597   4.339 -0.2005  0.8189 -0.0741
  245MOL    F8729855   0.606   3.521   4.378 -0.6774 -0.8493 -0.0942
  245MOL    F8829856   0.390   3.535   4.383  0.7004  0.0689 -0.1127
  245MOL    C8929857   0.488   3.610   4.185  0.2530 -0.8682 -0.6208
  245MOL    H9029858   0.583   3.639   4.141  1.1155 -0.3031  1.5364
  245MOL    H9129859   0.419   3.687   4.149  1.6944  1.6897  1.9056
  245MOL    C9229860   0.450   3.478   4.118 -0.1229  0.2265  0.0165
  245MOL    F9329861   0.533   3.381   4.170 -0.1531  0.1472 -0.2670
  245MOL    F9429862   0.333   3.447   4.163  0.7253  0.3272 -0.2832
  245MOL    C9529863   0.446   3.464   3.963 -0.0484  0.2168  0.1440
  245MOL    H9629864   0.374   3.536   3.926 -2.6851 -1.5799  1.6295
  245MOL    H9729865   0.415   3.362   3.940  2.5866 -0.4133 -0.8222
  245MOL    C9829866   0.582   3.487   3.894 -0.4489 -0.0907  0.2785
  245MOL    F9929867   0.649   3.583   3.948  0.6819  0.2364 -0.0115
  245MOL   F10029868   0.658   3.386   3.914 -0.5033  0.0347 -0.0201
  245MOL   C10129869   0.564   3.515   3.747 -0.2426 -0.7847  0.4714
  245MOL   H10229870   0.652   3.567   3.709 -1.9402  0.2768 -2.1783
  245MOL   H10329871   0.488   3.592   3.733  1.3513  1.0124  1.5163
  245MOL   C10429872   0.534   3.384   3.668  0.0865  0.1673  0.3826
  245MOL   F10529873   0.615   3.288   3.705 -0.0613 -0.6485 -0.0306
  245MOL   F10629874   0.412   3.349   3.707 -0.5591  0.2806  0.4567
  245MOL   C10729875   0.551   3.397   3.523  0.1124  0.5430  0.4437
  245MOL   H10829876   0.649   3.439   3.504  0.2930 -0.1312 -0.1038
  245MOL   H10929877   0.480   3.478   3.504  1.6262  2.2815  1.9261
  245MOL   C11029878   0.542   3.268   3.440 -0.0476 -0.0731  0.0250
  245MOL   F11129879   0.631   3.173   3.479  0.1177  0.2684  0.0117
  245MOL   F11229880   0.414   3.231   3.466  0.1275  0.7541 -0.3171
  245MOL   C11329881   0.546   3.286   3.285 -0.1108  0.6468  0.5103
  245MOL   H11429882   0.486   3.366   3.242 -0.4778 -0.5733 -1.2959
  245MOL   H11529883   0.498   3.202   3.234  0.8687  1.8602 -2.5532
  245MOL   C11629884   0.685   3.297   3.216  0.5574 -0.0242  0.4352
  245MOL   F11729885   0.756   3.388   3.270  0.3906 -0.4491  0.3943
  245MOL   F11829886   0.751   3.180   3.224 -0.2214  0.1264  0.3051
  245MOL   C11929887   0.668   3.319   3.064 -0.1382  0.4870  0.0913
  245MOL   H12029888   0.600   3.243   3.025  0.0240  0.5565 -0.3340
  245MOL   H12129889   0.768   3.317   3.020 -0.0177  1.9433  0.2812
  245MOL   H12229890   0.616   3.414   3.051  2.3472  1.4647 -3.5213
  246MOL     C129891   5.045   7.486   5.902 -0.2928  0.0828 -0.6694
  246MOL     F229892   4.984   7.533   5.793 -0.1434  0.8009 -0.4529
  246MOL     F329893   5.028   7.576   5.997 -0.1660 -1.0092 -0.8408
  246MOL     C429894   5.185   7.466   5.857  0.2001 -0.1311 -0.8782
  246MOL     H529895   5.229   7.566   5.858  0.8034 -0.3947  0.5817
  246MOL     H629896   5.192   7.437   5.752  1.4928  1.4474 -1.2603
  246MOL     H729897   4.993   7.392   5.923 -0.8538  0.8605  1.4725
  246MOL     C829898   5.260   7.368   5.947 -0.0152  0.5391 -0.3244
  246MOL     F929899   5.238   7.398   6.072 -1.1383  0.9398 -0.4671
  246MOL    F1029900   5.208   7.249   5.921  0.1889  0.3735  0.0649
  246MOL    C1129901   5.407   7.363   5.923 -0.3429  0.1641  1.0751
  246MOL    H1229902   5.448   7.462   5.943  1.2651 -0.1109 -0.6566
  246MOL    H1329903   5.440   7.350   5.819 -0.9605  0.6477  0.8231
  246MOL    C1429904   5.486   7.253   5.993 -0.6088  0.4808 -0.0948
  246MOL    F1529905   5.453   7.244   6.121  0.1635 -0.0220 -0.2959
  246MOL    F1629906   5.456   7.131   5.943 -0.2862  0.2569 -0.4472
  246MOL    C1729907   5.642   7.276   5.976 -0.1831 -0.4375  0.1881
  246MOL    H1829908   5.675   7.251   5.875 -1.2594  0.2302 -0.3374
  246MOL    H1929909   5.697   7.208   6.041  0.6698  0.4185  0.3681
  246MOL    C2029910   5.700   7.415   6.023 -0.4290 -0.1569  0.2197
  246MOL    F2129911   5.683   7.504   5.927 -0.2428 -0.1211  0.1785
  246MOL    F2229912   5.633   7.461   6.128 -0.3111 -0.2898 -0.4554
  246MOL    C2329913   5.850   7.421   6.074  0.4464  0.0121 -0.3259
  246MOL    H2429914   5.852   7.365   6.167 -3.1630  1.2619  0.5910
  246MOL    H2529915   5.859   7.524   6.108 -1.6891 -0.3909  1.5661
  246MOL    C2629916   5.957   7.401   5.977 -0.2944 -0.1354  0.6013
  246MOL    F2729917   5.928   7.293   5.910  0.5192 -0.1936  0.3873
  246MOL    F2829918   5.958   7.499   5.884  0.0552  0.0444 -0.1506
  246MOL    C2929919   6.099   7.380   6.036 -0.0993 -0.0558  0.0884
  246MOL    H3029920   6.165   7.338   5.960 -0.8237 -2.3087  0.6612
  246MOL    H3129921   6.086   7.307   6.115 -2.6771 -0.0772 -0.2839
  246MOL    C3229922   6.165   7.508   6.087 -1.0401 -0.1861  0.4932
  246MOL    F3329923   6.164   7.601   5.987  0.2685 -0.9554 -0.4251
  246MOL    F3429924   6.096   7.547   6.186 -0.0219  0.0099 -0.2373
  246MOL    C3529925   6.313   7.478   6.118  0.4305  0.2977 -0.6288
  246MOL    H3629926   6.346   7.405   6.043 -1.0333 -2.0567  0.9387
  246MOL    H3729927   6.318   7.421   6.211  0.1084 -0.3587 -1.0031
  246MOL    C3829928   6.400   7.606   6.149  1.4545  0.5517  0.0341
  246MOL    F3929929   6.519   7.553   6.190  0.1028  0.0503 -0.0166
  246MOL    F4029930   6.433   7.668   6.038  0.0415 -0.4761  0.0997
  246MOL    C4129931   6.356   7.696   6.264  0.2487  0.2154 -0.5319
  246MOL    H4229932   6.382   7.641   6.355  0.2797 -1.1184 -1.3469
  246MOL    H4329933   6.252   7.723   6.244  0.9851  2.0368 -2.0613
  246MOL    C4429934   6.448   7.827   6.268  0.6649 -0.0197  0.0998
  246MOL    F4529935   6.580   7.796   6.265 -0.0542 -0.5607 -0.7235
  246MOL    F4629936   6.417   7.897   6.160 -0.2003 -0.4406 -0.0269
  246MOL    C4729937   6.432   7.917   6.392 -0.0754 -1.0397  0.2173
  246MOL    H4829938   6.476   7.865   6.477 -0.6378 -1.4062  0.2792
  246MOL    H4929939   6.325   7.928   6.411  0.4399  2.7618  1.4111
  246MOL    C5029940   6.476   8.060   6.387  0.6786 -1.0367 -0.4035
  246MOL    F5129941   6.402   8.114   6.284 -0.3122  0.1814 -0.2235
  246MOL    F5229942   6.440   8.116   6.504  0.5337 -0.0505 -0.1467
  246MOL    C5329943   6.623   8.083   6.355  0.4956 -0.0909  0.6159
  246MOL    H5429944   6.635   8.057   6.249 -0.1714 -0.5400  0.6533
  246MOL    H5529945   6.691   8.021   6.413  1.7678  0.7391  0.0448
  246MOL    C5629946   6.658   8.239   6.355 -0.1995 -0.6998 -0.4443
  246MOL    F5729947   6.583   8.303   6.266 -0.1326  0.2624  0.4715
  246MOL    F5829948   6.626   8.277   6.480  0.1553  0.5591  0.1240
  246MOL    C5929949   6.803   8.272   6.333  0.4380  0.7455  0.3438
  246MOL    H6029950   6.839   8.256   6.231  1.7670 -0.4542  0.9725
  246MOL    H6129951   6.862   8.201   6.391  2.0802  2.6490  1.0537
  246MOL    C6229952   6.839   0.069   6.378 -0.0251 -0.1031 -0.9021
  246MOL    F6329953   6.864   0.080   6.506  0.5455  0.6354 -0.1365
  246MOL    F6429954   6.951   0.093   6.318 -0.4967  0.0727  0.1533
  246MOL    C6529955   6.747   0.181   6.318 -0.3180 -0.2320 -0.1822
  246MOL    H6629956   6.648   0.170   6.362  0.6027 -0.1124  1.9699
  246MOL    H6729957   6.725   0.164   6.212  4.8936  1.1662 -1.6278
  246MOL    C6829958   6.788   0.328   6.331  0.7012 -0.2722  0.0874
  246MOL    F6929959   6.760   0.368   6.456  0.1885  0.1726 -0.4839
  246MOL    F7029960   6.917   0.339   6.300 -0.1192  0.5478 -0.1369
  246MOL    C7129961   6.694   0.419   6.251 -0.6722 -0.0272  0.4542
  246MOL    H7229962   6.596   0.420   6.299  0.1939 -2.7905  2.4024
  246MOL    H7329963   6.674   0.385   6.149  0.2447 -0.6469  0.4698
  246MOL    C7429964   6.752   0.559   6.234 -0.1037 -0.8405  0.2382
  246MOL    F7529965   6.779   0.614   6.349  0.5888  0.0363  0.1892
  246MOL    F7629966   6.862   0.548   6.163  0.5612 -0.1780 -0.1762
  246MOL    C7729967   6.653   0.657   6.171  0.8588  0.7865 -0.2419
  246MOL    H7829968   6.711   0.748   6.155  2.7451 -0.8040 -3.0422
  246MOL    H7929969   6.572   0.687   6.236 -1.3234 -0.8126 -2.1327
  246MOL    C8029970   6.595   0.620   6.030 -0.8511  0.5956 -0.6585
  246MOL    F8129971   6.685   0.559   5.948 -0.5381  0.2607  0.2365
  246MOL    F8229972   6.502   0.534   6.044  0.6918 -0.0145 -0.1254
  246MOL    C8329973   6.521   0.734   5.964  0.1157  0.2652  0.7035
  246MOL    H8429974   6.438   0.762   6.029 -0.9091  1.1142 -0.9469
  246MOL    H8529975   6.474   0.699   5.871  2.4375  0.3924 -0.5435
  246MOL    C8629976   6.593   0.855   5.912  0.5200  0.3170  0.0226
  246MOL    F8729977   6.648   0.914   6.011 -0.1419  0.3506 -0.2688
  246MOL    F8829978   6.682   0.806   5.825 -0.0727  0.2241  0.0255
  246MOL    C8929979   6.509   0.959   5.830 -0.2822  0.2515  0.8814
  246MOL    H9029980   6.472   0.916   5.737 -0.2093  1.7101  0.1747
  246MOL    H9129981   6.579   1.040   5.811  1.7410 -1.1092  2.2963
  246MOL    C9229982   6.387   1.021   5.901  0.1764 -0.1397  0.6566
  246MOL    F9329983   6.289   0.931   5.910 -0.2948 -0.2623  0.1888
  246MOL    F9429984   6.429   1.044   6.020  0.7776  0.5691 -0.1025
  246MOL    C9529985   6.336   1.154   5.844  0.1379  0.0578  0.0480
  246MOL    H9629986   6.273   1.130   5.758  2.5014  1.6157 -2.2138
  246MOL    H9729987   6.424   1.207   5.807  1.6446 -2.3424  0.0736
  246MOL    C9829988   6.252   1.243   5.937  0.4904 -0.2486 -0.4232
  246MOL    F9929989   6.334   1.276   6.042  0.5053  0.0353  0.5902
  246MOL   F10029990   6.204   1.359   5.883  0.2430  0.1851  0.3545
  246MOL   C10129991   6.132   1.172   6.006  0.3070 -0.7227 -0.9299
  246MOL   H10229992   6.092   1.234   6.086  2.2553 -0.0260 -0.4616
  246MOL   H10329993   6.168   1.079   6.050  1.6592 -0.5447 -1.6366
  246MOL   C10429994   6.015   1.144   5.912 -0.0332 -0.2723  0.4696
  246MOL   F10529995   5.983   1.254   5.836 -0.0859 -0.1377  0.0949
  246MOL   F10629996   6.068   1.060   5.818 -0.2759  0.3337 -0.0375
  246MOL   C10729997   5.884   1.093   5.980 -0.4047 -0.0303  0.0826
  246MOL   H10829998   5.810   1.095   5.900  1.0496 -1.0304 -1.3196
  246MOL   H10929999   5.852   1.166   6.055 -2.2910 -0.9028  0.1760
  246MOL   C11030000   5.894   0.961   6.051 -0.1190  0.1336 -0.2818
  246MOL   F11130001   5.946   0.877   5.963  0.2597  0.2655 -0.9819
  246MOL   F11230002   5.971   0.965   6.155 -0.0145 -0.2628 -0.0707
  246MOL   C11330003   5.755   0.903   6.089 -0.1613  0.3205  0.4622
  246MOL   H11430004   5.773   0.796   6.097 -1.6485 -0.0195 -0.6110
  246MOL   H11530005   5.686   0.918   6.007 -1.0876 -1.0385  0.9800
  246MOL   C11630006   5.689   0.946   6.223  0.5385 -0.0415 -0.2152
  246MOL   F11730007   5.656   1.072   6.210 -0.4112 -0.0913 -0.4288
  246MOL   F11830008   5.571   0.878   6.219  0.1365  0.0921 -0.1851
  246MOL   C11930009   5.767   0.927   6.360  0.8829  0.1597  0.1092
  246MOL   H12030010   5.769   0.821   6.385  1.1136  0.7000  2.5551
  246MOL   H12130011   5.709   0.969   6.442  0.7864  1.1622 -0.4634
  246MOL   H12230012   5.870   0.959   6.376  0.5132  0.1795  2.6870
  247MOL     C130013   5.487   1.483   7.630  0.5996  0.0400 -0.1603
  247MOL     F230014   5.527   1.442   7.506 -0.2407 -0.0022 -0.6318
  247MOL     F330015   5.410   1.389   7.689 -0.0139  0.9645 -0.0397
  247MOL     C430016   5.413   1.620   7.621  0.9329 -0.1979 -0.5709
  247MOL     H530017   5.476   1.685   7.560 -1.6409  0.8167 -2.2002
  247MOL     H630018   5.413   1.660   7.722  0.5735 -0.4704 -0.4617
  247MOL     H730019   5.575   1.493   7.693  1.5544  0.6704 -1.5768
  247MOL     C830020   5.269   1.614   7.566 -0.5524  0.3688 -0.8599
  247MOL     F930021   5.200   1.527   7.641  0.8857 -0.0745 -0.2638
  247MOL    F1030022   5.207   1.728   7.576 -0.1993  0.5703 -0.6214
  247MOL    C1130023   5.258   1.582   7.421 -0.3718  0.3218  0.0994
  247MOL    H1230024   5.287   1.482   7.388 -2.4440 -0.4433  0.5076
  247MOL    H1330025   5.325   1.651   7.369  0.6641  0.8199  2.0502
  247MOL    C1430026   5.121   1.606   7.354 -0.0861  0.0915 -0.1503
  247MOL    F1530027   5.103   1.734   7.341 -0.2726  0.4989 -0.2678
  247MOL    F1630028   5.122   1.537   7.241  0.0005  0.5326 -0.5178
  247MOL    C1730029   5.011   1.547   7.439  0.7516  0.2509  0.0312
  247MOL    H1830030   5.017   1.589   7.540 -0.2066  0.0595  0.1738
  247MOL    H1930031   5.027   1.440   7.454 -0.0828  0.2303  0.8405
  247MOL    C2030032   4.864   1.543   7.386 -0.3729  0.1776  0.5968
  247MOL    F2130033   4.784   1.504   7.481  0.2025 -0.6175 -0.0853
  247MOL    F2230034   4.828   1.672   7.362  0.2361  0.2016 -0.2372
  247MOL    C2330035   4.824   1.482   7.248 -0.5457  0.5233 -0.0260
  247MOL    H2430036   4.868   1.549   7.175 -0.1025 -2.0138 -2.1729
  247MOL    H2530037   4.716   1.498   7.251 -0.3707  1.8790 -0.9146
  247MOL    C2630038   4.865   1.333   7.235  0.6119 -0.4806  0.3956
  247MOL    F2730039   4.997   1.315   7.248  0.4115 -0.3330 -0.2571
  247MOL    F2830040   4.816   1.265   7.339  0.0853 -0.0967 -0.1349
  247MOL    C2930041   4.806   1.262   7.111 -0.5827 -0.2582  0.2133
  247MOL    H3030042   4.698   1.259   7.106 -0.5170 -1.6521 -0.4643
  247MOL    H3130043   4.842   1.161   7.128 -0.0575  0.0044  0.6748
  247MOL    C3230044   4.876   1.317   6.979  0.2339  0.1952 -0.9149
  247MOL    F3330045   4.832   1.437   6.941 -0.0050  0.5127  0.0511
  247MOL    F3430046   5.013   1.329   6.993  0.4018  0.2380  0.6371
  247MOL    C3530047   4.848   1.227   6.853 -0.7645  0.4267 -0.5403
  247MOL    H3630048   4.888   1.127   6.870 -2.2107 -0.2199 -0.8537
  247MOL    H3730049   4.905   1.270   6.770 -1.3819  1.9740 -0.1881
  247MOL    C3830050   4.707   1.193   6.812 -0.2807  1.1434  0.1799
  247MOL    F3930051   4.722   1.111   6.698  0.4727 -0.1031 -0.1776
  247MOL    F4030052   4.654   1.130   6.908 -0.1977 -0.2954 -0.1579
  247MOL    C4130053   4.629   1.320   6.775  0.0263 -0.5250  1.0137
  247MOL    H4230054   4.688   1.390   6.715 -0.8088 -0.7138 -0.0236
  247MOL    H4330055   4.598   1.372   6.866  4.0358  0.3694  1.9817
  247MOL    C4430056   4.502   1.285   6.701 -0.0337  0.7484  0.0388
  247MOL    F4530057   4.530   1.264   6.574  0.0252 -0.0240  0.2026
  247MOL    F4630058   4.465   1.168   6.748 -0.0840 -0.9552  0.5332
  247MOL    C4730059   4.390   1.389   6.718  0.1716 -0.9405 -0.0979
  247MOL    H4830060   4.407   1.483   6.665 -3.3432  0.0903  0.4794
  247MOL    H4930061   4.375   1.411   6.824  1.6044  0.8855 -0.2380
  247MOL    C5030062   4.244   1.348   6.687 -0.5968 -0.1731 -0.0691
  247MOL    F5130063   4.223   1.224   6.739  0.4263 -0.5926 -0.3326
  247MOL    F5230064   4.168   1.428   6.755 -0.1188 -0.0735  0.0183
  247MOL    C5330065   4.225   1.329   6.533  0.3126  0.1655  0.2569
  247MOL    H5430066   4.117   1.317   6.537  0.0522  1.1922 -2.8191
  247MOL    H5530067   4.260   1.231   6.500  0.4691 -0.0610  1.0788
  247MOL    C5630068   4.257   1.446   6.442 -0.1503  0.1217 -1.2485
  247MOL    F5730069   4.384   1.484   6.450 -0.7039  0.2907  0.0075
  247MOL    F5830070   4.229   1.407   6.316 -0.3410  0.4754 -0.3854
  247MOL    C5930071   4.179   1.581   6.456  0.2643  0.2088  0.0456
  247MOL    H6030072   4.181   1.597   6.564  0.8516  1.4548 -0.1384
  247MOL    H6130073   4.073   1.559   6.445  0.4804 -1.7221  1.6517
  247MOL    C6230074   4.236   1.708   6.379  0.3441  0.5597 -0.5957
  247MOL    F6330075   4.151   1.806   6.387  0.0473  0.0996 -0.0367
  247MOL    F6430076   4.340   1.763   6.447  0.2194  0.6227 -0.2170
  247MOL    C6530077   4.279   1.679   6.234  0.6601 -1.0612  0.1569
  247MOL    H6630078   4.199   1.619   6.193  0.4135 -0.4308 -0.2905
  247MOL    H6730079   4.359   1.604   6.229  2.9381  1.3773 -1.4066
  247MOL    C6830080   4.299   1.790   6.134  0.1259 -0.1817 -0.0223
  247MOL    F6930081   4.320   1.728   6.019 -0.4050  0.1342  0.3071
  247MOL    F7030082   4.188   1.858   6.123 -0.4685  0.2670  0.3892
  247MOL    C7130083   4.422   1.881   6.166  0.7485 -0.0769 -0.8375
  247MOL    H7230084   4.505   1.810   6.172  1.8778  1.0917 -2.0481
  247MOL    H7330085   4.395   1.934   6.258  1.9809 -0.4130 -0.2692
  247MOL    C7430086   4.439   2.004   6.072 -0.3573 -0.5149  0.2536
  247MOL    F7530087   4.432   1.969   5.943  0.0236  0.3151  0.2599
  247MOL    F7630088   4.341   2.094   6.093  0.1800 -0.2728 -0.3313
  247MOL    C7730089   4.575   2.072   6.095 -0.4532  0.2294  1.3138
  247MOL    H7830090   4.650   1.993   6.090  1.4550  2.0134  0.9283
  247MOL    H7930091   4.576   2.122   6.191  0.6656  3.0118 -0.0904
  247MOL    C8030092   4.622   2.175   5.988  0.2480 -0.1870  0.8389
  247MOL    F8130093   4.740   2.227   6.011 -0.2076 -0.6137  0.3079
  247MOL    F8230094   4.638   2.117   5.867  0.1847  0.4792  0.1616
  247MOL    C8330095   4.516   2.282   5.970  0.2408  0.5193 -0.1821
  247MOL    H8430096   4.458   2.312   6.057 -0.6328 -1.9763  0.1258
  247MOL    H8530097   4.439   2.256   5.897  0.6204 -1.7805  0.1839
  247MOL    C8630098   4.574   2.413   5.913 -0.1929 -0.1578 -0.5125
  247MOL    F8730099   4.660   2.460   6.001  0.0321  1.0501 -0.3333
  247MOL    F8830100   4.643   2.381   5.802  0.3176  0.1521  0.2273
  247MOL    C8930101   4.468   2.517   5.872 -0.4478 -0.0846 -0.1887
  247MOL    H9030102   4.386   2.464   5.824 -0.9823  0.3763  0.2069
  247MOL    H9130103   4.518   2.583   5.801 -1.5542  2.6665  1.4919
  247MOL    C9230104   4.398   2.584   5.986  0.2587  0.4145  0.1578
  247MOL    F9330105   4.296   2.649   5.923  0.1372 -0.1952 -0.2610
  247MOL    F9430106   4.344   2.501   6.071 -0.0999  0.2442  0.2322
  247MOL    C9530107   4.480   2.689   6.064  0.3000 -0.2127  0.3156
  247MOL    H9630108   4.518   2.754   5.986  0.1307 -0.9505 -0.3892
  247MOL    H9730109   4.565   2.633   6.102 -1.1142 -0.7855  2.7154
  247MOL    C9830110   4.413   2.778   6.169 -0.1602 -0.6148 -0.7255
  247MOL    F9930111   4.354   2.866   6.092 -0.0016 -0.4546  0.2170
  247MOL   F10030112   4.321   2.700   6.227  0.1436  0.2310 -0.3303
  247MOL   C10130113   4.517   2.837   6.270  0.1044  0.2533 -0.0196
  247MOL   H10230114   4.585   2.892   6.205 -0.1371  0.4168 -0.1370
  247MOL   H10330115   4.584   2.770   6.324 -0.8916  0.3519  1.3702
  247MOL   C10430116   4.465   2.932   6.374  0.6283 -0.1484 -0.7827
  247MOL   F10530117   4.361   2.998   6.315  0.4820 -0.0175  0.0931
  247MOL   F10630118   4.409   2.872   6.481 -0.2313 -0.0450  0.0709
  247MOL   C10730119   4.578   3.019   6.429 -0.5014  0.1282  0.5736
  247MOL   H10830120   4.639   3.063   6.350 -0.4474 -1.7395 -0.4331
  247MOL   H10930121   4.646   2.953   6.482 -1.3923  0.0390  1.6383
  247MOL   C11030122   4.516   3.134   6.505 -0.5127 -0.2521 -0.0894
  247MOL   F11130123   4.627   3.198   6.537  0.0902  0.3406  0.5515
  247MOL   F11230124   4.446   3.215   6.426  0.3277 -0.1336  0.7341
  247MOL   C11330125   4.433   3.121   6.632 -0.7011 -0.3414  0.1024
  247MOL   H11430126   4.498   3.068   6.702  0.4148  1.3250  0.3615
  247MOL   H11530127   4.346   3.056   6.628 -0.3662 -0.7674 -0.2211
  247MOL   C11630128   4.391   3.254   6.700 -0.3361  0.5311  0.2115
  247MOL   F11730129   4.498   3.330   6.720 -0.2542  0.1822 -0.2159
  247MOL   F11830130   4.307   3.325   6.622  0.4022  0.2685 -0.6809
  247MOL   C11930131   4.339   3.233   6.839  0.6241  0.7132  0.2744
  247MOL   H12030132   4.419   3.208   6.909 -0.5126 -1.1147  0.9584
  247MOL   H12130133   4.255   3.164   6.837  2.5533 -1.6731 -0.5081
  247MOL   H12230134   4.303   3.330   6.873  0.1324  0.6762 -0.1406
  248MOL     C130135   7.476   4.494   1.602 -0.2801 -0.0747  0.0712
  248MOL     F230136   7.480   4.627   1.593  0.3965  0.6632 -0.3198
  248MOL     F330137   7.597   4.443   1.596  0.0575  0.7004  0.1519
  248MOL     C430138   7.396   4.435   1.485  1.0657  0.6922 -0.7772
  248MOL     H530139   7.452   4.440   1.391  0.0372  0.1882 -1.4212
  248MOL     H630140   7.322   4.510   1.460 -0.1903 -1.0584 -2.4736
  248MOL     H730141   7.421   4.473   1.694  0.5841  2.8805  1.3173
  248MOL     C830142   7.335   4.295   1.502 -1.5935  0.8839 -0.8883
  248MOL     F930143   7.285   4.281   1.625  0.0080  0.4132  0.2042
  248MOL    F1030144   7.234   4.273   1.419 -0.3356 -0.0271  0.2161
  248MOL    C1130145   7.435   4.180   1.484 -0.3513 -0.2244 -0.0284
  248MOL    H1230146   7.505   4.183   1.568 -0.6234  0.5071  0.1759
  248MOL    H1330147   7.503   4.196   1.400 -1.2565  0.4719 -0.6310
  248MOL    C1430148   7.385   4.031   1.488  0.6291  0.0907  0.0937
  248MOL    F1530149   7.340   4.007   1.608  0.5101 -0.0612  0.3615
  248MOL    F1630150   7.287   4.006   1.398  0.3450  0.0391 -0.5212
  248MOL    C1730151   7.500   3.933   1.481 -0.6061 -0.2829  0.0966
  248MOL    H1830152   7.474   3.833   1.516 -0.8025  0.0841  1.0208
  248MOL    H1930153   7.588   3.969   1.534  0.4426 -1.2568 -0.9694
  248MOL    C2030154   7.556   3.910   1.339  0.0209  0.1226 -0.2675
  248MOL    F2130155   7.458   3.844   1.273 -0.4494 -0.6785  0.2505
  248MOL    F2230156   7.574   4.023   1.274  0.2891  0.6633  0.2147
  248MOL    C2330157   7.692   3.835   1.334 -0.3371 -0.1218  0.2740
  248MOL    H2430158   7.750   3.898   1.401  0.4113 -2.7004  2.1547
  248MOL    H2530159   7.734   3.837   1.234  0.9070  1.2719  0.8036
  248MOL    C2630160   7.689   3.691   1.399 -0.1020 -0.0705 -0.0896
  248MOL    F2730161   7.812   3.638   1.380 -0.2862 -0.6233  0.2638
  248MOL    F2830162   7.664   3.697   1.530 -0.3277 -0.4128  0.2097
  248MOL    C2930163   7.589   3.598   1.327  0.1951  0.4297 -0.9323
  248MOL    H3030164   7.585   3.619   1.220 -2.2802 -3.4797 -1.7012
  248MOL    H3130165   7.489   3.609   1.368  0.2659 -0.2876 -0.5412
  248MOL    C3230166   7.617   3.449   1.338  0.1081 -0.3067  0.0520
  248MOL    F3330167   7.504   3.394   1.282  0.1783 -0.6177 -0.3170
  248MOL    F3430168   7.723   3.417   1.261 -0.2824  0.2140 -0.4125
  248MOL    C3530169   7.629   3.388   1.479 -0.6796 -0.3188  0.2136
  248MOL    H3630170   7.569   3.451   1.545 -0.5943  1.1312 -1.0680
  248MOL    H3730171   7.732   3.388   1.514  0.2159 -1.6592 -2.3371
  248MOL    C3830172   7.571   3.245   1.484  0.2084 -0.8091 -0.5620
  248MOL    F3930173   7.608   3.197   1.609  0.0052 -0.2073 -0.4129
  248MOL    F4030174   7.441   3.239   1.463 -0.3108  0.4674 -0.0799
  248MOL    C4130175   7.629   3.145   1.372  0.2048  0.5467 -0.0414
  248MOL    H4230176   7.732   3.166   1.345  0.2250  1.4627  0.7645
  248MOL    H4330177   7.566   3.138   1.283  0.3652 -3.2302  0.0539
  248MOL    C4430178   7.631   2.998   1.415 -0.8214 -0.2191 -0.2459
  248MOL    F4530179   7.684   2.925   1.315 -0.1326 -0.1952  0.2205
  248MOL    F4630180   7.712   2.977   1.521  0.4137 -0.2898 -0.2208
  248MOL    C4730181   7.495   2.934   1.455  0.0797 -0.4693  0.1275
  248MOL    H4830182   7.450   2.994   1.535  3.3054  0.8728  1.0204
  248MOL    H4930183   7.515   2.834   1.495 -2.7749 -1.5204 -0.9586
  248MOL    C5030184   7.397   2.918   1.333  0.2392  0.2055 -0.8035
  248MOL    F5130185   7.346   3.044   1.304  0.6692  0.2529  0.3233
  248MOL    F5230186   7.460   2.880   1.226  0.2881 -0.1088  0.3046
  248MOL    C5330187   7.285   2.809   1.361 -0.3762  0.3712  0.2123
  248MOL    H5430188   7.229   2.833   1.451 -0.2410  2.0542 -0.1380
  248MOL    H5530189   7.332   2.717   1.393  0.0396  0.6313  0.3424
  248MOL    C5630190   7.179   2.795   1.245  0.9147 -0.2615  0.2428
  248MOL    F5730191   7.077   2.723   1.294  0.3536  0.3454 -0.0598
  248MOL    F5830192   7.139   2.913   1.220 -0.2656 -0.1520  0.0687
  248MOL    C5930193   7.221   2.723   1.116 -0.1816  0.2130  0.7035
  248MOL    H6030194   7.284   2.790   1.058  1.1236 -0.8116  0.9181
  248MOL    H6130195   7.140   2.709   1.043  0.4411 -0.3564  0.1149
  248MOL    C6230196   7.282   2.586   1.121 -0.2629 -1.0636  0.1338
  248MOL    F6330197   7.407   2.604   1.167  0.3983 -0.2144 -0.6424
  248MOL    F6430198   7.220   2.503   1.202  0.2904  0.3344 -0.1774
  248MOL    C6530199   7.300   2.521   0.969  0.0940  0.2013  0.3333
  248MOL    H6630200   7.202   2.492   0.933 -0.3377  0.7443  1.0596
  248MOL    H6730201   7.361   2.431   0.979 -2.0770 -1.5127 -1.4550
  248MOL    C6830202   7.370   2.596   0.853 -0.1201  0.2764  0.4077
  248MOL    F6930203   7.316   2.710   0.815 -0.1817  0.0466  0.4100
  248MOL    F7030204   7.490   2.630   0.895 -0.3247 -0.2655  0.1396
  248MOL    C7130205   7.381   2.502   0.731 -0.2855  0.7708  0.0516
  248MOL    H7230206   7.283   2.466   0.699 -0.3639  0.9958  0.0384
  248MOL    H7330207   7.425   2.406   0.759 -1.3584  0.0312 -0.7665
  248MOL    C7430208   7.446   2.554   0.600 -0.0555  0.4339  0.0299
  248MOL    F7530209   7.411   2.464   0.509 -0.7510 -0.2107 -0.5181
  248MOL    F7630210   7.388   2.670   0.557  0.2209 -0.0841  1.0339
  248MOL    C7730211   7.601   2.570   0.599  0.0056 -0.4214 -0.1228
  248MOL    H7830212   7.654   2.491   0.653 -0.4067  0.7369  2.0228
  248MOL    H7930213   7.621   2.664   0.651  2.6930 -0.3819 -1.1447
  248MOL    C8030214   7.662   2.595   0.460 -0.5658  0.2816 -0.1508
  248MOL    F8130215   7.680   2.473   0.415 -0.1645  0.0777 -0.1193
  248MOL    F8230216   7.590   2.664   0.375  0.4148  0.0947 -0.2141
  248MOL    C8330217   7.804   2.653   0.473  0.2323  0.0258  0.4017
  248MOL    H8430218   7.846   2.613   0.566 -0.5071 -0.8494  0.3624
  248MOL    H8530219   7.784   2.759   0.487 -1.0321  0.0580 -1.5449
  248MOL    C8630220   7.905   2.627   0.352  0.3008 -0.2837  0.8525
  248MOL    F8730221   7.940   2.501   0.347 -0.2454 -0.0382 -0.2252
  248MOL    F8830222   7.838   2.651   0.241  0.1861  0.3547 -0.3160
  248MOL    C8930223   8.034   2.713   0.336  0.3211  0.3933 -0.0496
  248MOL    H9030224   8.012   2.815   0.303 -2.3679 -1.1923 -3.5336
  248MOL    H9130225   8.072   2.676   0.241  2.1507  0.9655  0.4467
  248MOL    C9230226   8.141   2.701   0.442 -0.1240  0.5001 -0.0187
  248MOL    F9330227   8.090   2.715   0.568  0.5888  0.3145  0.0089
  248MOL    F9430228   8.200   2.579   0.437  0.3038 -0.2607  0.0119
  248MOL    C9530229   8.251   2.812   0.417  0.0069  0.4649  0.0454
  248MOL    H9630230   8.205   2.909   0.436  2.0989  2.0158 -2.6292
  248MOL    H9730231   8.297   2.815   0.319 -0.1283 -0.6281 -0.0596
  248MOL    C9830232   0.026   2.797   0.506 -0.2734  0.2812  0.6482
  248MOL    F9930233   0.078   2.674   0.480  0.3255 -0.1766 -0.1129
  248MOL   F10030234   0.112   2.895   0.475 -0.6226 -0.0015  0.0783
  248MOL   C10130235   8.345   2.798   0.656 -0.5788 -0.1275  0.1315
  248MOL   H10230236   8.290   2.707   0.683  1.7230 -0.9627  2.1476
  248MOL   H10330237   8.276   2.878   0.685 -0.0356  0.2017  0.5215
  248MOL   C10430238   0.113   2.809   0.748 -0.9274  0.4762  0.2334
  248MOL   F10530239   0.195   2.713   0.712  0.0196 -0.3171 -0.8348
  248MOL   F10630240   0.166   2.927   0.723 -0.2103  0.4480 -0.1285
  248MOL   C10730241   0.083   2.791   0.895 -0.3392  0.4982 -0.1546
  248MOL   H10830242   0.033   2.696   0.912  0.0627  0.5539  1.4772
  248MOL   H10930243   0.009   2.868   0.919 -1.4321 -0.1779 -1.3075
  248MOL   C11030244   0.211   2.797   0.987 -0.6662  0.1863 -0.5104
  248MOL   F11130245   0.295   2.690   0.973  0.2392 -0.1448  0.4753
  248MOL   F11230246   0.271   2.917   0.977  0.2008  0.2013 -0.4854
  248MOL   C11330247   0.175   2.791   1.140 -0.4608 -0.1535  0.2795
  248MOL   H11430248   0.103   2.869   1.165 -0.4796  0.2130 -0.8803
  248MOL   H11530249   0.265   2.800   1.200 -0.2966 -0.4253  0.0753
  248MOL   C11630250   0.103   2.663   1.181  0.2847 -0.0358  0.4242
  248MOL   F11730251   8.327   2.667   1.132  0.1548  0.1083 -0.0881
  248MOL   F11830252   0.155   2.544   1.147 -0.0620 -0.0381  0.2208
  248MOL   C11930253   0.097   2.648   1.336 -0.0632  0.0747 -0.5230
  248MOL   H12030254   0.202   2.642   1.367  0.4064 -0.9550 -2.2299
  248MOL   H12130255   0.052   2.554   1.365  1.2830 -0.9822 -1.8165
  248MOL   H12230256   0.049   2.734   1.382  2.2956  0.2055  1.8162
  249MOL     C130257   0.652   0.438   5.300 -0.7471  0.0066  0.0674
  249MOL     F230258   0.654   0.342   5.213  0.5534  0.1110  0.2974
  249MOL     F330259   0.757   0.430   5.378 -0.1559 -0.3497  0.6204
  249MOL     C430260   0.509   0.437   5.353 -0.5187  0.1674 -0.0271
  249MOL     H530261   0.494   0.340   5.400  0.3989 -0.0778 -0.2318
  249MOL     H630262   0.438   0.453   5.272  0.7523 -0.1485 -1.2117
  249MOL     H730263   0.666   0.529   5.241 -2.4386  0.4642  0.3454
  249MOL     C830264   0.471   0.541   5.456 -0.3367 -0.2323  0.9926
  249MOL     F930265   0.490   0.655   5.398 -0.2171  0.2513  0.0671
  249MOL    F1030266   0.334   0.535   5.476 -0.5553  0.0335  0.3366
  249MOL    C1130267   0.555   0.541   5.591 -0.7902  0.1582  0.0557
  249MOL    H1230268   0.538   0.630   5.651 -0.2670 -2.3667  4.1110
  249MOL    H1330269   0.661   0.565   5.575 -0.1962 -1.4371  1.4325
  249MOL    C1430270   0.535   0.420   5.682  0.8814  0.0312  0.5706
  249MOL    F1530271   0.401   0.410   5.684 -0.5640 -0.1475  0.0419
  249MOL    F1630272   0.586   0.308   5.623 -0.1320  0.3875 -0.2346
  249MOL    C1730273   0.591   0.426   5.822  0.0930 -0.3865 -0.2095
  249MOL    H1830274   0.555   0.332   5.862 -0.8562 -0.6758 -1.7458
  249MOL    H1930275   0.540   0.500   5.884  1.1271  0.2401 -0.0951
  249MOL    C2030276   0.739   0.437   5.849  0.7851  0.3426  0.2350
  249MOL    F2130277   0.809   0.350   5.783  0.1111  0.2004 -0.1707
  249MOL    F2230278   0.785   0.559   5.821 -1.0144  0.0510 -0.3606
  249MOL    C2330279   0.776   0.401   5.993  0.1526 -0.4003  0.2717
  249MOL    H2430280   0.882   0.426   6.001 -0.0961  0.5104  0.8580
  249MOL    H2530281   0.780   0.293   6.005 -0.2227 -0.3134  1.2378
  249MOL    C2630282   0.700   0.476   6.108 -1.1614 -0.6169  0.6120
  249MOL    F2730283   0.716   0.606   6.101  0.1982 -0.4175 -0.4080
  249MOL    F2830284   0.574   0.443   6.105  0.1539 -0.6676  0.1747
  249MOL    C2930285   0.747   0.432   6.248 -0.3097  0.4838  0.3665
  249MOL    H3030286   0.729   0.325   6.255  1.1995  0.1492 -0.5825
  249MOL    H3130287   0.689   0.487   6.322 -0.9816  0.3187 -0.0270
  249MOL    C3230288   0.892   0.444   6.284 -0.7155 -0.5414 -0.5344
  249MOL    F3330289   0.898   0.416   6.415 -0.3063 -0.4808  0.6885
  249MOL    F3430290   0.968   0.349   6.216  0.3008  0.1457 -0.3984
  249MOL    C3530291   0.950   0.585   6.272 -0.4319  0.2525  0.4407
  249MOL    H3630292   0.882   0.664   6.304  0.5636  1.4829 -0.4418
  249MOL    H3730293   0.967   0.599   6.165  1.3462  0.2050  0.6979
  249MOL    C3830294   1.095   0.606   6.326 -0.6084  0.0529  0.0405
  249MOL    F3930295   1.085   0.610   6.462  0.5427  0.1891  0.4977
  249MOL    F4030296   1.171   0.508   6.282 -0.1739 -0.5149  0.2656
  249MOL    C4130297   1.158   0.736   6.286  0.3472 -0.0457  0.0506
  249MOL    H4230298   1.152   0.752   6.178  1.2826  1.9543  0.2748
  249MOL    H4330299   1.265   0.738   6.308 -0.1299 -0.3244  2.4936
  249MOL    C4430300   1.103   0.868   6.348 -0.4150  0.0198 -0.5245
  249MOL    F4530301   0.967   0.869   6.347  0.3140 -0.6172  0.3615
  249MOL    F4630302   1.150   0.876   6.478  0.3046  0.8114 -0.5281
  249MOL    C4730303   1.140   0.989   6.266  0.0239  0.3632 -0.8086
  249MOL    H4830304   1.106   0.975   6.163 -0.6048  0.1272 -0.5716
  249MOL    H4930305   1.249   0.998   6.258 -0.0854  2.7756  0.0580
  249MOL    C5030306   1.087   1.123   6.320 -0.3366 -1.1958 -0.5723
  249MOL    F5130307   0.955   1.130   6.304 -0.3487 -0.1297  0.0066
  249MOL    F5230308   1.109   1.137   6.450  0.7779 -0.3039  0.1031
  249MOL    C5330309   1.143   1.248   6.249  0.4806 -0.1752  0.0795
  249MOL    H5430310   1.248   1.265   6.273  0.6812  0.3925 -1.1765
  249MOL    H5530311   1.083   1.336   6.274 -2.5281 -2.7082  2.3194
  249MOL    C5630312   1.150   1.247   6.094  0.0377 -0.1901 -1.3726
  249MOL    F5730313   1.245   1.157   6.064 -0.1787 -0.1748 -0.4942
  249MOL    F5830314   1.034   1.213   6.040  0.2807  0.2486  0.0881
  249MOL    C5930315   1.195   1.388   6.047 -0.1330  0.6835  0.6518
  249MOL    H6030316   1.273   1.435   6.107 -0.3170  2.2579 -0.3148
  249MOL    H6130317   1.102   1.443   6.064 -1.2935 -0.5880 -1.4206
  249MOL    C6230318   1.223   1.393   5.895  0.2388 -0.1829 -0.4863
  249MOL    F6330319   1.129   1.338   5.820  0.4421  0.0387 -0.5134
  249MOL    F6430320   1.226   1.521   5.872 -0.4966  0.6120 -0.0684
  249MOL    C6530321   1.354   1.335   5.831  0.3847 -0.2312  0.1721
  249MOL    H6630322   1.353   1.351   5.723  3.1891  1.6367  0.3711
  249MOL    H6730323   1.337   1.227   5.831  0.5023 -0.2562 -0.9445
  249MOL    C6830324   1.492   1.379   5.875 -0.1513  0.4383 -0.0754
  249MOL    F6930325   1.496   1.508   5.878 -0.1723  0.2070  0.2742
  249MOL    F7030326   1.501   1.328   5.997  0.6257 -0.0186  0.4299
  249MOL    C7130327   1.613   1.335   5.789 -0.2279 -0.0329 -0.5450
  249MOL    H7230328   1.705   1.384   5.821 -0.4494  1.1787 -1.7098
  249MOL    H7330329   1.595   1.392   5.698  2.6474  2.0849  0.1510
  249MOL    C7430330   1.642   1.192   5.760 -0.5514  0.1762 -0.0287
  249MOL    F7530331   1.666   1.122   5.874  0.5562  0.4848 -0.8119
  249MOL    F7630332   1.527   1.139   5.702 -0.0531  0.0086 -0.1334
  249MOL    C7730333   1.760   1.180   5.663  0.5249 -0.7858  0.0327
  249MOL    H7830334   1.851   1.216   5.710  0.8661 -2.3105  0.5675
  249MOL    H7930335   1.741   1.246   5.578  1.3685 -0.5749  0.0063
  249MOL    C8030336   1.785   1.034   5.623  0.2743  0.1840  0.2880
  249MOL    F8130337   1.864   0.961   5.711 -0.5364  0.0740  0.6053
  249MOL    F8230338   1.670   0.965   5.604 -0.6536 -0.7865  0.6476
  249MOL    C8330339   1.872   1.013   5.494 -0.6010  0.0763  0.2068
  249MOL    H8430340   1.810   1.045   5.410 -0.8466 -0.8024  0.0563
  249MOL    H8530341   1.893   0.908   5.472  0.7627  0.3516  0.1542
  249MOL    C8630342   2.009   1.083   5.506 -0.5300  0.9648  0.4541
  249MOL    F8730343   1.994   1.213   5.532 -0.7073 -0.7952  0.1587
  249MOL    F8830344   2.075   1.031   5.612 -0.6111  0.2061 -0.8426
  249MOL    C8930345   2.086   1.064   5.377  0.1110 -0.4773  0.2627
  249MOL    H9030346   2.029   1.094   5.290  0.2395 -0.7319  0.0912
  249MOL    H9130347   2.093   0.957   5.364  1.0652 -0.3673 -0.1790
  249MOL    C9230348   2.232   1.121   5.371 -0.2052 -0.0854  0.0823
  249MOL    F9330349   2.221   1.251   5.387 -0.1366  0.0542  0.8040
  249MOL    F9430350   2.310   1.080   5.472 -0.4632  0.0407  1.2912
  249MOL    C9530351   2.289   1.082   5.226 -0.1416 -0.0953  0.2218
  249MOL    H9630352   2.218   1.112   5.150  1.8995 -1.5442 -2.3500
  249MOL    H9730353   2.292   0.974   5.211  0.6418  0.0566 -0.7097
  249MOL    C9830354   2.428   1.141   5.203  1.1293  0.1815  0.0433
  249MOL    F9930355   2.520   1.091   5.291  0.4964  0.0130  0.2724
  249MOL   F10030356   2.461   1.099   5.079  0.2574 -0.0849  0.4342
  249MOL   C10130357   2.416   1.295   5.197  0.2035  0.0427  0.1883
  249MOL   H10230358   2.409   1.337   5.298 -1.4835  1.2832 -0.4165
  249MOL   H10330359   2.320   1.322   5.153  0.7658 -0.2610 -1.2500
  249MOL   C10430360   2.522   1.365   5.114  0.2681 -0.2944 -0.0456
  249MOL   F10530361   2.642   1.315   5.140  0.1209 -0.4814  0.1297
  249MOL   F10630362   2.492   1.347   4.990 -0.2585 -0.3467  0.2028
  249MOL   C10730363   2.535   1.509   5.142  0.0232 -0.3155 -0.5147
  249MOL   H10830364   2.556   1.526   5.248  0.6281 -0.6566 -0.5798
  249MOL   H10930365   2.436   1.555   5.132  0.1734  0.5874  1.7131
  249MOL   C11030366   2.619   1.601   5.058 -0.2861 -0.5178  0.0652
  249MOL   F11130367   2.566   1.620   4.937 -0.1640  0.1650 -0.0820
  249MOL   F11230368   2.599   1.726   5.105  0.0450  0.0503 -0.3998
  249MOL   C11330369   2.768   1.549   5.054 -0.1209  0.9403  0.5129
  249MOL   H11430370   2.773   1.446   5.019 -1.5989  1.0771 -0.1221
  249MOL   H11530371   2.799   1.549   5.158 -1.0958  1.0003  0.8080
  249MOL   C11630372   2.857   1.630   4.964 -0.5891  0.8295 -0.0952
  249MOL   F11730373   2.794   1.642   4.853  0.3466  0.1189 -0.0764
  249MOL   F11830374   2.875   1.756   5.015 -0.2173 -0.0836 -0.5623
  249MOL   C11930375   2.990   1.566   4.942  0.7945 -0.0384  0.1350
  249MOL   H12030376   3.048   1.557   5.033 -0.3203 -1.7975  0.6786
  249MOL   H12130377   3.059   1.626   4.882  0.1180 -2.1029 -2.7953
  249MOL   H12230378   2.964   1.469   4.899 -2.2713  1.9694 -2.8021
  250MOL     C130379   4.028   6.360   5.657 -0.6647  0.1376 -0.0622
  250MOL     F230380   3.989   6.435   5.553 -0.0034 -0.5547  0.1688
  250MOL     F330381   4.059   6.444   5.757 -0.2000 -0.5718  0.4572
  250MOL     C430382   4.152   6.279   5.613 -0.6259 -0.2167  0.6229
  250MOL     H530383   4.193   6.251   5.710 -0.2753 -0.0256  0.5288
  250MOL     H630384   4.232   6.334   5.564 -0.6753  0.3444  1.1637
  250MOL     H730385   3.942   6.301   5.689  0.2539 -0.4559  1.3071
  250MOL     C830386   4.117   6.151   5.532  0.2184  0.4601  0.5321
  250MOL     F930387   4.229   6.094   5.513 -0.2411 -0.4672 -0.0775
  250MOL    F1030388   4.031   6.077   5.603 -0.1570 -0.1386  0.7638
  250MOL    C1130389   4.065   6.170   5.388 -0.4864 -0.8163 -0.2745
  250MOL    H1230390   4.127   6.249   5.345  0.6403  0.2553  3.0954
  250MOL    H1330391   3.965   6.213   5.398 -0.4913 -1.3634  2.6272
  250MOL    C1430392   4.044   6.049   5.293 -0.0978 -0.2747 -0.1348
  250MOL    F1530393   4.034   6.094   5.168  0.2720  0.0785 -0.1834
  250MOL    F1630394   4.148   5.964   5.298  0.3481  0.0608  0.1106
  250MOL    C1730395   3.924   5.966   5.324 -0.6439 -0.2038 -0.1701
  250MOL    H1830396   3.839   6.034   5.326 -0.8540 -0.4772  0.8473
  250MOL    H1930397   3.940   5.934   5.427 -2.9553 -1.9993 -0.3136
  250MOL    C2030398   3.891   5.845   5.233  0.1620  0.2369  0.5819
  250MOL    F2130399   3.871   5.885   5.109  0.2977 -0.2732  0.0800
  250MOL    F2230400   3.999   5.767   5.228 -0.1363  0.0961 -0.4086
  250MOL    C2330401   3.778   5.747   5.285  0.2629 -0.1740 -0.2962
  250MOL    H2430402   3.808   5.713   5.384  0.5439 -2.7747 -1.2275
  250MOL    H2530403   3.782   5.666   5.212 -0.3079  0.2592 -0.8110
  250MOL    C2630404   3.637   5.801   5.297  0.3808 -0.0309  0.4680
  250MOL    F2730405   3.637   5.900   5.381  0.2587  0.1662  0.1444
  250MOL    F2830406   3.608   5.854   5.171 -0.3932 -0.3685 -0.3725
  250MOL    C2930407   3.531   5.690   5.335 -0.2149 -0.0882 -0.0839
  250MOL    H3030408   3.526   5.613   5.258  0.1556  0.5634 -0.7732
  250MOL    H3130409   3.441   5.751   5.341 -0.1297  0.1017 -0.6885
  250MOL    C3230410   3.551   5.622   5.471 -0.0242 -0.3008  0.3194
  250MOL    F3330411   3.665   5.556   5.474  0.2326 -0.2214 -0.0695
  250MOL    F3430412   3.558   5.726   5.557 -0.1758 -0.8462  0.6089
  250MOL    C3530413   3.429   5.533   5.504  0.3063 -0.4344 -0.2944
  250MOL    H3630414   3.338   5.592   5.507  2.5347  3.1306  2.9494
  250MOL    H3730415   3.446   5.498   5.606  1.2642  1.6172  0.2942
  250MOL    C3830416   3.408   5.408   5.413  0.0515  0.1082  0.0405
  250MOL    F3930417   3.319   5.449   5.319 -0.6702 -0.1627 -0.0754
  250MOL    F4030418   3.521   5.372   5.360 -0.1374  0.1951 -0.3544
  250MOL    C4130419   3.349   5.293   5.494  0.6501 -0.4193 -0.1279
  250MOL    H4230420   3.301   5.221   5.428 -0.3560  1.5001 -1.5422
  250MOL    H4330421   3.252   5.320   5.536  0.6804 -1.6814  0.7755
  250MOL    C4430422   3.430   5.209   5.600 -0.6736 -1.2765 -0.3802
  250MOL    F4530423   3.531   5.147   5.535  0.1060 -0.1016  0.3433
  250MOL    F4630424   3.471   5.293   5.696 -0.3136  0.0091  0.1635
  250MOL    C4730425   3.347   5.099   5.666 -0.3008 -0.7189 -0.8222
  250MOL    H4830426   3.410   5.037   5.730 -0.5070 -0.5391 -0.4468
  250MOL    H4930427   3.323   5.035   5.581  2.4650  2.5286 -4.2573
  250MOL    C5030428   3.223   5.131   5.757  0.0396  0.4321 -0.0145
  250MOL    F5130429   3.262   5.209   5.860  0.7241  0.1357 -0.6696
  250MOL    F5230430   3.134   5.195   5.675  0.0860  0.2515  0.0767
  250MOL    C5330431   3.164   5.001   5.822 -0.3592  0.1650 -0.4678
  250MOL    H5430432   3.250   4.956   5.873 -0.6743  1.3266  1.1558
  250MOL    H5530433   3.119   4.926   5.757 -0.6894  1.4647 -1.7622
  250MOL    C5630434   3.056   5.031   5.931 -0.1800 -0.1224 -0.4236
  250MOL    F5730435   3.106   5.108   6.034  0.1637 -0.4853  0.1262
  250MOL    F5830436   2.959   5.107   5.876 -0.2516  0.3783 -0.8610
  250MOL    C5930437   2.995   4.900   5.986 -0.6384 -0.3080  0.1033
  250MOL    H6030438   3.074   4.829   6.010 -1.2067 -0.7587  0.6648
  250MOL    H6130439   2.938   4.861   5.901 -0.2900 -0.9826  0.1760
  250MOL    C6230440   2.894   4.928   6.097  0.2140  0.0936  0.1776
  250MOL    F6330441   2.960   4.990   6.192 -0.0232  0.0890  0.2993
  250MOL    F6430442   2.789   4.997   6.051 -0.2006 -0.7172 -0.9314
  250MOL    C6530443   2.834   4.803   6.159 -0.1462 -0.7260  0.2101
  250MOL    H6630444   2.919   4.752   6.205  0.7143  0.4562 -0.0712
  250MOL    H6730445   2.799   4.745   6.074  0.9255  0.3737 -1.0032
  250MOL    C6830446   2.721   4.806   6.258  0.5602  0.1157 -0.2074
  250MOL    F6930447   2.774   4.846   6.371 -0.1485  0.4289  0.5457
  250MOL    F7030448   2.623   4.888   6.217  0.4499  0.0470  0.1558
  250MOL    C7130449   2.659   4.659   6.279  0.6136 -0.0851  0.0839
  250MOL    H7230450   2.741   4.600   6.320  1.1911  1.9482  1.9579
  250MOL    H7330451   2.638   4.620   6.179 -0.7703  1.1148 -0.1028
  250MOL    C7430452   2.537   4.654   6.372  0.0676  0.2494 -0.5146
  250MOL    F7530453   2.449   4.750   6.333  0.0314  0.1853 -0.1303
  250MOL    F7630454   2.477   4.537   6.363 -0.4816  0.1325 -0.5032
  250MOL    C7730455   2.564   4.685   6.521 -0.1676 -0.4160 -0.1102
  250MOL    H7830456   2.589   4.791   6.524  1.0812 -0.6570 -1.5701
  250MOL    H7930457   2.649   4.623   6.551 -0.7662 -1.4914 -0.6143
  250MOL    C8030458   2.446   4.654   6.618 -0.7685 -0.3136  0.5896
  250MOL    F8130459   2.340   4.737   6.595  0.4536  0.5413 -1.0025
  250MOL    F8230460   2.411   4.532   6.607 -0.4924 -0.6709 -0.0155
  250MOL    C8330461   2.503   4.661   6.758  0.2445 -0.1463 -0.0563
  250MOL    H8430462   2.542   4.761   6.771 -1.5131  0.5804 -0.2481
  250MOL    H8530463   2.584   4.588   6.771 -0.1919 -1.0167 -2.0546
  250MOL    C8630464   2.394   4.643   6.869 -0.3084 -0.2714 -0.0409
  250MOL    F8730465   2.469   4.667   6.980  0.4465 -0.1468  0.1549
  250MOL    F8830466   2.295   4.734   6.851  0.1882 -0.5373 -0.1905
  250MOL    C8930467   2.336   4.504   6.881  0.0976 -0.5181 -0.4202
  250MOL    H9030468   2.414   4.438   6.917  0.8691  1.8627  2.4893
  250MOL    H9130469   2.294   4.457   6.793 -1.0721 -1.8484  0.8183
  250MOL    C9230470   2.227   4.497   6.990 -0.1388 -0.2079 -0.8806
  250MOL    F9330471   2.126   4.572   6.943  0.0229 -0.0936  0.2393
  250MOL    F9430472   2.174   4.374   6.980  0.0491  0.0494 -0.2067
  250MOL    C9530473   2.278   4.531   7.131 -0.9618  0.3916 -0.8280
  250MOL    H9630474   2.306   4.637   7.134  2.6967 -0.5168 -0.0422
  250MOL    H9730475   2.372   4.480   7.152 -1.8130 -1.2843 -1.0187
  250MOL    C9830476   2.168   4.507   7.243  0.3143 -0.0291  0.4213
  250MOL    F9930477   2.056   4.572   7.213  0.0495  0.5388  0.2435
  250MOL   F10030478   2.151   4.378   7.242 -0.3271  0.2720  0.4325
  250MOL   C10130479   2.204   4.546   7.383 -0.1938  0.2418  1.2769
  250MOL   H10230480   2.113   4.546   7.443 -0.9489 -1.2853  0.1768
  250MOL   H10330481   2.237   4.650   7.373  1.5363 -0.5190 -1.3347
  250MOL   C10430482   2.309   4.463   7.453 -0.6769 -0.6169 -0.4116
  250MOL   F10530483   2.421   4.460   7.387  0.1476  0.1129  0.1311
  250MOL   F10630484   2.335   4.542   7.565 -0.2775 -0.8876  0.4163
  250MOL   C10730485   2.266   4.318   7.489 -0.1124 -0.5932 -0.0076
  250MOL   H10830486   2.269   4.255   7.401 -1.2971  0.9391 -1.1797
  250MOL   H10930487   2.158   4.313   7.504 -0.0244 -1.1530  0.4754
  250MOL   C11030488   2.354   4.242   7.592 -0.4452 -0.4628  0.0819
  250MOL   F11130489   2.476   4.293   7.585  0.3178 -0.1365  0.3725
  250MOL   F11230490   2.311   4.282   7.707 -0.6593  0.1085 -0.0550
  250MOL   C11330491   2.371   4.088   7.572  0.7925  0.5034  0.3329
  250MOL   H11430492   2.456   4.054   7.631  0.9346  0.9757  0.3966
  250MOL   H11530493   2.383   4.055   7.469  0.0080  0.3697  0.2836
  250MOL   C11630494   2.252   4.001   7.626 -0.3162  0.3336  0.2017
  250MOL   F11730495   2.256   3.996   7.757 -0.3489 -0.6580 -0.1189
  250MOL   F11830496   2.144   4.069   7.592 -0.0744 -0.0209  0.0577
  250MOL   C11930497   2.231   3.863   7.567  0.1086  0.2913  0.4355
  250MOL   H12030498   2.313   3.794   7.586 -1.2756 -0.8842  2.4106
  250MOL   H12130499   2.203   3.871   7.462 -0.9577  0.9493  0.7582
  250MOL   H12230500   2.139   3.838   7.620 -0.8228 -0.6965 -1.5668
  251MOL     C130501   2.266   7.500   5.019  0.1784 -0.5369  0.0415
  251MOL     F230502   2.316   7.460   5.134 -0.5454 -0.3670 -0.4873
  251MOL     F330503   2.342   7.596   4.952 -0.3148 -0.5485  0.2343
  251MOL     C430504   2.118   7.555   5.045  0.1174 -0.8864  0.0914
  251MOL     H530505   2.085   7.597   4.950 -1.4741 -2.1450  0.0684
  251MOL     H630506   2.120   7.633   5.121  0.1485 -1.3532  0.5749
  251MOL     H730507   2.267   7.412   4.955 -2.7609 -0.0389 -0.7555
  251MOL     C830508   2.012   7.442   5.088 -0.2246 -0.2162 -0.3903
  251MOL     F930509   1.893   7.500   5.076 -0.1498  0.1157  0.2053
  251MOL    F1030510   2.012   7.342   5.012 -0.1748  0.0715  0.5053
  251MOL    C1130511   2.032   7.400   5.236  0.1517 -0.1330  0.0895
  251MOL    H1230512   2.020   7.492   5.295 -0.0238 -0.1791  0.1240
  251MOL    H1330513   2.135   7.371   5.259 -0.1360 -0.3314  1.1386
  251MOL    C1430514   1.938   7.286   5.285  0.1411 -0.2943 -0.4633
  251MOL    F1530515   1.950   7.279   5.418 -0.7715 -0.0120 -0.2087
  251MOL    F1630516   1.810   7.321   5.260  0.2647  0.4211 -0.6973
  251MOL    C1730517   1.962   7.141   5.229 -0.3612 -0.1117 -0.1648
  251MOL    H1830518   2.070   7.130   5.242 -0.5490  1.5781  3.6041
  251MOL    H1930519   1.933   7.140   5.124 -0.3947 -1.3513 -0.1505
  251MOL    C2030520   1.903   7.019   5.310  0.4228  0.1552  1.0213
  251MOL    F2130521   1.943   6.906   5.251  0.1759  0.4101  0.4817
  251MOL    F2230522   1.949   7.026   5.432 -0.5153  0.0033 -0.0089
  251MOL    C2330523   1.746   7.025   5.298  0.5558  0.6240 -0.1057
  251MOL    H2430524   1.717   7.046   5.195 -0.6506 -1.3280 -0.1821
  251MOL    H2530525   1.709   7.106   5.361 -1.9760  0.9552 -1.9712
  251MOL    C2630526   1.671   6.901   5.352 -0.1195 -0.1289 -0.2605
  251MOL    F2730527   1.710   6.789   5.294 -0.2852  0.1892  0.0580
  251MOL    F2830528   1.699   6.892   5.481 -0.2521  0.4073  0.4417
  251MOL    C2930529   1.521   6.906   5.320  0.3277 -0.2871 -0.1043
  251MOL    H3030530   1.514   6.932   5.214 -0.9361  1.1909  0.3451
  251MOL    H3130531   1.481   6.994   5.370 -2.6580 -0.9605 -1.1943
  251MOL    C3230532   1.426   6.783   5.351  0.4372  0.3766 -0.1230
  251MOL    F3330533   1.477   6.686   5.268  0.0585 -0.3637  0.1277
  251MOL    F3430534   1.426   6.750   5.480  0.4227 -0.0081 -0.2265
  251MOL    C3530535   1.275   6.816   5.318  0.1204  0.2807 -0.5094
  251MOL    H3630536   1.222   6.724   5.342 -1.0774  1.3176  0.9428
  251MOL    H3730537   1.276   6.828   5.210 -0.1498  1.1193 -0.4206
  251MOL    C3830538   1.204   6.930   5.379 -0.0737 -0.0218  0.0840
  251MOL    F3930539   1.197   6.907   5.511 -0.3018 -0.3271  0.2852
  251MOL    F4030540   1.265   7.044   5.364 -0.3111 -0.5309 -0.1512
  251MOL    C4130541   1.060   6.947   5.326 -0.7316 -0.7205  0.6468
  251MOL    H4230542   1.022   7.027   5.390  1.9555 -0.5275  2.1022
  251MOL    H4330543   1.001   6.859   5.355 -2.4747  0.2955  0.2487
  251MOL    C4430544   1.040   6.982   5.179  0.5532 -0.4702  0.2465
  251MOL    F4530545   1.103   7.093   5.139 -0.1079 -0.0120 -0.2030
  251MOL    F4630546   1.082   6.881   5.102 -0.9058 -0.2237  0.6829
  251MOL    C4730547   0.897   7.003   5.133 -0.2388  0.2778  0.0996
  251MOL    H4830548   0.846   6.911   5.162  1.4037 -1.2962 -1.8945
  251MOL    H4930549   0.900   6.989   5.025  0.6065 -3.7327  0.5710
  251MOL    C5030550   0.827   7.132   5.181 -0.2402  0.1184 -0.5421
  251MOL    F5130551   0.703   7.126   5.134  0.0510 -0.2415 -0.2188
  251MOL    F5230552   0.820   7.131   5.314  0.6479  0.8192  0.0501
  251MOL    C5330553   0.889   7.259   5.131  0.1410 -0.9496 -0.1872
  251MOL    H5430554   0.903   7.258   5.023 -0.6737 -0.1883 -0.3072
  251MOL    H5530555   0.987   7.272   5.178 -0.0225  1.1214 -0.3875
  251MOL    C5630556   0.810   7.380   5.180  0.7201 -0.1688 -0.6005
  251MOL    F5730557   0.688   7.391   5.126 -0.5435  0.9044 -0.3727
  251MOL    F5830558   0.792   7.389   5.315 -0.4311 -0.6381  0.3736
  251MOL    C5930559   0.888   7.511   5.150 -0.0190  0.2109 -0.6081
  251MOL    H6030560   0.912   7.507   5.044  0.1270  1.3870 -0.6198
  251MOL    H6130561   0.977   7.519   5.212  0.4268 -0.4196 -1.1559
  251MOL    C6230562   0.801   7.642   5.175 -0.6217  0.4234  0.2822
  251MOL    F6330563   0.702   7.644   5.096  0.2559  0.5222 -0.0421
  251MOL    F6430564   0.767   7.669   5.301  0.2125 -0.5126  0.2878
  251MOL    C6530565   0.879   7.773   5.144 -0.3466  0.0225  0.0904
  251MOL    H6630566   0.936   7.766   5.051 -2.0694  1.0151 -1.0561
  251MOL    H6730567   0.963   7.779   5.214  1.2072 -0.9222 -1.6602
  251MOL    C6830568   0.808   7.912   5.158 -0.5260  0.6647  0.6362
  251MOL    F6930569   0.760   7.923   5.286 -0.0401 -0.7614  0.6554
  251MOL    F7030570   0.907   8.003   5.146  0.0038  0.1499 -0.3151
  251MOL    C7130571   0.691   7.934   5.052  0.8330 -0.4778 -0.4236
  251MOL    H7230572   0.614   7.870   5.095  0.2900  0.7345  0.4409
  251MOL    H7330573   0.720   7.899   4.953 -0.7503 -2.6096 -0.1728
  251MOL    C7430574   0.637   8.079   5.071  0.0760 -0.9087 -0.1778
  251MOL    F7530575   0.551   8.083   5.168  0.0219  0.4519 -0.7246
  251MOL    F7630576   0.731   8.167   5.093 -0.0748  0.3075  0.0076
  251MOL    C7730577   0.558   8.117   4.942  0.0849  0.5431  0.1780
  251MOL    H7830578   0.619   8.124   4.852 -2.5099 -0.5610 -1.7066
  251MOL    H7930579   0.511   8.213   4.962  0.1828  0.4832  0.6994
  251MOL    C8030580   0.433   8.034   4.908  0.1619 -0.1696 -1.0970
  251MOL    F8130581   0.478   7.907   4.905  0.3576  0.5406  0.4241
  251MOL    F8230582   0.349   8.048   5.011 -0.7378  0.1800 -0.2741
  251MOL    C8330583   0.373   8.072   4.771 -0.6788 -0.9141  0.2115
  251MOL    H8430584   0.299   8.003   4.729 -1.9100  1.3514 -1.4099
  251MOL    H8530585   0.460   8.063   4.706  1.5750 -0.1290  3.0148
  251MOL    C8630586   0.324   8.215   4.763 -0.0343  0.0569  0.6244
  251MOL    F8730587   0.230   8.234   4.860  0.4792  0.0643 -0.1104
  251MOL    F8830588   0.420   8.303   4.772  0.1889 -0.1031  0.1123
  251MOL    C8930589   0.252   8.258   4.631  0.1952 -0.3174 -0.1296
  251MOL    H9030590   0.210   0.008   4.645  3.3456  0.9848  0.2691
  251MOL    H9130591   0.165   8.194   4.617 -1.3591  1.1085  2.5547
  251MOL    C9230592   0.329   8.255   4.497  0.8352  0.9983  0.6192
  251MOL    F9330593   0.339   8.127   4.473 -0.0544 -0.2918 -0.0089
  251MOL    F9430594   0.248   8.306   4.401 -0.8607  1.0357 -0.1331
  251MOL    C9530595   0.453   8.339   4.490 -0.2432 -0.0531 -0.3483
  251MOL    H9630596   0.529   8.307   4.561 -2.2252  1.2795  2.4327
  251MOL    H9730597   0.420   0.087   4.525  1.5699  0.1332  0.9126
  251MOL    C9830598   0.525   8.346   4.360  0.3048 -0.3853  0.4004
  251MOL    F9930599   0.545   8.218   4.322  0.0190 -0.0925 -0.0131
  251MOL   F10030600   0.438   0.044   4.267 -0.5023  0.0466  0.5142
  251MOL   C10130601   0.658   0.067   4.365 -0.6760 -0.4273 -0.3694
  251MOL   H10230602   0.715   0.016   4.442 -1.1533 -1.0049 -0.4033
  251MOL   H10330603   0.628   0.164   4.405 -2.8610 -0.4217 -1.9328
  251MOL   C10430604   0.742   0.088   4.231 -0.7245 -0.3623  0.5242
  251MOL   F10530605   0.786   8.326   4.184  0.1534 -0.1671 -0.1586
  251MOL   F10630606   0.656   0.136   4.137  0.3201 -0.1629 -0.3046
  251MOL   C10730607   0.865   0.187   4.248  0.5814  0.2420 -0.4313
  251MOL   H10830608   0.832   0.280   4.294 -0.5865 -0.2848 -0.1937
  251MOL   H10930609   0.901   0.199   4.146  1.4096 -0.4690 -0.2277
  251MOL   C11030610   0.978   0.137   4.336 -0.1470 -1.0547 -0.3029
  251MOL   F11130611   0.945   0.125   4.464  0.0554  0.2696  0.1940
  251MOL   F11230612   1.017   0.018   4.294  0.6270  0.5849 -0.1592
  251MOL   C11330613   1.094   0.244   4.348  0.6115 -0.1182  1.4184
  251MOL   H11430614   1.046   0.335   4.386 -4.7087 -0.5757 -3.4209
  251MOL   H11530615   1.135   0.278   4.252  0.1187  1.2297  1.6710
  251MOL   C11630616   1.220   0.206   4.436  0.6328 -0.5880  0.1679
  251MOL   F11730617   1.308   0.304   4.429 -0.3045  0.6030  0.2624
  251MOL   F11830618   1.188   0.194   4.563  0.4180  0.5599 -0.1182
  251MOL   C11930619   1.293   0.082   4.387 -0.6291 -0.4793  0.5654
  251MOL   H12030620   1.339   0.103   4.290  0.0776  0.7394  1.1581
  251MOL   H12130621   1.228   8.344   4.379 -1.3015 -0.0005  0.6914
  251MOL   H12230622   1.376   0.053   4.451  2.6761  1.0716 -2.7895
  252MOL     C130623   5.837   6.740   3.092  0.2620 -0.1761 -0.6389
  252MOL     F230624   5.946   6.818   3.092 -0.3549  0.2381 -0.0174
  252MOL     F330625   5.777   6.757   3.208  0.2385  0.3164 -0.2295
  252MOL     C430626   5.865   6.590   3.071 -0.3798 -0.2513 -0.4593
  252MOL     H530627   5.768   6.541   3.072 -0.4454 -0.1203  1.1297
  252MOL     H630628   5.918   6.551   3.158 -0.2856  0.3790 -0.2298
  252MOL     H730629   5.771   6.776   3.014 -1.1169  1.6006  1.2899
  252MOL     C830630   5.939   6.552   2.944  0.0291  0.8689  0.3663
  252MOL     F930631   5.873   6.595   2.836  0.2127  0.6991  0.2671
  252MOL    F1030632   6.058   6.612   2.943 -0.1021 -0.3585 -0.8168
  252MOL    C1130633   5.951   6.401   2.916 -0.1487  0.2434 -0.6594
  252MOL    H1230634   5.975   6.399   2.810 -1.1865 -1.9364 -0.8812
  252MOL    H1330635   5.852   6.363   2.940 -0.2350  0.9945  0.2452
  252MOL    C1430636   6.045   6.315   2.999  0.7366 -0.6389  0.0344
  252MOL    F1530637   6.167   6.358   2.984 -0.1166 -0.3282 -0.2892
  252MOL    F1630638   6.003   6.321   3.131 -0.2796  0.2029 -0.0701
  252MOL    C1730639   6.048   6.169   2.956 -0.5062 -0.2560 -0.1560
  252MOL    H1830640   6.084   6.162   2.854 -0.6519 -0.7425 -0.1710
  252MOL    H1930641   5.944   6.139   2.958 -0.6204  0.1571  0.2524
  252MOL    C2030642   6.125   6.077   3.047 -0.5902  0.2157  0.1146
  252MOL    F2130643   6.052   6.055   3.155  0.0015 -0.1742  0.2049
  252MOL    F2230644   6.131   5.958   2.978 -0.2727 -0.3099 -0.0931
  252MOL    C2330645   6.276   6.119   3.090  0.0731  0.5282  0.5839
  252MOL    H2430646   6.277   6.211   3.149  1.4394  0.2691  0.9757
  252MOL    H2530647   6.322   6.146   2.995 -2.3915  0.0461 -0.7969
  252MOL    C2630648   6.364   6.020   3.161 -0.4989  0.0605  0.1954
  252MOL    F2730649   6.334   5.896   3.113  0.1656 -0.2598 -0.4917
  252MOL    F2830650   6.485   6.051   3.121 -0.4910 -0.6474  0.8001
  252MOL    C2930651   6.347   6.014   3.317  0.1271  0.2672  1.2314
  252MOL    H3030652   6.244   5.987   3.341  0.5694  0.0791  2.9273
  252MOL    H3130653   6.369   6.114   3.354 -0.0138  1.2424 -1.1910
  252MOL    C3230654   6.443   5.923   3.394  0.2533  0.5221 -0.0530
  252MOL    F3330655   6.397   5.810   3.343  0.2797  0.0683 -0.3085
  252MOL    F3430656   6.574   5.940   3.359 -0.5872  0.5122  0.3934
  252MOL    C3530657   6.426   5.924   3.549  0.1894 -0.8327 -0.1853
  252MOL    H3630658   6.469   5.833   3.591  1.0187 -0.0190  0.7590
  252MOL    H3730659   6.319   5.925   3.564  0.6992  2.7132  4.1997
  252MOL    C3830660   6.485   6.041   3.630 -0.0181 -0.0800 -0.1415
  252MOL    F3930661   6.610   6.053   3.592 -0.2616 -0.0287 -0.1070
  252MOL    F4030662   6.418   6.154   3.605  0.0094  0.3807  0.0196
  252MOL    C4130663   6.495   6.022   3.778  0.0862 -0.2942 -0.5489
  252MOL    H4230664   6.524   5.918   3.796 -0.1114 -0.0249  1.4366
  252MOL    H4330665   6.396   6.020   3.824 -0.1872 -0.6444 -1.1530
  252MOL    C4430666   6.590   6.120   3.855 -0.2193  0.6820  0.2977
  252MOL    F4530667   6.716   6.074   3.820  0.4741  0.1032 -0.1981
  252MOL    F4630668   6.573   6.254   3.826 -0.1305 -0.6890  0.3919
  252MOL    C4730669   6.591   6.105   4.011  0.4137  0.0218 -0.5947
  252MOL    H4830670   6.667   6.163   4.064  1.4229 -1.9800  0.1967
  252MOL    H4930671   6.616   6.001   4.030 -2.3895 -0.9168 -1.7250
  252MOL    C5030672   6.453   6.110   4.086 -0.4882  0.8317 -0.0813
  252MOL    F5130673   6.390   6.221   4.056 -0.3196  0.3552 -0.1737
  252MOL    F5230674   6.378   6.008   4.040  0.4779  0.0098  0.7399
  252MOL    C5330675   6.461   6.099   4.241  0.0990 -0.5572 -0.2894
  252MOL    H5430676   6.529   6.176   4.276  0.1781 -1.1287  0.8464
  252MOL    H5530677   6.515   6.007   4.264  1.5524  0.1289 -0.9281
  252MOL    C5630678   6.325   6.112   4.317  0.7429 -0.8641 -0.7374
  252MOL    F5730679   6.258   6.224   4.286 -0.3444  0.0141 -0.1834
  252MOL    F5830680   6.246   6.005   4.292  0.4371 -0.6123 -0.4622
  252MOL    C5930681   6.351   6.124   4.473  0.0111  0.5851 -0.0761
  252MOL    H6030682   6.401   6.217   4.499 -0.8877  0.8741  0.6505
  252MOL    H6130683   6.426   6.048   4.496 -0.3248 -0.4073 -2.1322
  252MOL    C6230684   6.221   6.122   4.561 -0.3224 -0.2999  0.1099
  252MOL    F6330685   6.239   6.199   4.664 -0.4275  0.1149  0.5415
  252MOL    F6430686   6.114   6.154   4.496  0.2277  0.2312 -0.1687
  252MOL    C6530687   6.199   5.983   4.632 -0.0432 -0.1292  0.3489
  252MOL    H6630688   6.284   5.956   4.695 -0.0979 -0.5958  0.2224
  252MOL    H6730689   6.185   5.910   4.553 -4.3567  1.9880 -0.9841
  252MOL    C6830690   6.073   5.978   4.720  0.6338  0.1975 -0.2538
  252MOL    F6930691   6.085   6.081   4.805  0.1426  0.4945 -0.5646
  252MOL    F7030692   5.956   6.004   4.644 -0.0992  0.0249 -0.0633
  252MOL    C7130693   6.062   5.849   4.809  0.0737  0.0498  0.2643
  252MOL    H7230694   6.152   5.845   4.871 -0.6288 -1.7090  1.2210
  252MOL    H7330695   6.076   5.760   4.747 -1.9589 -0.9638  1.2312
  252MOL    C7430696   5.934   5.834   4.886  0.8151  0.4149  0.2829
  252MOL    F7530697   5.913   5.948   4.952 -0.2487 -0.5042 -0.0835
  252MOL    F7630698   5.836   5.823   4.801 -0.5922 -0.2763 -0.3738
  252MOL    C7730699   5.926   5.712   4.976  0.4532 -0.5733 -0.2051
  252MOL    H7830700   6.003   5.733   5.051 -0.1708  2.2744 -0.3057
  252MOL    H7930701   5.964   5.622   4.926 -0.6791 -1.8365  1.1461
  252MOL    C8030702   5.794   5.673   5.051 -0.0738  0.4477 -0.2694
  252MOL    F8130703   5.753   5.775   5.130  0.9184  0.3224  0.0960
  252MOL    F8230704   5.698   5.660   4.957 -0.2179 -0.2284 -0.0018
  252MOL    C8330705   5.801   5.549   5.146  0.7026  0.1437  1.1563
  252MOL    H8430706   5.701   5.536   5.189 -0.0742  1.9556 -0.0508
  252MOL    H8530707   5.852   5.575   5.239 -0.7122 -0.3817  2.1047
  252MOL    C8630708   5.863   5.421   5.087 -0.3144  0.1519 -0.1861
  252MOL    F8730709   5.821   5.398   4.964  0.3212  0.7419  0.0689
  252MOL    F8830710   5.995   5.436   5.084  0.3564  0.1415  0.1570
  252MOL    C8930711   5.832   5.294   5.169  0.5592  0.4993  0.3017
  252MOL    H9030712   5.892   5.213   5.127  0.5109  1.4723 -1.7028
  252MOL    H9130713   5.727   5.269   5.157  0.0499  1.5896  2.3653
  252MOL    C9230714   5.871   5.297   5.317 -0.5482 -0.4359  0.3067
  252MOL    F9330715   5.998   5.335   5.322 -0.7257  0.1416  0.3861
  252MOL    F9430716   5.806   5.388   5.392  0.3961  0.1966 -0.0378
  252MOL    C9530717   5.856   5.167   5.388  0.0395 -0.4892 -0.5016
  252MOL    H9630718   5.933   5.099   5.352  2.4278  1.8062  0.1446
  252MOL    H9730719   5.755   5.134   5.362 -0.4247  1.2189 -0.9368
  252MOL    C9830720   5.865   5.178   5.541 -0.0288  0.7983  0.5513
  252MOL    F9930721   5.955   5.274   5.567 -0.0577  0.0551 -0.0336
  252MOL   F10030722   5.749   5.214   5.592  0.3380 -0.7466 -0.0980
  252MOL   C10130723   5.920   5.052   5.618  0.2181  0.6770  0.3497
  252MOL   H10230724   5.934   5.083   5.721 -2.0017  2.2357  0.2386
  252MOL   H10330725   6.017   5.031   5.574  0.1279 -0.3635  0.6385
  252MOL   C10430726   5.830   4.922   5.610  0.1902 -0.1404  0.3976
  252MOL   F10530727   5.712   4.951   5.669 -0.0926  0.0821  0.1097
  252MOL   F10630728   5.805   4.894   5.481  0.2566 -0.2190  0.4098
  252MOL   C10730729   5.893   4.797   5.668 -0.3091 -0.0507  0.3978
  252MOL   H10830730   5.969   4.755   5.602 -0.6035 -3.4568  2.1329
  252MOL   H10930731   5.813   4.724   5.672 -1.8862  1.6779  1.0994
  252MOL   C11030732   5.954   4.803   5.804  0.7451  0.6593 -0.4328
  252MOL   F11130733   6.067   4.880   5.798  0.7807 -0.6948 -0.7098
  252MOL   F11230734   5.864   4.875   5.878 -0.1114 -0.0383  0.1877
  252MOL   C11330735   5.988   4.665   5.865  0.0926  0.0523  0.3260
  252MOL   H11430736   5.900   4.600   5.869  1.1617 -1.4938 -0.6251
  252MOL   H11530737   6.020   4.677   5.969  0.7895  0.3985  0.0762
  252MOL   C11630738   6.088   4.566   5.804 -0.3961 -0.7440 -0.1514
  252MOL   F11730739   6.115   4.473   5.899 -0.0595  0.3324 -0.1658
  252MOL   F11830740   6.024   4.513   5.699 -0.1078 -0.1942  0.6502
  252MOL   C11930741   6.226   4.615   5.751  0.1773 -0.1417  0.1667
  252MOL   H12030742   6.276   4.660   5.838  0.5106  1.0582 -0.6280
  252MOL   H12130743   6.228   4.684   5.667 -1.1984  2.1098  1.9219
  252MOL   H12230744   6.286   4.527   5.730  0.0888 -0.1700  0.0292
  253MOL     C130745   5.538   0.753   2.767 -0.2125 -0.0366 -0.3173
  253MOL     F230746   5.646   0.690   2.814  0.0818  0.3183 -0.0713
  253MOL     F330747   5.576   0.832   2.659  0.5175 -0.1282  0.3518
  253MOL     C430748   5.475   0.841   2.874 -0.0862 -0.4838  0.0476
  253MOL     H530749   5.433   0.783   2.957 -1.5744 -0.2692 -0.5333
  253MOL     H630750   5.399   0.902   2.825  1.2062  0.5744 -0.6676
  253MOL     H730751   5.463   0.679   2.743 -2.2758  1.5561  1.0208
  253MOL     C830752   5.571   0.943   2.943 -0.3320 -0.3003  0.2189
  253MOL     F930753   5.650   0.870   3.027  0.2971  0.0889  0.3834
  253MOL    F1030754   5.648   1.006   2.855  0.0169  0.0620  0.1477
  253MOL    C1130755   5.489   1.051   3.020 -0.1159  0.4265 -0.0917
  253MOL    H1230756   5.434   1.009   3.104  0.7210  1.4912  1.0080
  253MOL    H1330757   5.416   1.090   2.949  2.3135 -0.8072 -3.4267
  253MOL    C1430758   5.566   1.161   3.092 -0.6926 -0.1816  0.7469
  253MOL    F1530759   5.648   1.101   3.185 -0.4050 -0.0415  0.0636
  253MOL    F1630760   5.630   1.224   2.997 -0.4188  0.7615 -0.2882
  253MOL    C1730761   5.481   1.256   3.175 -0.4274  0.1556 -0.5204
  253MOL    H1830762   5.458   1.198   3.264  1.9182  1.3169  0.8985
  253MOL    H1930763   5.392   1.286   3.119  0.5024  0.7521 -1.7031
  253MOL    C2030764   5.550   1.378   3.237  1.0789 -0.0360 -0.7041
  253MOL    F2130765   5.643   1.330   3.320 -0.2006  0.2924  0.7126
  253MOL    F2230766   5.611   1.444   3.138  0.4892 -0.0152 -0.1340
  253MOL    C2330767   5.454   1.462   3.304  0.0660  0.5837  1.1073
  253MOL    H2430768   5.430   1.408   3.396 -1.8271  0.4709  0.5536
  253MOL    H2530769   5.354   1.459   3.263  0.9631 -0.2150 -1.0717
  253MOL    C2630770   5.501   1.604   3.351  0.0758 -0.0739 -0.1169
  253MOL    F2730771   5.402   1.650   3.426  0.3396  0.2895 -0.5490
  253MOL    F2830772   5.607   1.569   3.438 -0.1444  0.0706 -0.4864
  253MOL    C2930773   5.553   1.706   3.250  0.8740 -0.0747 -0.1212
  253MOL    H3030774   5.644   1.681   3.196  0.3483 -1.4034 -0.4223
  253MOL    H3130775   5.579   1.793   3.311  2.5162 -1.2884  0.9533
  253MOL    C3230776   5.451   1.752   3.138 -1.2245 -0.0977  0.1178
  253MOL    F3330777   5.433   1.656   3.043 -0.0990  0.2079 -0.0203
  253MOL    F3430778   5.328   1.770   3.194 -0.0294 -0.3982  0.6072
  253MOL    C3530779   5.485   1.892   3.076 -0.1004  0.0704  0.0687
  253MOL    H3630780   5.457   1.971   3.145 -1.9024 -1.1198  0.7298
  253MOL    H3730781   5.410   1.898   2.997 -1.4234  1.1091  1.3835
  253MOL    C3830782   5.621   1.925   3.022 -0.1114  0.5312 -0.0184
  253MOL    F3930783   5.706   1.889   3.115 -0.2125 -0.0491 -0.3370
  253MOL    F4030784   5.649   1.838   2.921 -0.0981  0.8837 -0.0563
  253MOL    C4130785   5.653   2.063   2.967  0.1674 -0.3544 -0.1196
  253MOL    H4230786   5.748   2.064   2.915 -1.5305 -0.4844 -3.3328
  253MOL    H4330787   5.665   2.136   3.047 -3.1588  2.5623 -2.1256
  253MOL    C4430788   5.540   2.123   2.873 -0.6045 -0.0514 -0.3343
  253MOL    F4530789   5.490   2.026   2.796 -0.2944 -0.4242 -0.0337
  253MOL    F4630790   5.444   2.167   2.947  0.4063  0.0076  0.1505
  253MOL    C4730791   5.587   2.236   2.779 -1.0164 -0.2022  0.4810
  253MOL    H4830792   5.505   2.288   2.730 -2.3688  0.2585  3.1314
  253MOL    H4930793   5.631   2.190   2.690  0.5109  2.4959 -0.1894
  253MOL    C5030794   5.680   2.347   2.837  0.1460  0.1012 -0.4135
  253MOL    F5130795   5.611   2.397   2.943  0.0238 -0.1290  0.0247
  253MOL    F5230796   5.794   2.302   2.884 -0.0540  0.1538  0.0101
  253MOL    C5330797   5.715   2.457   2.742  0.2819  0.3577 -0.1528
  253MOL    H5430798   5.761   2.535   2.803 -1.1047  0.1214  1.2390
  253MOL    H5530799   5.628   2.513   2.707  0.6225  1.0234  0.0669
  253MOL    C5630800   5.803   2.410   2.622  0.2409 -0.1856  0.1335
  253MOL    F5730801   5.888   2.306   2.657  0.2147 -0.1002 -0.1877
  253MOL    F5830802   5.713   2.359   2.549 -0.4899  0.0305  0.4195
  253MOL    C5930803   5.888   2.521   2.559  0.1709  0.9933 -0.5686
  253MOL    H6030804   5.959   2.560   2.632  0.6216 -0.9076  0.0277
  253MOL    H6130805   5.820   2.603   2.536 -1.0214 -0.4111 -2.1289
  253MOL    C6230806   5.960   2.484   2.424  0.1502  0.2553  0.2785
  253MOL    F6330807   6.040   2.375   2.436 -0.4306  0.2589 -0.3011
  253MOL    F6430808   5.868   2.473   2.327 -0.0304  0.2740 -0.1750
  253MOL    C6530809   6.054   2.600   2.384 -0.5259 -0.5049  0.2840
  253MOL    H6630810   6.124   2.617   2.465  0.4212 -0.8695 -0.4501
  253MOL    H6730811   5.982   2.682   2.378  0.0225  0.0278  0.8598
  253MOL    C6830812   6.147   2.575   2.264 -0.0084  0.4141 -0.4719
  253MOL    F6930813   6.062   2.560   2.167  0.5232  0.1955  0.1493
  253MOL    F7030814   6.218   2.685   2.253  0.2408 -0.5389 -0.0343
  253MOL    C7130815   6.237   2.442   2.266  0.1674  0.8666  0.5045
  253MOL    H7230816   6.280   2.433   2.167  0.2310  0.8605  0.5332
  253MOL    H7330817   6.177   2.351   2.275  1.0212  0.4143  1.8093
  253MOL    C7430818   6.354   2.421   2.372  1.1576 -0.2958 -0.2541
  253MOL    F7530819   6.293   2.459   2.484 -0.1079  0.5476  0.0740
  253MOL    F7630820   6.377   2.296   2.380  0.1572  0.2362  0.1153
  253MOL    C7730821   6.479   2.505   2.339  0.1871  0.4048 -0.1468
  253MOL    H7830822   6.453   2.611   2.331  1.8949  0.7599 -1.1550
  253MOL    H7930823   6.518   2.478   2.241 -0.0827 -1.3601  0.2242
  253MOL    C8030824   6.581   2.497   2.459 -0.4746 -0.5840 -0.2327
  253MOL    F8130825   6.533   2.556   2.564 -0.6249  0.0704 -0.2490
  253MOL    F8230826   6.613   2.370   2.484 -0.1055 -0.5273 -1.2384
  253MOL    C8330827   6.714   2.571   2.425 -0.3112 -0.3206 -0.1601
  253MOL    H8430828   6.771   2.516   2.350 -1.9245 -1.1666 -0.7991
  253MOL    H8530829   6.777   2.566   2.513 -0.1951 -3.1744 -0.3634
  253MOL    C8630830   6.692   2.720   2.376 -0.2949  0.8017  0.5514
  253MOL    F8730831   6.659   2.707   2.252 -0.4938  0.0092 -0.0600
  253MOL    F8830832   6.590   2.769   2.447 -0.4650  0.0710  0.2404
  253MOL    C8930833   6.818   2.819   2.389 -0.1094  0.1305 -0.2468
  253MOL    H9030834   6.853   2.839   2.490  3.9125  1.5310 -1.8658
  253MOL    H9130835   6.783   2.914   2.349 -0.9345  1.8665  4.3000
  253MOL    C9230836   6.945   2.763   2.322 -0.2509  0.4206 -0.2458
  253MOL    F9330837   6.974   2.638   2.372  0.1430 -0.0909 -0.1812
  253MOL    F9430838   6.937   2.764   2.194 -0.4781 -0.0199 -0.1540
  253MOL    C9530839   7.075   2.838   2.373 -0.3093 -0.3537 -0.5269
  253MOL    H9630840   7.168   2.796   2.332  1.0146  3.6311 -1.8055
  253MOL    H9730841   7.082   2.834   2.482 -0.9411  1.9885 -0.3940
  253MOL    C9830842   7.085   2.995   2.344 -0.3627 -0.0089 -0.3322
  253MOL    F9930843   7.084   3.006   2.215 -0.0840 -0.1516 -0.0356
  253MOL   F10030844   6.982   3.057   2.408  0.1223  0.3048  0.1385
  253MOL   C10130845   7.224   3.057   2.388  0.1307 -0.4990 -0.2450
  253MOL   H10230846   7.304   2.988   2.362  0.8870 -0.1396  1.0668
  253MOL   H10330847   7.213   3.074   2.495 -0.0898 -0.6503 -0.2428
  253MOL   C10430848   7.254   3.193   2.320 -0.0827  0.1856  0.0796
  253MOL   F10530849   7.353   3.246   2.398 -0.3351 -0.3577  0.5801
  253MOL   F10630850   7.299   3.181   2.196  0.0164  0.4300  0.0048
  253MOL   C10730851   7.140   3.304   2.312  0.2408 -0.4852  0.4310
  253MOL   H10830852   7.084   3.312   2.405 -0.8863 -1.8396 -0.1132
  253MOL   H10930853   7.064   3.266   2.244 -0.5059 -0.6636  1.3443
  253MOL   C11030854   7.179   3.446   2.260  0.2398  0.2657 -0.1694
  253MOL   F11130855   7.291   3.474   2.325 -0.0521  0.1836 -1.0561
  253MOL   F11230856   7.202   3.445   2.129 -0.4655 -0.1432 -0.1410
  253MOL   C11330857   7.064   3.544   2.299  0.2823 -0.2198  0.7263
  253MOL   H11430858   7.050   3.547   2.407 -1.8188  1.0631  0.4679
  253MOL   H11530859   6.969   3.503   2.266  1.5898 -1.4199 -1.6376
  253MOL   C11630860   7.077   3.686   2.231 -0.6148  0.6550 -0.7091
  253MOL   F11730861   7.063   3.677   2.101 -0.0745  0.6865  0.1545
  253MOL   F11830862   6.966   3.745   2.267 -0.1104  0.2050 -0.0167
  253MOL   C11930863   7.196   3.767   2.272 -0.4378 -0.3187 -0.5402
  253MOL   H12030864   7.181   3.815   2.369 -2.8337 -0.6599 -0.7092
  253MOL   H12130865   7.211   3.850   2.203 -0.4205  0.1134 -0.0255
  253MOL   H12230866   7.293   3.717   2.280  0.2017  1.2548  2.3901
  254MOL     C130867   6.308   6.287   0.167  0.3632  0.5621  0.6043
  254MOL     F230868   6.208   6.237   0.092  0.1782 -0.0421 -0.1539
  254MOL     F330869   6.284   6.245   0.290  0.0144 -0.2229 -0.0338
  254MOL     C430870   6.293   6.439   0.156 -0.3508 -0.0843  0.0834
  254MOL     H530871   6.370   6.488   0.215 -0.6198  0.7863 -0.2892
  254MOL     H630872   6.192   6.464   0.189 -1.3283 -1.3328 -1.8297
  254MOL     H730873   6.400   6.245   0.125  0.1541 -1.0543  1.7143
  254MOL     C830874   6.301   6.497   0.018 -0.5845 -0.0414  0.4266
  254MOL     F930875   6.295   6.629   0.024 -0.5154  0.0652  0.2323
  254MOL    F1030876   6.417   6.459   8.319 -0.7524 -0.4405 -0.1522
  254MOL    C1130877   6.184   6.452   8.277  0.0417 -0.3169 -0.0440
  254MOL    H1230878   6.090   6.479   8.327  0.9193  0.3335  1.2869
  254MOL    H1330879   6.185   6.345   8.255 -0.9554  0.0526 -2.0049
  254MOL    C1430880   6.185   6.525   8.140 -1.2453  0.4299  0.5114
  254MOL    F1530881   6.082   6.471   8.070  0.0234  0.0279  0.7324
  254MOL    F1630882   6.162   6.659   8.144 -0.0053  0.1241 -0.2527
  254MOL    C1730883   6.315   6.499   8.059  0.2325 -0.0002 -0.2197
  254MOL    H1830884   6.350   6.398   8.079  3.5197  1.0257 -0.4377
  254MOL    H1930885   6.384   6.558   8.119 -2.2009  0.7868  1.9006
  254MOL    C2030886   6.314   6.521   7.903  0.6025 -0.1161 -0.0057
  254MOL    F2130887   6.241   6.424   7.855  0.4523  0.4079  0.2451
  254MOL    F2230888   6.251   6.635   7.877 -0.3164 -0.3664 -0.3172
  254MOL    C2330889   6.451   6.508   7.837  0.6374 -0.4087 -0.4826
  254MOL    H2430890   6.495   6.411   7.862 -0.2943 -0.8892 -0.7107
  254MOL    H2530891   6.514   6.583   7.885  0.1878  0.1324 -0.7456
  254MOL    C2630892   6.446   6.513   7.678  0.4633  0.2910 -0.6227
  254MOL    F2730893   6.353   6.427   7.644 -0.0851  0.0119 -0.5982
  254MOL    F2830894   6.405   6.640   7.644  0.0893 -0.2854 -0.1575
  254MOL    C2930895   6.575   6.481   7.605  0.5813 -0.1309  0.4709
  254MOL    H3030896   6.612   6.380   7.619  2.8252  0.5562 -0.2274
  254MOL    H3130897   6.653   6.548   7.643  1.0582 -0.6185  0.3551
  254MOL    C3230898   6.584   6.523   7.456  0.0639  0.2216  0.2408
  254MOL    F3330899   6.570   6.656   7.441 -0.2281  0.5349 -0.0308
  254MOL    F3430900   6.707   6.490   7.425 -0.2716  0.2692  0.6422
  254MOL    C3530901   6.496   6.442   7.354  0.7122  0.5537  0.6066
  254MOL    H3630902   6.394   6.450   7.391  1.1134 -1.4013  2.1577
  254MOL    H3730903   6.516   6.336   7.363  0.2751  0.1915 -2.0753
  254MOL    C3830904   6.504   6.470   7.207 -0.0889 -0.2642 -0.5820
  254MOL    F3930905   6.429   6.393   7.142 -0.4973  0.3526  0.6270
  254MOL    F4030906   6.452   6.596   7.212  0.2334  0.3345  0.2235
  254MOL    C4130907   6.650   6.473   7.143 -0.2131  0.5767  0.0870
  254MOL    H4230908   6.698   6.375   7.143  0.4827  0.8888 -2.5635
  254MOL    H4330909   6.711   6.540   7.204  2.6097 -0.8787 -1.0716
  254MOL    C4430910   6.664   6.537   7.005  0.7723  0.5792  0.1663
  254MOL    F4530911   6.628   6.664   7.015  0.0202 -0.5907 -0.3014
  254MOL    F4630912   6.793   6.533   6.981 -0.2131  0.1944  0.5135
  254MOL    C4730913   6.586   6.468   6.893  0.1159  0.6785 -0.2255
  254MOL    H4830914   6.578   6.542   6.813  0.7469  1.4458  0.4191
  254MOL    H4930915   6.480   6.450   6.913  0.9913 -1.0456  3.1428
  254MOL    C5030916   6.648   6.331   6.842 -0.9476 -0.2071  0.1046
  254MOL    F5130917   6.771   6.350   6.792 -0.2819 -0.3098 -0.6642
  254MOL    F5230918   6.662   6.240   6.940  0.8330  0.3632 -0.0315
  254MOL    C5330919   6.554   6.268   6.732  0.0889 -0.1359  0.4211
  254MOL    H5430920   6.459   6.240   6.777 -0.8751 -0.9800 -2.0647
  254MOL    H5530921   6.592   6.169   6.707 -1.4230 -0.3351 -1.1190
  254MOL    C5630922   6.523   6.347   6.603 -1.0561 -0.3016  0.1579
  254MOL    F5730923   6.455   6.453   6.634 -0.2718 -0.4998 -0.0990
  254MOL    F5830924   6.643   6.378   6.559  0.1401 -0.0793 -0.0422
  254MOL    C5930925   6.457   6.264   6.486 -0.2081 -0.1007 -0.0400
  254MOL    H6030926   6.365   6.217   6.521 -0.7623 -0.6397 -2.1454
  254MOL    H6130927   6.523   6.190   6.441  0.6458 -0.1125  1.2211
  254MOL    C6230928   6.417   6.352   6.356  0.0404 -0.3755  0.3046
  254MOL    F6330929   6.356   6.270   6.272 -0.4090  0.4885 -0.0062
  254MOL    F6430930   6.328   6.450   6.398  0.0810  0.2189  0.2948
  254MOL    C6530931   6.538   6.424   6.292 -0.3225 -0.1026  0.3684
  254MOL    H6630932   6.583   6.497   6.359 -2.1448  1.2154  0.1789
  254MOL    H6730933   6.497   6.481   6.209 -0.5755  0.4784  0.8859
  254MOL    C6830934   6.653   6.342   6.232 -0.4489  0.2164 -0.6429
  254MOL    F6930935   6.725   6.433   6.167 -0.0135 -0.2713  0.0807
  254MOL    F7030936   6.736   6.277   6.320 -0.2099 -0.5553  0.2203
  254MOL    C7130937   6.607   6.238   6.126  0.3127 -0.5710  0.2142
  254MOL    H7230938   6.521   6.273   6.069 -0.0854 -1.0072  0.5454
  254MOL    H7330939   6.561   6.148   6.168  0.7592 -0.6500  0.5386
  254MOL    C7430940   6.714   6.193   6.029  1.0659  1.0555  0.0625
  254MOL    F7530941   6.658   6.094   5.964  0.4467 -0.1467 -0.1421
  254MOL    F7630942   6.730   6.289   5.944 -0.2630  0.1164  0.1729
  254MOL    C7730943   6.852   6.140   6.094  0.8569 -0.1723 -0.5017
  254MOL    H7830944   6.838   6.058   6.164 -1.1396  1.3098  0.8868
  254MOL    H7930945   6.888   6.216   6.163 -0.6100 -2.2631  2.6848
  254MOL    C8030946   6.961   6.101   5.992  0.0227 -0.4594  0.6607
  254MOL    F8130947   6.908   6.014   5.902 -0.6352  0.1365 -0.0319
  254MOL    F8230948   7.012   6.210   5.925  0.4582 -0.1797  0.5142
  254MOL    C8330949   7.080   6.034   6.067 -0.4886  0.7461 -0.0737
  254MOL    H8430950   7.053   5.948   6.128  0.6575  1.0758  0.9100
  254MOL    H8530951   7.136   6.110   6.122 -1.1778  2.0957 -1.1926
  254MOL    C8630952   7.186   5.991   5.969 -0.1545  0.1213  0.7012
  254MOL    F8730953   7.144   5.911   5.872  0.1977 -0.2616 -0.8184
  254MOL    F8830954   7.240   6.102   5.911 -0.2131 -0.0194  0.2843
  254MOL    C8930955   7.310   5.924   6.028 -0.2069  0.3721  0.1121
  254MOL    H9030956   7.347   6.000   6.096 -1.9712  0.0140  1.4976
  254MOL    H9130957   7.380   5.914   5.944  0.8248  1.9770  0.7715
  254MOL    C9230958   7.291   5.783   6.095  0.4921  0.2934 -0.8216
  254MOL    F9330959   7.243   5.802   6.221 -0.3013 -0.7454 -0.6800
  254MOL    F9430960   7.198   5.717   6.020 -0.5634 -0.2336  0.2098
  254MOL    C9530961   7.428   5.707   6.098  0.0313  0.1103  0.7695
  254MOL    H9630962   7.490   5.766   6.166  1.5132  0.0446 -0.4853
  254MOL    H9730963   7.470   5.703   5.997 -3.9649 -2.0402 -0.9620
  254MOL    C9830964   7.444   5.569   6.162  0.1418  0.0706  0.4766
  254MOL    F9930965   7.562   5.521   6.128  0.0504 -0.0250 -0.8167
  254MOL   F10030966   7.441   5.577   6.296  0.5375 -0.3349 -0.8370
  254MOL   C10130967   7.335   5.469   6.115  0.1367 -0.5499 -0.1853
  254MOL   H10230968   7.342   5.454   6.007  2.3353  1.5757 -0.3857
  254MOL   H10330969   7.240   5.514   6.147  1.1624  2.7244 -1.4835
  254MOL   C10430970   7.349   5.330   6.176  0.2293 -0.7573  0.0886
  254MOL   F10530971   7.463   5.283   6.136 -0.2612 -0.5015  0.6840
  254MOL   F10630972   7.342   5.335   6.308 -0.0407  0.1855  0.1157
  254MOL   C10730973   7.229   5.245   6.129 -0.2011  0.0619 -0.2113
  254MOL   H10830974   7.236   5.237   6.021  4.3223 -0.8691  0.0457
  254MOL   H10930975   7.135   5.300   6.141  0.2977  1.5839 -2.8884
  254MOL   C11030976   7.226   5.104   6.195 -0.5700  0.2045  0.4899
  254MOL   F11130977   7.351   5.058   6.190  0.0490 -0.3018 -0.4010
  254MOL   F11230978   7.200   5.112   6.327  0.2408 -0.2085 -0.3076
  254MOL   C11330979   7.127   5.005   6.122  0.0593 -0.2970 -0.2145
  254MOL   H11430980   7.027   5.036   6.155  0.8089 -1.7857  3.7572
  254MOL   H11530981   7.134   4.909   6.173 -1.8949 -0.4743 -0.2289
  254MOL   C11630982   7.117   4.992   5.966 -0.2301  0.7990  0.4926
  254MOL   F11730983   7.045   5.090   5.913  0.0676 -0.0497  0.3895
  254MOL   F11830984   7.248   5.003   5.922  0.4007 -0.1314 -0.0165
  254MOL   C11930985   7.050   4.865   5.915 -0.1446  0.2537  0.2423
  254MOL   H12030986   7.047   4.854   5.807 -1.7954  1.6841  0.1293
  254MOL   H12130987   6.952   4.854   5.961 -1.0930  4.1327 -0.7578
  254MOL   H12230988   7.112   4.782   5.951  1.7869  0.4703 -2.4166
  255MOL     C130989   6.743   6.925   3.443  0.3817 -0.2206  0.0878
  255MOL     F230990   6.732   7.007   3.343 -0.0433 -0.1432 -0.2338
  255MOL     F330991   6.726   6.994   3.562  0.4331 -0.0464  0.0014
  255MOL     C430992   6.866   6.841   3.449  0.1086 -0.2481 -0.3124
  255MOL     H530993   6.874   6.781   3.359 -4.7981  1.9221 -2.4179
  255MOL     H630994   6.847   6.766   3.525  0.1541 -2.6266 -2.5909
  255MOL     H730995   6.647   6.873   3.433 -0.3004  1.0440  0.0432
  255MOL     C830996   6.993   6.925   3.483 -0.2911  0.2247 -0.6762
  255MOL     F930997   7.004   7.019   3.387  0.6755  0.0417 -0.0713
  255MOL    F1030998   6.988   6.994   3.597  0.3527 -0.5880  0.3283
  255MOL    C1130999   7.122   6.831   3.480  0.3239  0.5098  0.5980
  255MOL    H1231000   7.110   6.765   3.394 -2.3278 -1.4429  2.4066
  255MOL    H1331001   7.128   6.767   3.567  0.8359 -3.1407 -2.0132
  255MOL    C1431002   7.255   6.904   3.476 -0.4157  0.2233  0.1214
  255MOL    F1531003   7.353   6.808   3.486 -0.1643 -0.2720  0.2598
  255MOL    F1631004   7.271   6.974   3.361 -0.1577 -0.2835 -0.1645
  255MOL    C1731005   7.275   7.013   3.593 -0.3639 -0.4627 -0.5669
  255MOL    H1831006   7.247   6.970   3.690 -1.9778  0.9565 -0.3771
  255MOL    H1931007   7.202   7.093   3.581 -1.3323 -1.3732 -0.8003
  255MOL    C2031008   7.421   7.065   3.614 -0.5806 -0.0067 -0.1761
  255MOL    F2131009   7.505   6.964   3.644 -0.0618 -0.3153 -0.2491
  255MOL    F2231010   7.466   7.119   3.496  0.1626  0.2474 -0.5101
  255MOL    C2331011   7.454   7.165   3.728 -0.5613 -0.2634  0.1133
  255MOL    H2431012   7.562   7.180   3.733 -0.3044 -1.6556 -0.9108
  255MOL    H2531013   7.418   7.122   3.822  0.4126  1.5835  1.3640
  255MOL    C2631014   7.387   7.302   3.706 -0.0975 -0.6586  0.2175
  255MOL    F2731015   7.421   7.369   3.598  0.1141  0.2449 -0.1970
  255MOL    F2831016   7.254   7.280   3.706  0.2736  0.1625  0.1409
  255MOL    C2931017   7.416   7.382   3.830  0.3523  0.4488 -0.0545
  255MOL    H3031018   7.522   7.403   3.842  0.2741  0.9164 -0.1889
  255MOL    H3131019   7.383   7.322   3.915 -0.1354  1.0959  0.2189
  255MOL    C3231020   7.330   7.506   3.853 -0.1007  0.3831  0.4981
  255MOL    F3331021   7.362   7.594   3.756  0.0316 -0.4021  0.4996
  255MOL    F3431022   7.202   7.468   3.837 -0.0248 -0.1983  0.4192
  255MOL    C3531023   7.356   7.571   3.995 -0.2378 -0.5328  0.0124
  255MOL    H3631024   7.284   7.651   4.011 -0.0372 -0.5892  1.2594
  255MOL    H3731025   7.456   7.614   3.998 -0.6271  0.5468 -1.6242
  255MOL    C3831026   7.340   7.484   4.123 -0.5998 -0.0798  0.4203
  255MOL    F3931027   7.218   7.418   4.120 -0.9258  0.4724 -0.3716
  255MOL    F4031028   7.439   7.394   4.130 -0.0543 -0.0003  0.1376
  255MOL    C4131029   7.347   7.582   4.245 -0.6657 -0.2741 -0.4774
  255MOL    H4231030   7.262   7.648   4.230 -2.7526 -3.2597 -2.3224
  255MOL    H4331031   7.443   7.633   4.240 -1.4165  1.1890 -0.0787
  255MOL    C4431032   7.319   7.516   4.391  0.3218 -0.3067  0.0335
  255MOL    F4531033   7.198   7.461   4.388 -0.1686  0.0358  0.2534
  255MOL    F4631034   7.407   7.415   4.399  0.2959 -0.3529 -0.1005
  255MOL    C4731035   7.336   7.607   4.511  0.9998  0.6703 -0.0378
  255MOL    H4831036   7.294   7.706   4.497 -0.6328 -0.4394 -3.7905
  255MOL    H4931037   7.443   7.626   4.517  1.2396 -0.3342 -0.9289
  255MOL    C5031038   7.276   7.557   4.647  0.2642  0.5723  0.0702
  255MOL    F5131039   7.316   7.643   4.738  0.2745 -0.4460 -0.1455
  255MOL    F5231040   7.146   7.554   4.650  0.4432  0.0528 -0.4289
  255MOL    C5331041   7.323   7.413   4.689  0.0905 -0.0891 -0.6207
  255MOL    H5431042   7.306   7.346   4.605  1.1412  0.6964 -1.4612
  255MOL    H5531043   7.255   7.370   4.763  0.6105  1.9297  1.0883
  255MOL    C5631044   7.472   7.399   4.723  0.0062 -0.3132 -0.2578
  255MOL    F5731045   7.549   7.453   4.626  0.2953  0.4008  0.2597
  255MOL    F5831046   7.493   7.469   4.830  0.0232 -0.4815  0.2158
  255MOL    C5931047   7.504   7.247   4.750 -0.2250  0.5517  0.2167
  255MOL    H6031048   7.476   7.198   4.657 -0.3051 -0.5098  0.7943
  255MOL    H6131049   7.441   7.191   4.819 -0.4342 -0.7327 -1.0094
  255MOL    C6231050   7.652   7.204   4.774 -0.0187 -0.2631 -0.2704
  255MOL    F6331051   7.738   7.256   4.685 -0.0825  0.3094 -0.0126
  255MOL    F6431052   7.670   7.272   4.892  0.3862 -0.3015  0.1507
  255MOL    C6531053   7.667   7.045   4.768  0.1111  0.3173 -0.4681
  255MOL    H6631054   7.666   7.017   4.663 -1.6067  0.3701 -0.4772
  255MOL    H6731055   7.580   7.001   4.816  0.8956 -1.3778 -0.5823
  255MOL    C6831056   7.792   7.004   4.841  0.4052 -0.0656  0.4453
  255MOL    F6931057   7.797   7.048   4.962 -0.2761 -0.3180 -0.4476
  255MOL    F7031058   7.796   6.874   4.846 -0.1538  0.0700  0.0860
  255MOL    C7131059   7.924   7.053   4.773  0.2538  0.0289 -0.8490
  255MOL    H7231060   7.928   7.162   4.777  2.1226 -0.0404 -0.1394
  255MOL    H7331061   7.924   7.022   4.669  0.0600 -1.3162 -0.4580
  255MOL    C7431062   8.053   6.997   4.821 -0.8075  0.6721  0.3678
  255MOL    F7531063   8.046   7.019   4.956 -0.2086 -0.7364 -0.2845
  255MOL    F7631064   8.061   6.865   4.802 -0.1752  0.5969 -0.6893
  255MOL    C7731065   8.177   7.072   4.766 -0.2636  0.2815 -0.5229
  255MOL    H7831066   8.263   7.040   4.824  0.5827 -0.2519 -2.0615
  255MOL    H7931067   8.168   7.180   4.779  1.3994  0.6803 -2.4331
  255MOL    C8031068   8.216   7.050   4.622  0.3997 -0.3582 -0.8042
  255MOL    F8131069   8.109   7.090   4.544 -0.1079 -0.0868 -0.6541
  255MOL    F8231070   8.313   7.136   4.598 -0.3327 -0.2411 -0.4008
  255MOL    C8331071   8.264   6.904   4.590  0.3232 -0.0614 -0.0696
  255MOL    H8431072   8.184   6.832   4.598  0.7586 -0.6514 -0.9469
  255MOL    H8531073   8.338   6.862   4.658 -0.4760  1.3909  1.7276
  255MOL    C8631074   8.328   6.888   4.446 -0.3123  0.6099  0.2221
  255MOL    F8731075   8.236   6.936   4.360 -0.1250  0.3257  0.8612
  255MOL    F8831076   0.091   6.962   4.447 -0.0261  0.2267  0.0794
  255MOL    C8931077   0.021   6.745   4.405 -0.3209  0.1051 -0.5780
  255MOL    H9031078   0.074   6.745   4.310  1.7461  0.8513  0.5566
  255MOL    H9131079   8.275   6.694   4.399 -0.5517  0.4061  0.3797
  255MOL    C9231080   0.111   6.649   4.491  0.2771  0.4803  0.3453
  255MOL    F9331081   0.229   6.697   4.514  0.5542 -0.4486  0.4014
  255MOL    F9431082   0.044   6.626   4.604 -0.3117 -0.3318  0.4780
  255MOL    C9531083   0.126   6.510   4.431 -0.5689 -0.2268  0.6960
  255MOL    H9631084   0.178   6.524   4.336 -1.0496 -1.9479  0.1531
  255MOL    H9731085   0.028   6.473   4.399 -0.5552  0.6682 -0.4015
  255MOL    C9831086   0.213   6.403   4.510  0.5956 -0.4461 -0.3031
  255MOL    F9931087   0.176   6.388   4.640  0.2832  0.2410 -0.0042
  255MOL   F10031088   0.188   6.285   4.449 -0.2406 -0.5911 -0.1992
  255MOL   C10131089   0.363   6.428   4.497 -0.0302  0.6140  0.1683
  255MOL   H10231090   0.386   6.535   4.498  1.8134  0.2452 -0.7693
  255MOL   H10331091   0.400   6.387   4.403 -0.1623 -2.5920  1.4402
  255MOL   C10431092   0.455   6.363   4.599 -0.4162 -0.0874  0.4225
  255MOL   F10531093   0.576   6.378   4.544  0.0950 -0.2748 -0.5125
  255MOL   F10631094   0.446   6.435   4.712  0.0036 -0.3871 -0.8509
  255MOL   C10731095   0.428   6.211   4.623  0.8845  0.5056 -0.0257
  255MOL   H10831096   0.442   6.147   4.535 -2.9493 -0.7240  0.1700
  255MOL   H10931097   0.326   6.206   4.661  0.8381 -1.0351 -0.3114
  255MOL   C11031098   0.517   6.140   4.723  0.3288  0.3940 -0.2331
  255MOL   F11131099   0.643   6.126   4.681  0.6652 -0.4983 -0.3588
  255MOL   F11231100   0.524   6.210   4.831  0.3137  0.1540 -0.2805
  255MOL   C11331101   0.480   6.005   4.761  0.7683  0.2433  0.2143
  255MOL   H11431102   0.405   6.013   4.840  1.6689 -1.7500  1.3209
  255MOL   H11531103   0.561   5.944   4.802  0.6280  1.5667  2.5382
  255MOL   C11631104   0.430   5.920   4.647  0.3405  0.9024  0.6077
  255MOL   F11731105   0.326   5.968   4.589  0.5031 -0.6968 -0.0285
  255MOL   F11831106   0.520   5.899   4.550 -0.3013 -0.2111 -0.2170
  255MOL   C11931107   0.394   5.777   4.699  0.6090 -0.2729 -0.5627
  255MOL   H12031108   0.485   5.731   4.738  0.5061  1.1799  1.4434
  255MOL   H12131109   0.372   5.709   4.616  0.7732  1.1878 -1.8279
  255MOL   H12231110   0.314   5.771   4.772  0.5289 -3.2900 -0.8527
  256MOL     C131111   1.518   0.273   5.408 -0.3945 -0.8754 -0.4349
  256MOL     F231112   1.571   0.183   5.492  0.6480  0.5169 -0.3266
  256MOL     F331113   1.450   0.361   5.479 -0.0722 -0.2364  0.1226
  256MOL     C431114   1.425   0.212   5.297 -0.0123 -0.0590  0.3036
  256MOL     H531115   1.376   0.301   5.257 -1.5157 -1.3826 -0.8617
  256MOL     H631116   1.349   0.148   5.341 -1.5618  1.8215  0.4097
  256MOL     H731117   1.600   0.328   5.360 -1.6125  1.3192 -0.0493
  256MOL     C831118   1.509   0.145   5.183 -0.0842  0.0417  0.1060
  256MOL     F931119   1.421   0.114   5.087 -0.5720  0.2359 -0.0389
  256MOL    F1031120   1.601   0.229   5.142  0.1637 -0.1881  0.3657
  256MOL    C1131121   1.589   0.023   5.238 -0.0215  0.6433  0.7915
  256MOL    H1231122   1.535   8.332   5.323 -1.3273  0.6307 -0.0291
  256MOL    H1331123   1.683   0.058   5.279  1.2082 -1.4322 -0.1619
  256MOL    C1431124   1.628   8.261   5.133  0.2642 -0.3161 -0.3184
  256MOL    F1531125   1.717   8.315   5.053 -0.1394  0.0421  0.1824
  256MOL    F1631126   1.695   8.160   5.190  0.0326  0.1724  0.3527
  256MOL    C1731127   1.527   8.185   5.048 -0.5831  0.7629  0.3006
  256MOL    H1831128   1.586   8.122   4.982  0.1114  0.2261  1.4133
  256MOL    H1931129   1.483   8.257   4.980 -1.6250 -0.5679 -0.4653
  256MOL    C2031130   1.418   8.110   5.127 -0.0770  0.0550  0.0314
  256MOL    F2131131   1.475   8.015   5.196  0.4502  0.7029 -0.5763
  256MOL    F2231132   1.353   8.190   5.215  0.1422 -0.2240 -0.3672
  256MOL    C2331133   1.309   8.035   5.042 -0.7997 -0.2397  0.3755
  256MOL    H2431134   1.243   7.976   5.106 -0.5953  1.1701  1.8984
  256MOL    H2531135   1.339   7.957   4.972 -0.6440 -2.0181  2.4013
  256MOL    C2631136   1.214   8.120   4.949  0.0694 -0.2467  0.2683
  256MOL    F2731137   1.284   8.182   4.847 -0.1650 -0.2009  0.0105
  256MOL    F2831138   1.130   8.034   4.892  0.3590 -0.6006 -0.0937
  256MOL    C2931139   1.134   8.226   5.025 -0.0553 -0.5840  0.7487
  256MOL    H3031140   1.201   8.305   5.058  1.7287 -1.2510 -1.1531
  256MOL    H3131141   1.087   8.169   5.105  0.4165 -1.2644  0.5461
  256MOL    C3231142   1.019   8.303   4.948  0.4244 -0.2241  0.0076
  256MOL    F3331143   1.061   0.005   4.829  0.0322  0.5371 -0.6789
  256MOL    F3431144   0.921   8.220   4.918 -0.1637 -0.7723 -0.5138
  256MOL    C3531145   0.948   0.061   5.045  0.3142 -0.1734 -0.2119
  256MOL    H3631146   0.900   0.004   5.125 -2.7805  2.3771 -0.1370
  256MOL    H3731147   0.857   0.103   5.001 -0.3627  0.3654  1.6397
  256MOL    C3831148   1.035   0.162   5.118 -0.1598  0.0120 -0.1386
  256MOL    F3931149   0.956   0.242   5.186  0.3088 -0.0037 -0.6997
  256MOL    F4031150   1.115   0.109   5.210 -0.4419  0.1415 -0.2579
  256MOL    C4131151   1.129   0.242   5.019  0.6888  0.2971 -0.5595
  256MOL    H4231152   1.186   0.169   4.960  0.2946 -0.2753 -0.2394
  256MOL    H4331153   1.204   0.287   5.084  0.9391 -0.6920 -0.1526
  256MOL    C4431154   1.066   0.354   4.938 -0.4916  0.7537  0.1731
  256MOL    F4531155   0.957   0.295   4.894  0.6395  0.1917 -0.0111
  256MOL    F4631156   1.035   0.460   5.016 -0.3718 -0.0360  0.2980
  256MOL    C4731157   1.143   0.393   4.814 -0.4258 -0.0429 -0.2312
  256MOL    H4831158   1.081   0.466   4.763 -0.6364  0.3761  0.6175
  256MOL    H4931159   1.157   0.313   4.741 -0.5405 -0.8688  0.6461
  256MOL    C5031160   1.278   0.462   4.829 -0.3613  0.2689 -0.1240
  256MOL    F5131161   1.266   0.553   4.931 -0.1349  0.0546 -0.4462
  256MOL    F5231162   1.359   0.365   4.867  0.2815 -0.7394 -0.3916
  256MOL    C5331163   1.340   0.530   4.698  0.4788 -0.2352 -0.5537
  256MOL    H5431164   1.278   0.611   4.660 -1.7988 -0.0394  3.3352
  256MOL    H5531165   1.342   0.460   4.615  2.0526 -0.4667 -0.3385
  256MOL    C5631166   1.474   0.605   4.708  0.4131  0.4226  0.8324
  256MOL    F5731167   1.569   0.522   4.728  0.1592 -0.1166  0.6280
  256MOL    F5831168   1.502   0.646   4.585 -0.0864  0.0712 -0.2330
  256MOL    C5931169   1.481   0.711   4.822 -0.7887 -0.0217  0.4849
  256MOL    H6031170   1.452   0.656   4.912 -1.4771  0.4522  0.5510
  256MOL    H6131171   1.412   0.789   4.791 -0.0428  0.8248  0.9211
  256MOL    C6231172   1.613   0.781   4.831  0.0057 -0.3809 -0.3342
  256MOL    F6331173   1.701   0.688   4.876 -0.1867 -0.4407 -0.3421
  256MOL    F6431174   1.649   0.844   4.724  0.1496  0.0688 -0.2035
  256MOL    C6531175   1.600   0.886   4.944  0.2212 -0.1852 -0.4753
  256MOL    H6631176   1.595   0.834   5.039  0.8181  0.1044 -0.2801
  256MOL    H6731177   1.504   0.936   4.928  0.1460 -0.2028 -0.0847
  256MOL    C6831178   1.721   0.992   4.957 -0.6745 -0.1007 -0.7519
  256MOL    F6931179   1.832   0.920   4.977 -0.1211 -0.2458 -0.7880
  256MOL    F7031180   1.735   1.059   4.837  0.0395  0.0344  0.8387
  256MOL    C7131181   1.712   1.077   5.082  0.3453  0.3262  0.4924
  256MOL    H7231182   1.748   1.011   5.161  1.8345 -1.9247 -1.9925
  256MOL    H7331183   1.609   1.100   5.110 -0.5562 -1.2656 -1.4353
  256MOL    C7431184   1.802   1.209   5.095 -0.0178  0.1912 -0.1002
  256MOL    F7531185   1.772   1.263   5.213  0.3922 -1.0164  0.0074
  256MOL    F7631186   1.932   1.190   5.087 -0.4764 -0.5537 -0.4735
  256MOL    C7731187   1.771   1.322   4.990  0.2972  0.3551  0.2949
  256MOL    H7831188   1.806   1.295   4.890 -0.5078  1.1270 -0.2025
  256MOL    H7931189   1.823   1.410   5.028 -2.0035  0.8825  2.3711
  256MOL    C8031190   1.621   1.350   4.981  0.4909 -0.8429  0.4452
  256MOL    F8131191   1.564   1.248   4.914  0.0579  0.6250  0.2309
  256MOL    F8231192   1.560   1.366   5.095 -0.5131 -0.0703 -0.0618
  256MOL    C8331193   1.604   1.478   4.898  0.5067  0.4405  0.6158
  256MOL    H8431194   1.680   1.477   4.820 -0.6950  0.1120 -0.5714
  256MOL    H8531195   1.640   1.557   4.964 -0.6705  0.9578  0.6557
  256MOL    C8631196   1.464   1.504   4.841 -0.1875 -0.1192  0.4507
  256MOL    F8731197   1.443   1.411   4.746  0.1279  0.1342 -0.1242
  256MOL    F8831198   1.383   1.488   4.945 -1.0604 -0.3291 -0.4599
  256MOL    C8931199   1.448   1.642   4.778  0.1179  0.6756  0.9902
  256MOL    H9031200   1.509   1.645   4.687  1.2242 -3.3574  1.4919
  256MOL    H9131201   1.484   1.708   4.857 -1.0438  1.9146  0.4896
  256MOL    C9231202   1.301   1.693   4.746 -0.6661 -0.6124  0.3394
  256MOL    F9331203   1.256   1.629   4.638  0.2818  0.1238 -0.5090
  256MOL    F9431204   1.223   1.667   4.853 -0.0018 -0.4329 -0.2648
  256MOL    C9531205   1.300   1.845   4.715  0.3709  0.0047 -0.0366
  256MOL    H9631206   1.393   1.865   4.662  1.9217 -2.1136  1.8185
  256MOL    H9731207   1.315   1.909   4.801 -1.0413 -0.3993  0.5257
  256MOL    C9831208   1.181   1.898   4.626  0.2795 -0.3251 -0.2246
  256MOL    F9931209   1.206   2.027   4.594 -0.0228  0.1913  0.5391
  256MOL   F10031210   1.177   1.835   4.507 -0.4192 -0.6478  0.1982
  256MOL   C10131211   1.045   1.898   4.700 -0.2830  0.3200 -0.7011
  256MOL   H10231212   1.046   1.967   4.785 -1.1726 -1.7947  1.0820
  256MOL   H10331213   1.049   1.796   4.738  1.9191  1.2043  1.6245
  256MOL   C10431214   0.919   1.929   4.615  0.0593 -0.5476 -0.3413
  256MOL   F10531215   0.936   2.047   4.562 -0.6009 -0.4678 -0.0343
  256MOL   F10631216   0.907   1.837   4.530  0.5684  0.4415 -0.3037
  256MOL   C10731217   0.783   1.942   4.685  0.4927  0.0893 -1.0541
  256MOL   H10831218   0.702   1.983   4.624  2.4220 -0.8526 -4.3287
  256MOL   H10931219   0.798   2.020   4.760  2.2249 -0.1824 -1.1035
  256MOL   C11031220   0.734   1.828   4.775 -0.4474  0.7218  0.1862
  256MOL   F11131221   0.714   1.725   4.693 -0.3138 -0.2791  0.5689
  256MOL   F11231222   0.824   1.790   4.856  0.2910 -0.4296  0.1632
  256MOL   C11331223   0.602   1.861   4.854 -0.0676 -0.2307 -0.3709
  256MOL   H11431224   0.536   1.894   4.774  2.0699  0.4300 -1.8915
  256MOL   H11531225   0.623   1.942   4.925  1.7574 -1.4314  0.4868
  256MOL   C11631226   0.543   1.744   4.933 -0.1335 -1.1524 -0.4079
  256MOL   F11731227   0.528   1.634   4.855 -0.1102 -0.0467  0.4357
  256MOL   F11831228   0.625   1.734   5.038 -0.0400 -0.2554  0.1726
  256MOL   C11931229   0.399   1.767   4.990  0.1501 -0.4319 -0.0928
  256MOL   H12031230   0.357   1.675   5.031 -0.3077 -0.5132 -0.7241
  256MOL   H12131231   0.346   1.794   4.898 -0.4093 -0.8677  0.0971
  256MOL   H12231232   0.395   1.845   5.066  1.7781  0.5245 -0.9555
  257MOL     C131233   7.982   1.474   1.838 -0.1312 -0.1715  0.1991
  257MOL     F231234   7.861   1.473   1.879  0.0245 -0.4918 -0.2034
  257MOL     F331235   8.058   1.406   1.923 -0.3220 -0.3696  0.1888
  257MOL     C431236   8.023   1.617   1.814  0.6563  0.2049 -0.0876
  257MOL     H531237   8.124   1.615   1.773  0.4131 -0.5981 -0.6665
  257MOL     H631238   8.018   1.677   1.905 -2.1040  0.9795 -0.7007
  257MOL     H731239   7.978   1.414   1.747 -0.4184 -0.4373  0.3863
  257MOL     C831240   7.928   1.675   1.709 -0.4504 -0.0131 -0.2169
  257MOL     F931241   7.944   1.603   1.594 -0.5101 -0.4505  0.4897
  257MOL    F1031242   7.798   1.670   1.745 -0.0854  0.6016 -0.1291
  257MOL    C1131243   7.960   1.823   1.694 -0.3382  0.3379 -0.6141
  257MOL    H1231244   8.068   1.832   1.678 -0.3762  0.4339 -0.8131
  257MOL    H1331245   7.931   1.883   1.780  0.2766 -1.2884  0.7440
  257MOL    C1431246   7.898   1.892   1.575 -0.3452 -0.3155  0.1031
  257MOL    F1531247   7.955   2.010   1.569 -0.2813 -0.0181  0.4853
  257MOL    F1631248   7.936   1.828   1.469  0.2406 -0.2157 -0.0002
  257MOL    C1731249   7.739   1.902   1.593  0.3992  0.3884 -0.5026
  257MOL    H1831250   7.712   1.931   1.695  1.2429 -0.7623  0.0584
  257MOL    H1931251   7.698   1.802   1.577  1.0497  0.1726 -0.8184
  257MOL    C2031252   7.658   1.998   1.493 -0.3210  0.8418 -0.1381
  257MOL    F2131253   7.534   1.963   1.523  0.0283  0.0365 -0.3619
  257MOL    F2231254   7.681   2.129   1.523  0.6277  0.5169  0.7255
  257MOL    C2331255   7.694   1.972   1.345  0.2220  0.4354  0.2440
  257MOL    H2431256   7.705   1.864   1.338  0.3478  0.2865  2.2301
  257MOL    H2531257   7.791   2.015   1.320 -0.3860  0.3625 -2.2943
  257MOL    C2631258   7.585   2.028   1.245  0.3401 -0.0357  0.0848
  257MOL    F2731259   7.459   1.968   1.266  0.1251  0.8169  0.4082
  257MOL    F2831260   7.574   2.156   1.281 -0.2929  0.3940 -0.0028
  257MOL    C2931261   7.616   2.003   1.093 -0.1265  0.2007 -0.1093
  257MOL    H3031262   7.616   1.896   1.072  0.8275  0.1463  0.1303
  257MOL    H3131263   7.721   2.031   1.080 -0.8300  3.0501  0.0199
  257MOL    C3231264   7.533   2.077   0.989 -0.1440  0.6059  0.1362
  257MOL    F3331265   7.522   2.204   1.021 -0.0198 -0.2685 -0.2654
  257MOL    F3431266   7.598   2.075   0.874  0.4519  0.1369 -0.5255
  257MOL    C3531267   7.395   2.018   0.978 -0.1465 -0.0063  0.0390
  257MOL    H3631268   7.341   2.025   1.073 -2.5075 -0.4363 -1.2547
  257MOL    H3731269   7.410   1.915   0.946  2.6625  0.7306 -1.2051
  257MOL    C3831270   7.304   2.095   0.886  0.2433 -0.4233  0.2333
  257MOL    F3931271   7.271   2.206   0.950  0.3685 -0.8439  0.1746
  257MOL    F4031272   7.371   2.141   0.778 -0.1483 -0.3188  0.4238
  257MOL    C4131273   7.179   2.024   0.839  0.8353 -0.3854  1.1378
  257MOL    H4231274   7.139   1.976   0.928  0.6367 -0.8706  0.7872
  257MOL    H4331275   7.215   1.945   0.773  0.4618 -0.6638  1.2648
  257MOL    C4431276   7.072   2.108   0.766 -1.3483 -0.3531  0.5802
  257MOL    F4531277   7.026   2.202   0.850  0.0259 -0.1277 -0.3689
  257MOL    F4631278   7.132   2.182   0.670  0.1910 -0.2725  0.1248
  257MOL    C4731279   6.959   2.030   0.697 -0.0943  0.0503 -0.1426
  257MOL    H4831280   6.915   1.980   0.784  0.4020 -2.0900 -1.0776
  257MOL    H4931281   6.998   1.953   0.630  1.0595 -1.1409  1.8310
  257MOL    C5031282   6.849   2.099   0.614  0.6148  0.3783  0.9606
  257MOL    F5131283   6.797   2.203   0.670 -0.4351 -0.1189 -0.2728
  257MOL    F5231284   6.900   2.123   0.488  0.1479  0.5846  0.0766
  257MOL    C5331285   6.727   2.016   0.589  0.1440  0.0504 -0.4277
  257MOL    H5431286   6.654   2.074   0.531  2.2660  1.9895 -1.2293
  257MOL    H5531287   6.686   2.008   0.690  0.7886 -4.0039 -0.4223
  257MOL    C5631288   6.747   1.868   0.543 -0.3811  0.0407 -0.0113
  257MOL    F5731289   6.841   1.868   0.452  0.0107 -0.0842  0.1307
  257MOL    F5831290   6.787   1.793   0.640 -0.3192 -0.0324  0.0729
  257MOL    C5931291   6.614   1.805   0.479 -0.0465 -0.0597  0.4316
  257MOL    H6031292   6.640   1.701   0.459  0.6255  0.1159  0.3668
  257MOL    H6131293   6.592   1.851   0.382 -1.6479 -2.9748 -0.6541
  257MOL    C6231294   6.490   1.798   0.562 -0.2647 -0.7291  0.5241
  257MOL    F6331295   6.526   1.752   0.683  0.3154  0.2492  0.7035
  257MOL    F6431296   6.451   1.930   0.583 -0.4344  0.1327  0.1113
  257MOL    C6531297   6.366   1.724   0.495 -0.1160 -0.2806  0.8095
  257MOL    H6631298   6.402   1.624   0.469 -3.4045 -1.4791  0.7090
  257MOL    H6731299   6.343   1.776   0.402 -1.6632  0.6017  1.6697
  257MOL    C6831300   6.235   1.705   0.576 -0.3914 -0.6657  0.0898
  257MOL    F6931301   6.149   1.639   0.490 -0.0958 -0.0305 -0.3667
  257MOL    F7031302   6.262   1.623   0.677 -0.2403 -0.7204 -0.5056
  257MOL    C7131303   6.174   1.834   0.635  0.1020  0.1652  0.2000
  257MOL    H7231304   6.170   1.914   0.560 -1.8538 -0.5027 -0.4362
  257MOL    H7331305   6.246   1.874   0.706  0.4710  1.4877 -0.8948
  257MOL    C7431306   6.037   1.820   0.708  0.6333 -0.0251 -0.2141
  257MOL    F7531307   5.947   1.756   0.622 -0.1815 -0.2505  0.5466
  257MOL    F7631308   6.037   1.750   0.823 -0.2276  0.4433  0.0528
  257MOL    C7731309   5.974   1.955   0.742  0.6043  0.4642 -0.1547
  257MOL    H7831310   5.876   1.940   0.789  0.8460 -0.3999  0.0823
  257MOL    H7931311   5.949   2.009   0.650 -1.9726 -0.9045 -0.3235
  257MOL    C8031312   6.052   2.063   0.818 -0.5578 -0.4121  0.5147
  257MOL    F8131313   6.148   2.120   0.737 -0.0304  0.3691  0.2231
  257MOL    F8231314   5.981   2.167   0.851  0.7923 -0.3771  0.5628
  257MOL    C8331315   6.118   2.017   0.952  0.0575 -0.1127  0.5502
  257MOL    H8431316   6.165   1.920   0.933  0.4374  0.0481  0.6668
  257MOL    H8531317   6.033   1.997   1.017  0.6365  0.8603  1.6314
  257MOL    C8631318   6.217   2.118   1.017 -0.2094 -0.4143  0.4433
  257MOL    F8731319   6.315   2.159   0.929  0.7010  0.4099  0.1747
  257MOL    F8831320   6.138   2.225   1.041  0.2902  0.6916  0.5380
  257MOL    C8931321   6.287   2.068   1.144  0.6578 -0.2565 -0.2645
  257MOL    H9031322   6.354   2.146   1.182  0.1452 -0.6785  1.5597
  257MOL    H9131323   6.344   1.977   1.124  1.5479  0.2192  0.0562
  257MOL    C9231324   6.192   2.028   1.259  0.1411  0.2214  0.3664
  257MOL    F9331325   6.110   2.124   1.285 -0.4072 -0.0590  0.7270
  257MOL    F9431326   6.135   1.913   1.226  0.1335  0.0488  0.4742
  257MOL    C9531327   6.282   1.997   1.389 -0.2641  0.3457  0.2500
  257MOL    H9631328   6.322   2.092   1.425  0.0553 -0.3694  1.8022
  257MOL    H9731329   6.367   1.940   1.353  0.5412  1.3251  0.5684
  257MOL    C9831330   6.220   1.917   1.507  0.7340  0.0010 -0.0787
  257MOL    F9931331   6.188   1.798   1.453 -0.1810  0.4385  0.8837
  257MOL   F10031332   6.318   1.891   1.594  0.4153  0.4848 -0.2610
  257MOL   C10131333   6.091   1.974   1.576 -0.8842  0.2612  0.4052
  257MOL   H10231334   6.066   1.916   1.664 -0.2208 -0.2471  0.2642
  257MOL   H10331335   6.009   1.965   1.505  0.1552 -0.4410 -0.7287
  257MOL   C10431336   6.111   2.120   1.626 -0.4891 -0.3849  0.5818
  257MOL   F10531337   6.148   2.201   1.525 -0.0770 -0.3428 -0.4876
  257MOL   F10631338   5.992   2.163   1.664  0.3007  0.1429 -0.1807
  257MOL   C10731339   6.216   2.139   1.740  0.1931 -0.0825  0.1779
  257MOL   H10831340   6.318   2.129   1.703  0.3052 -1.9101  0.9102
  257MOL   H10931341   6.203   2.056   1.809  0.6682  0.3167  0.7487
  257MOL   C11031342   6.213   2.272   1.820  0.6553  0.1079  0.0809
  257MOL   F11131343   6.319   2.283   1.896  0.0426 -0.2281 -0.0688
  257MOL   F11231344   6.213   2.370   1.725  0.1731  0.1059  0.7809
  257MOL   C11331345   6.091   2.284   1.909 -0.1931 -0.1223 -0.7860
  257MOL   H11431346   6.000   2.295   1.851 -1.6995  1.2142  1.7589
  257MOL   H11531347   6.103   2.377   1.963 -0.5118 -0.6069  0.1189
  257MOL   C11631348   6.072   2.172   2.022 -0.5849  0.3909 -0.2537
  257MOL   F11731349   6.042   2.049   1.982 -0.0699  0.1649 -0.0625
  257MOL   F11831350   6.184   2.171   2.099 -0.2566 -0.4824  0.4626
  257MOL   C11931351   5.955   2.209   2.115  0.1402  0.1843  0.1446
  257MOL   H12031352   5.956   2.305   2.167  0.2336  1.5835 -2.3503
  257MOL   H12131353   5.952   2.143   2.202 -3.8210 -1.6928 -1.2466
  257MOL   H12231354   5.861   2.201   2.060  1.2016  0.0859 -1.6941
  258MOL     C131355   6.548   2.225   4.429 -0.2896  0.4147  0.3823
  258MOL     F231356   6.493   2.136   4.515 -1.0315 -0.7175 -0.1832
  258MOL     F331357   6.452   2.234   4.339  0.1795  0.1351  0.1670
  258MOL     C431358   6.677   2.157   4.375 -0.0009 -0.5822 -0.2011
  258MOL     H531359   6.651   2.053   4.351 -1.2010 -0.7323  1.7108
  258MOL     H631360   6.747   2.157   4.459 -0.9802  1.6049  0.6260
  258MOL     H731361   6.552   2.317   4.487 -2.7549  0.2160  0.9543
  258MOL     C831362   6.734   2.218   4.249  0.4773 -0.0081  0.3509
  258MOL     F931363   6.635   2.210   4.159  0.0939 -0.1325  0.2093
  258MOL    F1031364   6.751   2.344   4.270  0.0345  0.8275 -0.1301
  258MOL    C1131365   6.860   2.139   4.195  0.2854 -0.5453  0.5863
  258MOL    H1231366   6.843   2.031   4.186  1.7649 -1.0919  3.7998
  258MOL    H1331367   6.935   2.151   4.273  0.4616 -0.2416  0.3677
  258MOL    C1431368   6.913   2.199   4.065  0.3037  0.6026  0.2239
  258MOL    F1531369   6.822   2.216   3.980  0.1869 -0.2047 -0.0878
  258MOL    F1631370   6.964   2.318   4.102  0.1366 -0.1077 -0.7022
  258MOL    C1731371   7.019   2.118   3.992  0.4961  0.2391 -0.1413
  258MOL    H1831372   7.032   2.172   3.899  2.2752  0.8087  0.4167
  258MOL    H1931373   6.971   2.026   3.960 -0.1162  0.6342 -0.3600
  258MOL    C2031374   7.152   2.088   4.066  0.6827 -0.6190  0.2155
  258MOL    F2131375   7.219   2.191   4.099 -0.0839 -0.9782  0.2206
  258MOL    F2231376   7.114   2.028   4.176  0.1074  0.4560  0.0121
  258MOL    C2331377   7.248   1.994   3.996  0.0097  0.1242  0.3383
  258MOL    H2431378   7.202   1.896   4.007 -0.2393  0.3456  1.3462
  258MOL    H2531379   7.346   2.004   4.043  0.1181  2.3245 -0.2889
  258MOL    C2631380   7.267   2.020   3.843 -0.8329  0.6278  0.3982
  258MOL    F2731381   7.155   2.008   3.771 -0.4665 -0.0184 -0.1361
  258MOL    F2831382   7.313   2.143   3.828 -0.5956  0.0326  0.2128
  258MOL    C2931383   7.372   1.925   3.794 -0.4854  0.0868 -0.2245
  258MOL    H3031384   7.329   1.824   3.796 -0.2405 -0.0337 -0.7912
  258MOL    H3131385   7.460   1.912   3.856  0.7030 -1.9012 -2.2295
  258MOL    C3231386   7.433   1.944   3.655  0.0044 -0.0113 -0.4663
  258MOL    F3331387   7.513   2.059   3.659 -0.0121  0.0047 -0.3950
  258MOL    F3431388   7.511   1.844   3.621 -0.0137 -0.2100  0.1326
  258MOL    C3531389   7.326   1.957   3.544 -0.4501 -0.0835  0.2391
  258MOL    H3631390   7.261   2.042   3.565  2.3757  1.3852  3.5635
  258MOL    H3731391   7.257   1.872   3.541  0.9946 -1.2219 -1.9528
  258MOL    C3831392   7.382   1.958   3.401  0.9086  0.0831 -0.0865
  258MOL    F3931393   7.462   2.065   3.385 -0.2498  0.2651  0.2910
  258MOL    F4031394   7.463   1.854   3.378 -0.3862  0.4471 -0.1903
  258MOL    C4131395   7.270   1.962   3.294 -0.2907  0.0067  0.2560
  258MOL    H4231396   7.232   1.862   3.276 -0.3280  0.4661 -2.4316
  258MOL    H4331397   7.322   1.979   3.199 -0.9547  2.0380  0.2276
  258MOL    C4431398   7.152   2.065   3.310 -0.2113 -0.8627  0.6057
  258MOL    F4531399   7.078   2.058   3.195 -0.0157  0.6665  0.1561
  258MOL    F4631400   7.075   2.014   3.404  0.0371 -0.1507  0.5703
  258MOL    C4731401   7.203   2.214   3.321  0.2744  0.5707 -0.0515
  258MOL    H4831402   7.246   2.222   3.222 -2.2473  0.5171 -1.2002
  258MOL    H4931403   7.281   2.219   3.397  1.4064  0.6119 -1.2012
  258MOL    C5031404   7.096   2.326   3.314 -0.0489  0.4866  0.0350
  258MOL    F5131405   7.021   2.300   3.196 -0.2790 -0.3078  0.5502
  258MOL    F5231406   7.009   2.300   3.418 -0.0817  0.1079  0.2054
  258MOL    C5331407   7.135   2.475   3.303  0.4997  0.0435  0.2927
  258MOL    H5431408   7.043   2.533   3.302  0.5362  0.2566  3.5403
  258MOL    H5531409   7.178   2.494   3.204 -0.2638  0.9115  0.1201
  258MOL    C5631410   7.224   2.532   3.414 -0.0312 -0.2962 -0.6290
  258MOL    F5731411   7.318   2.442   3.454 -0.1522  0.1542  0.0302
  258MOL    F5831412   7.289   2.638   3.360 -0.1361  0.4685  0.5499
  258MOL    C5931413   7.138   2.564   3.535 -0.6205  0.2058 -0.4360
  258MOL    H6031414   7.083   2.471   3.550 -3.3020  1.8340  0.1533
  258MOL    H6131415   7.067   2.641   3.502 -0.0361  0.3976 -1.2571
  258MOL    C6231416   7.206   2.597   3.672  0.2721  0.3780 -0.0440
  258MOL    F6331417   7.287   2.495   3.704 -0.4376  0.3421  0.6835
  258MOL    F6431418   7.285   2.704   3.662  0.0925  0.0382  0.2061
  258MOL    C6531419   7.095   2.625   3.773 -0.5975 -0.6352  0.2764
  258MOL    H6631420   7.012   2.554   3.773 -2.1919  1.1611 -1.6303
  258MOL    H6731421   7.030   2.708   3.746 -1.0158 -0.7771  0.8278
  258MOL    C6831422   7.156   2.630   3.919 -0.7001  0.4216 -0.4606
  258MOL    F6931423   7.223   2.512   3.936 -0.5133 -0.2107  0.4420
  258MOL    F7031424   7.242   2.731   3.923  0.6424 -0.3429  0.0416
  258MOL    C7131425   7.046   2.653   4.022 -0.4842 -0.0774  0.3107
  258MOL    H7231426   6.972   2.575   4.004  0.2270 -0.5857 -0.4504
  258MOL    H7331427   6.987   2.737   3.985 -1.6923 -1.4600 -1.0034
  258MOL    C7431428   7.099   2.678   4.162  0.2369  0.6772  0.1917
  258MOL    F7531429   7.217   2.622   4.182 -0.9172 -0.4251  0.5618
  258MOL    F7631430   7.112   2.811   4.182 -0.0389  0.0386  0.1473
  258MOL    C7731431   7.011   2.624   4.267  0.0684  0.0756 -0.0939
  258MOL    H7831432   7.075   2.607   4.353 -1.1136 -0.3998  0.7115
  258MOL    H7931433   6.976   2.529   4.227  0.2561 -0.1560  0.2919
  258MOL    C8031434   6.881   2.705   4.309  0.1143 -0.0491  0.9338
  258MOL    F8131435   6.910   2.833   4.343  0.0766 -0.1184  0.0335
  258MOL    F8231436   6.790   2.706   4.213 -0.0377  0.2521 -0.2105
  258MOL    C8331437   6.820   2.641   4.435 -0.2481  0.0962 -0.3924
  258MOL    H8431438   6.880   2.651   4.526 -2.2186 -0.5565  1.0135
  258MOL    H8531439   6.807   2.534   4.420 -0.6191 -0.3706  2.7625
  258MOL    C8631440   6.678   2.684   4.481 -0.5183 -0.4353 -0.0709
  258MOL    F8731441   6.584   2.635   4.401  0.5984  0.3388  0.0006
  258MOL    F8831442   6.664   2.621   4.596 -1.2303 -0.2951 -0.2064
  258MOL    C8931443   6.656   2.835   4.494  0.3851  1.3898 -0.1307
  258MOL    H9031444   6.550   2.856   4.502  0.3873  1.5084 -0.3984
  258MOL    H9131445   6.677   2.881   4.398  0.9245  0.1415 -0.6224
  258MOL    C9231446   6.717   2.906   4.615  0.3495 -0.2194  0.1510
  258MOL    F9331447   6.656   2.859   4.724 -0.1711  0.6463  0.0431
  258MOL    F9431448   6.852   2.878   4.622  0.0131  0.2443  0.1684
  258MOL    C9531449   6.683   3.059   4.617  0.4483  0.0959 -0.3072
  258MOL    H9631450   6.590   3.075   4.671  1.0221 -0.8450  1.0018
  258MOL    H9731451   6.679   3.101   4.517  1.2062 -0.6133 -0.6439
  258MOL    C9831452   6.779   3.145   4.699 -0.4804 -0.2730 -0.5000
  258MOL    F9931453   6.900   3.137   4.640  0.4643 -0.1128 -0.1260
  258MOL   F10031454   6.747   3.277   4.706 -0.3421  0.1621  0.2694
  258MOL   C10131455   6.804   3.083   4.841  0.1671 -0.7077 -0.0835
  258MOL   H10231456   6.841   2.981   4.828 -0.2742 -1.1000  1.6958
  258MOL   H10331457   6.708   3.076   4.891 -0.6889  1.0052 -1.4299
  258MOL   C10431458   6.898   3.154   4.938 -0.6276 -0.1136  0.2005
  258MOL   F10531459   7.026   3.163   4.889 -0.3554 -0.5385  0.1407
  258MOL   F10631460   6.856   3.275   4.944  0.2637 -0.0359  0.1945
  258MOL   C10731461   6.909   3.079   5.071 -0.3538  0.0544  0.1007
  258MOL   H10831462   6.939   2.978   5.044 -3.0239 -0.7863  0.1210
  258MOL   H10931463   6.812   3.072   5.120  1.1516  0.5999  3.3346
  258MOL   C11031464   6.999   3.148   5.178  0.6615  0.3825 -0.4164
  258MOL   F11131465   7.127   3.134   5.136 -0.2407  0.0902  0.3640
  258MOL   F11231466   6.965   3.276   5.185 -0.4912  0.7585  0.0414
  258MOL   C11331467   6.974   3.090   5.315 -0.0893  0.1287 -0.2275
  258MOL   H11431468   7.010   2.988   5.326  0.6947  0.1927 -2.0605
  258MOL   H11531469   6.867   3.081   5.333 -0.4096  2.4525 -0.7148
  258MOL   C11631470   7.047   3.162   5.431  0.5497  0.9121 -0.2879
  258MOL   F11731471   7.173   3.177   5.407 -0.0680 -0.4347  0.0128
  258MOL   F11831472   6.998   3.284   5.444 -0.4648 -0.0955 -0.4876
  258MOL   C11931473   7.035   3.087   5.571 -0.2146 -0.1961 -0.6836
  258MOL   H12031474   7.082   3.143   5.652  1.8002 -0.1304 -1.8521
  258MOL   H12131475   7.078   2.988   5.585  0.2291  0.2390  1.1640
  258MOL   H12231476   6.930   3.081   5.598  0.4107  2.2281  2.6779
  259MOL     C131477   2.391   1.235   2.746  0.0919 -0.1897 -0.2594
  259MOL     F231478   2.434   1.279   2.864  0.3246  0.2716 -0.1856
  259MOL     F331479   2.317   1.125   2.759 -0.3507 -0.2457  0.4282
  259MOL     C431480   2.521   1.189   2.672 -0.8091  0.1616 -0.2387
  259MOL     H531481   2.563   1.104   2.725 -1.1101 -0.4661 -0.9879
  259MOL     H631482   2.590   1.273   2.672 -2.7683  1.8311 -0.7771
  259MOL     H731483   2.333   1.311   2.695  0.3533 -0.1702 -0.5281
  259MOL     C831484   2.496   1.154   2.526  0.6305 -0.1560 -0.4488
  259MOL     F931485   2.408   1.050   2.515 -0.0189 -0.1846  0.6602
  259MOL    F1031486   2.445   1.263   2.472  0.1602  0.5381  0.4859
  259MOL    C1131487   2.622   1.108   2.449  0.4626 -0.4277 -0.1689
  259MOL    H1231488   2.587   1.085   2.349 -0.2832 -2.6280  0.5823
  259MOL    H1331489   2.651   1.014   2.495  1.4027  0.4312  1.0604
  259MOL    C1431490   2.747   1.197   2.438 -0.4356  0.3615 -0.2379
  259MOL    F1531491   2.713   1.313   2.384 -0.0369 -0.1601  0.2523
  259MOL    F1631492   2.790   1.220   2.567 -0.7215  0.5606  0.1665
  259MOL    C1731493   2.858   1.126   2.362 -0.2249  0.3657  0.1822
  259MOL    H1831494   2.943   1.195   2.361 -0.3286  0.4963  0.3209
  259MOL    H1931495   2.834   1.100   2.259  0.2045 -1.1272  0.4444
  259MOL    C2031496   2.904   0.992   2.418  0.3490 -0.3560  0.1856
  259MOL    F2131497   2.901   0.982   2.548 -0.4418  0.3644  0.0221
  259MOL    F2231498   2.824   0.895   2.374  0.1673 -0.0606 -0.5931
  259MOL    C2331499   3.034   0.940   2.366 -1.1765  0.4217  0.5953
  259MOL    H2431500   3.018   0.938   2.258 -0.1248  1.5971  0.4111
  259MOL    H2531501   3.059   0.838   2.395 -0.3068  0.6538  0.6839
  259MOL    C2631502   3.170   1.018   2.391  0.4163 -0.4532 -0.5683
  259MOL    F2731503   3.157   1.142   2.335 -0.2003  0.0461 -0.0164
  259MOL    F2831504   3.188   1.037   2.525 -0.0068  0.0821  0.0661
  259MOL    C2931505   3.291   0.943   2.334 -0.4314  0.1950  0.3902
  259MOL    H3031506   3.298   0.841   2.369 -1.6725  0.1603  0.5493
  259MOL    H3131507   3.381   0.994   2.367 -1.1276  0.3713  2.0729
  259MOL    C3231508   3.308   0.948   2.185  0.2639  0.2462 -0.4463
  259MOL    F3331509   3.211   0.878   2.123  0.2141  0.7238 -0.1795
  259MOL    F3431510   3.315   1.075   2.142 -0.1647  0.1214  0.1102
  259MOL    C3531511   3.441   0.880   2.147  0.0428  0.2954  0.1864
  259MOL    H3631512   3.434   0.775   2.175 -0.6885  0.5300  0.9266
  259MOL    H3731513   3.517   0.930   2.207  0.5051  1.9071 -1.7082
  259MOL    C3831514   3.480   0.876   1.999 -0.1255  0.7632 -0.7943
  259MOL    F3931515   3.381   0.833   1.923 -0.2511  0.0101 -0.2559
  259MOL    F4031516   3.506   0.998   1.958  0.4615  0.4438 -0.0149
  259MOL    C4131517   3.602   0.790   1.964 -0.2385 -0.2696 -0.6055
  259MOL    H4231518   3.584   0.686   1.993 -1.3756 -0.2390 -1.1894
  259MOL    H4331519   3.678   0.829   2.032 -2.3935  0.6474  1.3516
  259MOL    C4431520   3.652   0.793   1.822 -0.2637 -0.5216  0.4431
  259MOL    F4531521   3.561   0.736   1.736  0.1492 -0.6892 -0.3534
  259MOL    F4631522   3.668   0.920   1.790  0.1851  0.5147  0.3411
  259MOL    C4731523   3.786   0.733   1.795  0.1475  0.3133  0.1266
  259MOL    H4831524   3.869   0.796   1.827 -1.6908  2.0405  1.6734
  259MOL    H4931525   3.808   0.730   1.688  0.8450  1.4214  0.2305
  259MOL    C5031526   3.807   0.585   1.840 -0.4220 -0.0839  0.2689
  259MOL    F5131527   3.934   0.565   1.835 -0.2646  0.8057 -0.1636
  259MOL    F5231528   3.768   0.552   1.969  0.6102  0.1337  0.7946
  259MOL    C5331529   3.738   0.484   1.747  0.0405 -0.1973  0.1513
  259MOL    H5431530   3.769   0.508   1.645 -0.9549  1.6264  0.2627
  259MOL    H5531531   3.630   0.497   1.735  0.4077  0.8890 -2.4993
  259MOL    C5631532   3.766   0.339   1.776  0.2858  0.5215  0.7715
  259MOL    F5731533   3.898   0.319   1.785 -0.2851 -0.0584 -0.2569
  259MOL    F5831534   3.722   0.317   1.900  0.2743  0.4521 -0.2789
  259MOL    C5931535   3.696   0.235   1.682  0.8045 -0.0210 -0.5922
  259MOL    H6031536   3.737   0.254   1.583 -1.3259  0.8604 -1.3223
  259MOL    H6131537   3.591   0.258   1.667  0.9676  0.8209 -0.4602
  259MOL    C6231538   3.692   0.081   1.717  0.2697  0.3994  1.1552
  259MOL    F6331539   3.662   0.026   1.600  0.2585 -0.2970 -0.4515
  259MOL    F6431540   3.811   0.028   1.742  0.3740 -0.0305 -0.9285
  259MOL    C6531541   3.593   0.036   1.824 -0.5136 -0.5768  0.1694
  259MOL    H6631542   3.615   0.079   1.922  1.0731  0.7661 -0.7477
  259MOL    H6731543   3.617   8.280   1.835 -0.3399 -0.8430 -2.3867
  259MOL    C6831544   3.441   0.063   1.788 -0.1571  0.4021  0.0302
  259MOL    F6931545   3.410   0.190   1.781 -0.5820  0.0250  0.2805
  259MOL    F7031546   3.399   8.349   1.675  0.3645  0.1841 -0.1718
  259MOL    C7131547   3.347   0.004   1.898  0.6616 -0.2934  0.8605
  259MOL    H7231548   3.380   0.018   2.000  0.1027 -1.7033  1.2465
  259MOL    H7331549   3.360   8.246   1.890  2.4008 -0.2546  2.8056
  259MOL    C7431550   3.196   0.046   1.912  0.3409  0.4450  0.9144
  259MOL    F7531551   3.143   8.307   1.996  0.1028  0.1843  0.1930
  259MOL    F7631552   3.185   0.164   1.980  0.0596  0.1041 -0.2726
  259MOL    C7731553   3.113   0.052   1.780  0.4334  0.9756  0.4897
  259MOL    H7831554   3.101   8.298   1.748 -0.9049  1.9723 -2.4424
  259MOL    H7931555   3.165   0.102   1.698 -0.6702 -0.3097 -1.0404
  259MOL    C8031556   2.982   0.127   1.786 -0.1885 -0.6952  0.4199
  259MOL    F8131557   2.897   0.066   1.697 -0.3963 -0.5370  0.6231
  259MOL    F8231558   2.923   0.096   1.899 -0.5324 -0.3421  0.5105
  259MOL    C8331559   2.998   0.279   1.767  0.5859  0.3989 -0.2491
  259MOL    H8431560   3.053   0.299   1.675  0.0457 -2.1351 -1.1619
  259MOL    H8531561   3.069   0.318   1.840  1.4232 -1.9378  0.2197
  259MOL    C8631562   2.871   0.354   1.765 -0.0759  0.0455 -1.1785
  259MOL    F8731563   2.795   0.300   1.862 -0.3147 -0.3748  0.3543
  259MOL    F8831564   2.911   0.480   1.788  0.1240  0.2841 -0.0283
  259MOL    C8931565   2.791   0.358   1.623 -0.0858  0.9216 -0.3731
  259MOL    H9031566   2.756   0.256   1.607 -0.1927  0.6951  1.2028
  259MOL    H9131567   2.865   0.382   1.546 -0.7063  0.2757 -1.1819
  259MOL    C9231568   2.676   0.458   1.601 -0.5657 -0.5544 -0.3425
  259MOL    F9331569   2.725   0.589   1.609 -0.2870 -0.3082  0.2144
  259MOL    F9431570   2.625   0.438   1.483  0.4660 -0.4674  0.1120
  259MOL    C9531571   2.561   0.452   1.709  0.1970 -0.2976  0.0816
  259MOL    H9631572   2.603   0.465   1.809  1.1521 -2.4565 -0.0313
  259MOL    H9731573   2.509   0.356   1.710  0.4487 -0.4472 -1.0147
  259MOL    C9831574   2.442   0.560   1.706 -0.1840 -0.3759  0.9748
  259MOL    F9931575   2.500   0.676   1.727  0.0294 -0.1713  0.2320
  259MOL   F10031576   2.407   0.568   1.586  0.2361  0.2532  0.3557
  259MOL   C10131577   2.326   0.541   1.805 -0.1005  0.2090  0.8103
  259MOL   H10231578   2.380   0.533   1.899 -0.3228 -1.0704  0.8459
  259MOL   H10331579   2.275   0.445   1.796 -0.7993  0.6834 -0.4667
  259MOL   C10431580   2.226   0.665   1.815  0.2531 -0.2140 -0.4772
  259MOL   F10531581   2.286   0.771   1.872 -0.2622 -0.2470  0.4797
  259MOL   F10631582   2.189   0.692   1.691 -0.5737  0.2297  0.7589
  259MOL   C10731583   2.112   0.624   1.905 -0.1927 -0.0466  0.1188
  259MOL   H10831584   2.154   0.579   1.995 -1.5152 -1.8683 -0.1246
  259MOL   H10931585   2.051   0.560   1.841 -0.5432  1.6209 -1.2354
  259MOL   C11031586   2.012   0.736   1.950 -0.3530 -0.5274  0.0708
  259MOL   F11131587   2.075   0.813   2.040 -0.1469  0.0647  0.3919
  259MOL   F11231588   1.974   0.815   1.843 -0.1308 -0.2306 -0.1577
  259MOL   C11331589   1.891   0.672   2.014 -0.0795 -0.1629 -0.1697
  259MOL   H11431590   1.832   0.644   1.926  1.4054 -1.9091 -0.6558
  259MOL   H11531591   1.837   0.753   2.062 -1.4469 -2.3125  2.0175
  259MOL   C11631592   1.917   0.567   2.121  0.0435 -0.4537  0.2393
  259MOL   F11731593   1.958   0.461   2.059 -0.1449  0.4048 -0.0320
  259MOL   F11831594   2.002   0.607   2.212  0.4919  0.0512  0.2426
  259MOL   C11931595   1.791   0.536   2.199 -0.1512 -0.3431  0.7055
  259MOL   H12031596   1.813   0.489   2.295  0.6508  0.7581  1.0727
  259MOL   H12131597   1.729   0.470   2.139 -1.1109 -0.0163  1.3188
  259MOL   H12231598   1.726   0.621   2.222  0.0795 -0.3674  1.4579
  260MOL     C131599   1.833   7.856   6.110 -0.1836  1.1640 -0.1375
  260MOL     F231600   1.949   7.850   6.048  0.3426 -0.3193  0.1905
  260MOL     F331601   1.840   7.881   6.239 -0.4816  0.3740 -0.2806
  260MOL     C431602   1.753   7.723   6.088 -0.2704  0.2437 -0.0658
  260MOL     H531603   1.809   7.641   6.133  1.4137  0.2131 -2.1377
  260MOL     H631604   1.767   7.718   5.980 -0.9613  1.1200 -0.1961
  260MOL     H731605   1.786   7.945   6.066 -0.9036  0.2532 -1.2269
  260MOL     C831606   1.602   7.717   6.113  0.1378  0.2096  0.3573
  260MOL     F931607   1.589   7.744   6.242  0.3193 -0.3443 -0.0523
  260MOL    F1031608   1.548   7.818   6.050  0.4314 -0.3273 -0.2207
  260MOL    C1131609   1.542   7.575   6.080  0.0439 -0.0727 -0.6313
  260MOL    H1231610   1.603   7.496   6.124 -0.3167 -1.0032 -1.7738
  260MOL    H1331611   1.550   7.551   5.974  1.2004  0.5344 -0.6850
  260MOL    C1431612   1.401   7.547   6.128 -0.3246 -0.2794 -0.3132
  260MOL    F1531613   1.315   7.649   6.098 -0.0888 -0.1245  0.5888
  260MOL    F1631614   1.365   7.436   6.066  0.2140  0.1157  0.4344
  260MOL    C1731615   1.388   7.515   6.281  0.6691  0.1896  0.0882
  260MOL    H1831616   1.388   7.597   6.354 -2.7203 -0.2573  0.6494
  260MOL    H1931617   1.481   7.466   6.312  0.8808  0.8507  0.5089
  260MOL    C2031618   1.263   7.432   6.321 -0.7431 -0.7704 -0.0369
  260MOL    F2131619   1.282   7.312   6.268  0.0880  0.0999  0.3772
  260MOL    F2231620   1.263   7.414   6.453 -0.3429 -0.0910 -0.6030
  260MOL    C2331621   1.128   7.471   6.258 -0.2741 -0.4827  0.2414
  260MOL    H2431622   1.068   7.382   6.271  1.4272 -1.9185 -1.4594
  260MOL    H2531623   1.135   7.482   6.150  1.2851  1.2648  0.4951
  260MOL    C2631624   1.055   7.581   6.326 -0.0081  0.1416 -0.1871
  260MOL    F2731625   1.113   7.700   6.308  0.4251 -0.1443 -0.3322
  260MOL    F2831626   0.944   7.589   6.251  0.1142 -0.6062 -0.3950
  260MOL    C2931627   1.008   7.551   6.475  0.1134 -0.3698 -0.9554
  260MOL    H3031628   1.091   7.554   6.545  1.2706 -1.0277 -2.2580
  260MOL    H3131629   0.978   7.446   6.475  0.1042 -0.3854 -2.8629
  260MOL    C3231630   0.908   7.639   6.546 -0.3637  0.0372 -0.3417
  260MOL    F3331631   0.898   7.615   6.677  0.2646  0.1595  0.0426
  260MOL    F3431632   0.946   7.768   6.544  0.3661 -0.0371  0.3826
  260MOL    C3531633   0.767   7.628   6.482 -0.2093  0.1457 -0.1780
  260MOL    H3631634   0.778   7.637   6.374  1.5637 -0.5843 -0.0806
  260MOL    H3731635   0.713   7.720   6.503 -0.2447  0.8481 -3.1530
  260MOL    C3831636   0.683   7.501   6.518  0.1049 -0.5247 -0.7956
  260MOL    F3931637   0.744   7.399   6.487 -0.4737 -0.3168  0.4384
  260MOL    F4031638   0.669   7.495   6.651  0.0534  0.1621 -0.6076
  260MOL    C4131639   0.541   7.493   6.460 -0.9477 -0.4629  0.7617
  260MOL    H4231640   0.495   7.591   6.475  1.0188  0.6800 -0.5368
  260MOL    H4331641   0.482   7.411   6.503 -0.7405 -0.7141  0.5631
  260MOL    C4431642   0.535   7.469   6.302 -0.2017  0.0597  1.3692
  260MOL    F4531643   0.594   7.572   6.242 -0.4450 -0.4275 -0.1971
  260MOL    F4631644   0.592   7.356   6.263  0.2112 -0.1848 -0.2396
  260MOL    C4731645   0.395   7.471   6.247  0.7598  0.6417  0.2711
  260MOL    H4831646   0.342   7.384   6.285 -0.4243  0.0066 -2.7211
  260MOL    H4931647   0.410   7.477   6.139 -0.1606 -1.5266  0.0110
  260MOL    C5031648   0.306   7.596   6.279  0.1771  0.7042  0.3349
  260MOL    F5131649   0.282   7.585   6.408 -0.0321  0.0922 -0.2078
  260MOL    F5231650   0.366   7.716   6.262  0.0395 -0.3148 -0.7212
  260MOL    C5331651   0.173   7.601   6.203  0.4795 -0.0707 -0.0040
  260MOL    H5431652   0.116   7.677   6.256 -1.8824 -0.7427 -1.4993
  260MOL    H5531653   0.118   7.511   6.230 -2.3978  2.2354  2.2217
  260MOL    C5631654   0.167   7.657   6.061 -0.1913  0.6483 -0.2052
  260MOL    F5731655   0.038   7.662   6.021  0.5168  0.2620  0.4031
  260MOL    F5831656   0.217   7.778   6.062 -0.2988  0.1876  0.0877
  260MOL    C5931657   0.242   7.579   5.950  0.7902 -0.2072  0.2641
  260MOL    H6031658   0.346   7.573   5.983  0.7605  0.7553  0.5650
  260MOL    H6131659   0.247   7.642   5.861  0.7703 -0.1013  0.3373
  260MOL    C6231660   0.196   7.437   5.921  0.1441  0.2958 -0.2178
  260MOL    F6331661   0.211   7.362   6.030 -0.1165 -0.3029  0.7047
  260MOL    F6431662   0.067   7.440   5.880  0.0782  0.5266 -0.3317
  260MOL    C6531663   0.279   7.361   5.815  0.4296  0.8461 -0.5813
  260MOL    H6631664   0.260   7.402   5.716 -1.6486  0.1898 -0.4772
  260MOL    H6731665   0.227   7.268   5.794  0.0032  0.8325  0.4679
  260MOL    C6831666   0.431   7.340   5.842  0.4847  0.6923  0.2759
  260MOL    F6931667   0.498   7.456   5.844  0.1949  0.2677 -0.7789
  260MOL    F7031668   0.448   7.283   5.963 -0.4333  0.3800 -0.0652
  260MOL    C7131669   0.506   7.246   5.740  0.5793 -0.1046  0.1916
  260MOL    H7231670   0.518   7.311   5.653  1.0200  0.5492  0.7357
  260MOL    H7331671   0.442   7.159   5.733  2.4900 -1.6000  0.7649
  260MOL    C7431672   0.644   7.184   5.774  0.6372  0.0933  0.0960
  260MOL    F7531673   0.624   7.089   5.863  0.4443  0.0158  0.5462
  260MOL    F7631674   0.691   7.140   5.662 -0.6760  0.3405  0.2391
  260MOL    C7731675   0.737   7.287   5.845  0.2473 -0.3561  0.0894
  260MOL    H7831676   0.702   7.323   5.941  0.0857  0.0455 -0.1167
  260MOL    H7931677   0.749   7.383   5.794 -0.1183  0.6070  1.7861
  260MOL    C8031678   0.877   7.223   5.883  0.2636  0.4274  0.6596
  260MOL    F8131679   0.943   7.198   5.771 -0.5854  0.2484 -0.5437
  260MOL    F8231680   0.939   7.309   5.960  0.3194  0.0903  0.3524
  260MOL    C8331681   0.869   7.098   5.972  0.1575 -0.3210 -0.9856
  260MOL    H8431682   0.830   7.011   5.918 -1.1290  0.2790 -1.0542
  260MOL    H8531683   0.794   7.106   6.051 -0.6533  0.8311 -1.8512
  260MOL    C8631684   1.007   7.062   6.046  0.2516 -0.1156  1.5107
  260MOL    F8731685   1.042   7.149   6.137  0.1043  0.2964 -0.4725
  260MOL    F8831686   0.990   6.945   6.106 -0.3292  0.2691 -0.1647
  260MOL    C8931687   1.121   7.027   5.941 -0.4719 -0.3160 -0.3156
  260MOL    H9031688   1.146   7.118   5.887 -0.9895  0.3842  0.6007
  260MOL    H9131689   1.081   6.954   5.871 -0.0359 -1.4666  0.6214
  260MOL    C9231690   1.253   6.962   6.000  0.6378 -0.1234 -0.1302
  260MOL    F9331691   1.300   7.038   6.098 -0.3530 -0.0471  0.3004
  260MOL    F9431692   1.230   6.836   6.033 -0.1819  0.0113  0.2659
  260MOL    C9531693   1.371   6.950   5.900 -0.3128 -0.2414  0.0506
  260MOL    H9631694   1.358   6.877   5.820  1.2252  0.1708 -0.5849
  260MOL    H9731695   1.457   6.909   5.954  0.5309  0.5745 -0.6731
  260MOL    C9831696   1.411   7.084   5.826 -0.2323 -0.4359  0.1392
  260MOL    F9931697   1.325   7.107   5.730  0.1303  0.5005 -0.1325
  260MOL   F10031698   1.414   7.182   5.918  0.3032  0.2199 -0.2005
  260MOL   C10131699   1.547   7.080   5.755 -0.3770  0.6518  0.1226
  260MOL   H10231700   1.556   7.000   5.682  1.5288  1.9137 -1.0669
  260MOL   H10331701   1.626   7.069   5.828  0.8156 -1.1817 -1.3985
  260MOL   C10431702   1.583   7.202   5.666  0.9051 -0.5589  0.0976
  260MOL   F10531703   1.708   7.201   5.626  0.2675  0.4749 -0.6503
  260MOL   F10631704   1.515   7.175   5.560  0.0238  0.2137  0.0506
  260MOL   C10731705   1.550   7.345   5.711 -0.4421 -0.2954  0.0183
  260MOL   H10831706   1.600   7.376   5.803 -0.6172 -0.1120  0.0516
  260MOL   H10931707   1.446   7.345   5.746 -0.4007 -0.1657  0.1389
  260MOL   C11031708   1.565   7.460   5.616 -0.7531  0.3964  0.8607
  260MOL   F11131709   1.497   7.444   5.501  0.0781 -0.1699  0.0514
  260MOL   F11231710   1.518   7.566   5.684 -0.1742 -0.2308  0.1679
  260MOL   C11331711   1.717   7.501   5.579  0.7541 -0.7170 -0.0203
  260MOL   H11431712   1.713   7.601   5.536  0.1089 -1.6381 -2.1836
  260MOL   H11531713   1.753   7.442   5.494  0.1073 -1.3884  0.1651
  260MOL   C11631714   1.824   7.514   5.683  0.3654  0.1562 -0.0563
  260MOL   F11731715   1.777   7.602   5.770 -0.0341  0.0543  0.1634
  260MOL   F11831716   1.843   7.396   5.745  0.0199  0.0163  0.5292
  260MOL   C11931717   1.950   7.585   5.628 -0.0251  0.7740  0.0496
  260MOL   H12031718   1.926   7.679   5.577 -0.4687  0.9644  0.6030
  260MOL   H12131719   2.018   7.530   5.563 -1.0412  1.1677 -1.3912
  260MOL   H12231720   2.005   7.619   5.715 -1.7934 -3.9050  3.1874
  261MOL     C131721   7.187   5.674   0.802  0.1962  0.0886  0.2002
  261MOL     F231722   7.239   5.600   0.897  0.2179 -0.4302 -0.1237
  261MOL     F331723   7.088   5.597   0.750 -0.2426 -0.0104  0.1273
  261MOL     C431724   7.284   5.710   0.692 -0.2799 -0.5289 -0.1567
  261MOL     H531725   7.230   5.765   0.614 -1.5999 -0.6307  0.6681
  261MOL     H631726   7.335   5.621   0.658 -0.7690 -0.2991 -1.5677
  261MOL     H731727   7.143   5.763   0.845  0.8496  1.0718 -1.1296
  261MOL     C831728   7.384   5.822   0.731  0.4979 -0.1164  0.6252
  261MOL     F931729   7.324   5.943   0.751 -0.0301  0.4053 -0.0943
  261MOL    F1031730   7.432   5.788   0.845 -0.0140 -0.1690 -0.6058
  261MOL    C1131731   7.506   5.839   0.640 -0.2405 -0.0430  0.1947
  261MOL    H1231732   7.577   5.757   0.643  1.3363  1.3734  3.7465
  261MOL    H1331733   7.562   5.918   0.690  0.0052  0.7224 -1.2480
  261MOL    C1431734   7.468   5.895   0.497  0.8596  0.2688 -1.0949
  261MOL    F1531735   7.397   5.802   0.431  0.5720 -0.1998 -0.6729
  261MOL    F1631736   7.399   6.007   0.517 -0.1512  0.2363  0.6823
  261MOL    C1731737   7.591   5.930   0.417  0.8948  0.1915 -0.1760
  261MOL    H1831738   7.660   5.847   0.403  1.4428  0.6448 -0.1809
  261MOL    H1931739   7.645   6.006   0.474 -0.6177  0.8363  0.4226
  261MOL    C2031740   7.572   5.997   0.280  0.7229 -0.1818  0.1206
  261MOL    F2131741   7.523   5.908   0.193  0.4994  0.2259 -0.6273
  261MOL    F2231742   7.478   6.088   0.290 -0.1050  0.4080 -0.0746
  261MOL    C2331743   7.699   6.069   0.219 -0.1393  0.2474 -0.3434
  261MOL    H2431744   7.723   6.158   0.277  1.4703 -0.3126 -0.1132
  261MOL    H2531745   7.658   6.108   0.126 -0.5737  0.0582 -0.2324
  261MOL    C2631746   7.823   5.977   0.196  0.0632 -0.1368  0.5181
  261MOL    F2731747   7.871   5.936   0.312  0.4875  0.3322 -0.5420
  261MOL    F2831748   7.784   5.871   0.125 -0.5094 -0.0925  0.5284
  261MOL    C2931749   7.948   6.047   0.137  0.7099 -0.5906 -0.6087
  261MOL    H3031750   7.981   6.122   0.209 -0.3342 -1.1257  0.4516
  261MOL    H3131751   7.925   6.092   0.041 -1.5741 -0.9806 -0.2628
  261MOL    C3231752   8.081   5.965   0.126  0.4240 -0.7799 -0.4656
  261MOL    F3331753   8.110   5.910   0.242  0.1036 -0.1382 -0.5226
  261MOL    F3431754   8.061   5.865   0.040 -0.4136  0.1028 -0.2681
  261MOL    C3531755   8.196   6.057   0.073  0.1340  0.0175 -0.0475
  261MOL    H3631756   8.199   6.073   8.315 -0.4783  0.9949  0.0657
  261MOL    H3731757   8.279   5.995   0.105  1.0549  0.4137 -1.6114
  261MOL    C3831758   8.211   6.204   0.127  0.2972  0.2781  0.4574
  261MOL    F3931759   8.118   6.275   0.081  0.1321 -0.6023 -0.3435
  261MOL    F4031760   8.204   6.191   0.261  0.2347  0.0233  0.1031
  261MOL    C4131761   8.343   6.266   0.094 -0.3722 -0.4080 -0.5546
  261MOL    H4231762   0.003   6.268   8.335  1.7383  1.4023 -0.3815
  261MOL    H4331763   0.072   6.201   0.129 -0.3962 -0.5537 -0.7729
  261MOL    C4431764   0.017   6.414   0.156 -0.2270 -0.5832  0.7413
  261MOL    F4531765   8.257   6.493   0.134 -0.0226  0.3445  0.2144
  261MOL    F4631766   0.037   6.392   0.286  0.0211  0.2769  0.3100
  261MOL    C4731767   0.147   6.492   0.101 -0.1596  0.7525 -0.3638
  261MOL    H4831768   0.220   6.412   0.095 -0.3075  0.6224 -0.4542
  261MOL    H4931769   0.181   6.562   0.177 -0.6147  0.8181 -0.2181
  261MOL    C5031770   0.136   6.554   8.309 -0.3655  0.0210 -0.5487
  261MOL    F5131771   0.075   6.480   8.217  0.3757 -0.6598 -0.2441
  261MOL    F5231772   0.059   6.666   8.332  0.2650  0.7483 -0.0580
  261MOL    C5331773   0.275   6.598   8.257  0.2867 -0.4088 -0.2204
  261MOL    H5431774   0.327   6.508   8.222 -0.3600 -1.0878  0.5652
  261MOL    H5531775   0.336   6.643   8.335 -0.7600 -2.2459  1.7021
  261MOL    C5631776   0.267   6.680   8.130 -0.4916 -0.2415  0.0696
  261MOL    F5731777   0.216   6.615   8.029  0.1218 -0.3464 -0.0828
  261MOL    F5831778   0.197   6.792   8.158 -0.3954  0.1749 -0.4216
  261MOL    C5931779   0.395   6.743   8.073  0.3285  0.1405  0.8622
  261MOL    H6031780   0.431   6.827   8.133  1.2936  0.5230 -0.2518
  261MOL    H6131781   0.369   6.773   7.972  0.5302  1.6926  1.2690
  261MOL    C6231782   0.508   6.644   8.051  0.3828 -0.4832  0.1600
  261MOL    F6331783   0.603   6.710   7.982 -0.6664 -0.1447  0.7278
  261MOL    F6431784   0.556   6.589   8.165 -0.0056  0.2714  0.6638
  261MOL    C6531785   0.473   6.524   7.954 -0.2819  0.2542 -0.4594
  261MOL    H6631786   0.417   6.565   7.870 -1.7639  1.2852  0.9950
  261MOL    H6731787   0.397   6.458   7.999  1.3410 -2.5883 -1.7796
  261MOL    C6831788   0.583   6.444   7.901 -0.4522  0.6418  0.7049
  261MOL    F6931789   0.523   6.355   7.828 -0.3045 -0.6300 -0.4024
  261MOL    F7031790   0.644   6.529   7.823 -0.1159  1.0150  0.4935
  261MOL    C7131791   0.677   6.380   8.009 -0.0741  0.2483  0.1266
  261MOL    H7231792   0.611   6.306   8.056 -0.0014 -0.7172 -1.2453
  261MOL    H7331793   0.708   6.459   8.076 -3.1127  2.5350 -1.0316
  261MOL    C7431794   0.801   6.296   7.963 -0.6814 -0.1143 -0.3374
  261MOL    F7531795   0.767   6.210   7.862  0.0415 -0.4380 -0.1910
  261MOL    F7631796   0.903   6.373   7.928  0.6651 -0.3616 -0.0063
  261MOL    C7731797   0.857   6.200   8.073 -0.7720  0.0048 -0.2995
  261MOL    H7831798   0.944   6.145   8.038 -0.0440  2.0430 -1.7673
  261MOL    H7931799   0.784   6.122   8.091  0.4472 -1.2857 -0.8919
  261MOL    C8031800   0.880   6.272   8.215  0.0360 -0.1470  0.6370
  261MOL    F8131801   0.768   6.323   8.268 -0.0957  0.3311 -0.0238
  261MOL    F8231802   0.918   6.166   8.290 -0.2011 -0.0435 -0.1342
  261MOL    C8331803   0.998   6.382   8.216 -0.4624 -0.7848 -0.0652
  261MOL    H8431804   0.969   6.470   8.158  0.0432 -0.2394  0.4991
  261MOL    H8531805   1.086   6.347   8.163 -2.0297 -0.5152 -2.9516
  261MOL    C8631806   1.054   6.446   8.348 -0.3216 -0.1173 -0.6276
  261MOL    F8731807   1.110   6.356   0.080  0.4653 -0.5273 -0.1674
  261MOL    F8831808   1.149   6.533   8.314 -0.0762 -0.2250  0.5737
  261MOL    C8931809   0.938   6.516   0.083 -0.2930 -0.4948  0.0753
  261MOL    H9031810   0.870   6.438   0.116  0.0202 -1.1443 -0.7847
  261MOL    H9131811   0.871   6.581   0.027  0.8413 -1.2825 -2.2687
  261MOL    C9231812   0.992   6.601   0.203 -0.4635  0.2006 -0.3195
  261MOL    F9331813   1.027   6.511   0.303 -0.7622 -0.7435 -0.1902
  261MOL    F9431814   1.092   6.676   0.168  0.1146 -0.4753 -0.1471
  261MOL    C9531815   0.892   6.700   0.259  0.6309 -0.1604 -0.4688
  261MOL    H9631816   0.898   6.789   0.197  0.0430  0.0468 -0.2313
  261MOL    H9731817   0.932   6.725   0.358  0.1215  0.4787 -0.4208
  261MOL    C9831818   0.745   6.664   0.273  0.2323  0.0843  1.0488
  261MOL    F9931819   0.695   6.645   0.154 -0.5135 -0.2733  0.5680
  261MOL   F10031820   0.751   6.549   0.345  0.2441 -0.0292  0.2052
  261MOL   C10131821   0.668   6.771   0.351 -0.3679 -0.3768  0.3386
  261MOL   H10231822   0.673   6.870   0.307 -1.3252 -0.1835  0.6602
  261MOL   H10331823   0.715   6.788   0.448 -0.6831 -2.5660  0.9214
  261MOL   C10431824   0.516   6.738   0.373  0.4039  0.3105  0.2189
  261MOL   F10531825   0.459   6.848   0.419  0.3191 -0.4783  0.6420
  261MOL   F10631826   0.456   6.716   0.255 -0.5143  0.0461  0.0113
  261MOL   C10731827   0.500   6.621   0.478  0.5348  0.3771 -0.2061
  261MOL   H10831828   0.562   6.642   0.566 -0.1918  0.0897  0.3738
  261MOL   H10931829   0.533   6.535   0.420  0.0135  2.0343 -3.0331
  261MOL   C11031830   0.354   6.587   0.512 -0.0901  0.1148 -0.9145
  261MOL   F11131831   0.285   6.697   0.545 -0.4359 -0.5920 -0.0748
  261MOL   F11231832   0.291   6.545   0.400 -0.0678  0.2885 -0.2261
  261MOL   C11331833   0.337   6.477   0.620 -0.0223 -0.3214 -0.4530
  261MOL   H11431834   0.395   6.390   0.588  0.8315  0.1438 -0.1791
  261MOL   H11531835   0.232   6.453   0.638  0.6043 -0.3194  3.6284
  261MOL   C11631836   0.378   6.508   0.768  0.0688  0.4969 -0.0434
  261MOL   F11731837   0.357   6.394   0.834  0.2471  0.1352 -0.1870
  261MOL   F11831838   0.512   6.526   0.776 -0.0493 -0.0149 -0.0038
  261MOL   C11931839   0.313   6.629   0.840  0.1867 -0.6033  0.0982
  261MOL   H12031840   0.330   6.726   0.793 -0.0996 -1.3775 -1.6393
  261MOL   H12131841   0.350   6.646   0.941 -2.0290  0.5445  0.7498
  261MOL   H12231842   0.208   6.601   0.850  0.4044 -0.7221  2.2895
  262MOL     C131843   8.080   4.436   6.297 -0.3200 -0.3511  0.3556
  262MOL     F231844   8.164   4.489   6.389 -0.2253 -0.3217 -0.4165
  262MOL     F331845   8.047   4.525   6.208 -0.3504  0.3244  0.0696
  262MOL     C431846   7.954   4.379   6.369 -0.6845  0.3405  0.1001
  262MOL     H531847   7.893   4.459   6.410  2.0184  1.9669  1.0095
  262MOL     H631848   7.977   4.312   6.452  1.4627 -0.7980 -1.3850
  262MOL     H731849   8.136   4.354   6.253 -0.0479 -0.0701  0.1795
  262MOL     C831850   7.868   4.296   6.274  0.6108  0.0301  0.1288
  262MOL     F931851   7.805   4.376   6.195  0.0039  0.1855 -0.2745
  262MOL    F1031852   7.957   4.214   6.207  0.2803  0.7192 -0.3692
  262MOL    C1131853   7.763   4.185   6.332 -0.4605  0.1057 -0.2205
  262MOL    H1231854   7.818   4.107   6.385  0.9868  1.3140  0.0964
  262MOL    H1331855   7.711   4.140   6.247 -0.5118  0.6693 -0.4883
  262MOL    C1431856   7.656   4.250   6.425 -0.9235 -0.0645 -0.3569
  262MOL    F1531857   7.720   4.314   6.527  0.3131  0.4118  0.8154
  262MOL    F1631858   7.598   4.347   6.355  0.1524  0.2623  0.6403
  262MOL    C1731859   7.556   4.151   6.478 -0.0772 -0.1437 -0.7039
  262MOL    H1831860   7.597   4.060   6.523 -0.5354 -0.1602 -0.3175
  262MOL    H1931861   7.503   4.113   6.391  0.9429 -0.3035 -1.2668
  262MOL    C2031862   7.461   4.202   6.585 -0.5722 -0.3400 -0.4174
  262MOL    F2131863   7.364   4.121   6.620  0.8394  0.2992 -0.7450
  262MOL    F2231864   7.526   4.236   6.691  0.0234 -0.0987  0.2747
  262MOL    C2331865   7.381   4.328   6.546  0.4747 -0.0732 -0.3779
  262MOL    H2431866   7.312   4.288   6.472 -0.1680 -1.6519  1.0451
  262MOL    H2531867   7.437   4.411   6.504  0.7111  0.0932  0.2550
  262MOL    C2631868   7.288   4.403   6.655  0.3671  0.0462  0.1717
  262MOL    F2731869   7.216   4.494   6.580  0.1890  0.5502  0.3447
  262MOL    F2831870   7.207   4.324   6.714  0.5848  0.2490 -0.3553
  262MOL    C2931871   7.376   4.482   6.762  0.1844  0.0345 -0.5348
  262MOL    H3031872   7.453   4.537   6.706 -2.1531  2.2139 -1.6909
  262MOL    H3131873   7.417   4.412   6.834  0.1953  0.6930  0.1084
  262MOL    C3231874   7.293   4.573   6.851  0.2402  0.0720 -0.2160
  262MOL    F3331875   7.234   4.652   6.764 -0.0805 -0.3129  0.1904
  262MOL    F3431876   7.197   4.514   6.915 -0.5920  0.3514 -0.3554
  262MOL    C3531877   7.385   4.659   6.945 -0.2510  0.4766 -0.7246
  262MOL    H3631878   7.467   4.712   6.897  0.1158 -0.8772 -1.6288
  262MOL    H3731879   7.433   4.585   7.008 -0.9265 -0.2399 -1.0499
  262MOL    C3831880   7.320   4.766   7.035 -0.5051  0.0708 -0.4181
  262MOL    F3931881   7.209   4.709   7.079 -0.9172  0.2979 -0.5897
  262MOL    F4031882   7.409   4.788   7.131 -0.0108  0.6748  0.1164
  262MOL    C4131883   7.290   4.903   6.967 -0.3376 -0.9015  0.4530
  262MOL    H4231884   7.206   4.887   6.900  0.1517  1.5403 -0.8292
  262MOL    H4331885   7.358   4.947   6.894 -1.2004  1.7189  1.1801
  262MOL    C4431886   7.251   5.014   7.076 -0.3832  0.3794 -0.2395
  262MOL    F4531887   7.152   4.975   7.155  0.2720  0.4737 -0.3675
  262MOL    F4631888   7.364   5.033   7.149 -0.1944  0.5040  0.1496
  262MOL    C4731889   7.226   5.159   7.017 -0.2539 -0.0661 -0.3183
  262MOL    H4831890   7.320   5.192   6.974  0.3168 -0.2206  0.8121
  262MOL    H4931891   7.196   5.228   7.096  0.1912  0.4085 -0.5666
  262MOL    C5031892   7.111   5.186   6.912  1.0982 -0.4022  0.3671
  262MOL    F5131893   7.123   5.302   6.852  0.0168 -0.2831  0.3834
  262MOL    F5231894   7.116   5.100   6.808  0.7437 -0.0199  0.3868
  262MOL    C5331895   6.972   5.185   6.982 -0.2566  0.0828  0.2751
  262MOL    H5431896   6.963   5.111   7.062  0.5661  0.9287  1.1584
  262MOL    H5531897   6.887   5.169   6.915 -1.1882 -0.7653  1.6463
  262MOL    C5631898   6.942   5.317   7.047 -0.4408 -0.0944 -0.1871
  262MOL    F5731899   7.034   5.351   7.134  0.2682 -0.0949  0.1773
  262MOL    F5831900   6.935   5.421   6.967  0.3063 -0.1970  0.2073
  262MOL    C5931901   6.803   5.323   7.124  0.1472 -0.4925 -0.1169
  262MOL    H6031902   6.732   5.299   7.045  0.9921 -1.5239 -0.5815
  262MOL    H6131903   6.786   5.428   7.148 -0.5644 -0.5315 -0.4326
  262MOL    C6231904   6.781   5.241   7.252  0.0159  0.2053  0.1642
  262MOL    F6331905   6.649   5.253   7.291  0.1023 -0.3942  0.2477
  262MOL    F6431906   6.808   5.106   7.243  0.1282  0.4800 -0.3418
  262MOL    C6531907   6.878   5.291   7.366  0.3705  0.3665  0.3662
  262MOL    H6631908   6.883   5.399   7.351  1.6834  0.0019 -2.1006
  262MOL    H6731909   6.980   5.258   7.349  0.7579  0.8128  1.7148
  262MOL    C6831910   6.852   5.252   7.514 -0.2191 -0.1636 -0.6901
  262MOL    F6931911   6.756   5.335   7.553 -0.2202  0.0389 -0.0832
  262MOL    F7031912   6.808   5.125   7.527 -0.1516 -0.3142 -0.1083
  262MOL    C7131913   6.984   5.280   7.595 -0.0912  0.3197  0.0121
  262MOL    H7231914   7.030   5.375   7.569 -2.2280  1.1934 -0.6670
  262MOL    H7331915   7.068   5.223   7.554 -1.0020 -1.2383  0.2789
  262MOL    C7431916   6.981   5.251   7.746  0.0099 -0.0871 -0.4773
  262MOL    F7531917   6.968   5.124   7.754  0.7756  0.1180 -0.6096
  262MOL    F7631918   7.102   5.289   7.790  0.0989  0.2548 -0.1327
  262MOL    C7731919   6.867   5.317   7.829  0.3912 -0.3399 -0.2502
  262MOL    H7831920   6.772   5.264   7.820 -0.9572  1.7780  0.8826
  262MOL    H7931921   6.827   5.408   7.784 -3.3318 -1.7002  0.1132
  262MOL    C8031922   6.890   5.325   7.985 -0.4093 -0.6029  0.6207
  262MOL    F8131923   7.001   5.396   8.020  0.1107  0.4014 -0.1289
  262MOL    F8231924   6.781   5.391   8.028  0.6631 -0.1727  0.6529
  262MOL    C8331925   6.899   5.187   8.058  0.7280  0.1822  0.6344
  262MOL    H8431926   6.936   5.208   8.159  1.6577 -0.0875  0.3538
  262MOL    H8531927   6.986   5.141   8.012  0.1422 -0.6142  0.3226
  262MOL    C8631928   6.767   5.105   8.064 -0.2900  0.3485 -0.0009
  262MOL    F8731929   6.659   5.173   8.092 -0.1575  0.1580  0.0137
  262MOL    F8831930   6.745   5.071   7.937  0.3879  0.1491 -0.5310
  262MOL    C8931931   6.768   4.981   8.149 -0.2336 -0.4379 -0.9771
  262MOL    H9031932   6.666   4.943   8.159  0.5123 -2.1701  0.2605
  262MOL    H9131933   6.783   5.004   8.255 -0.2425 -3.4434 -0.2903
  262MOL    C9231934   6.870   4.869   8.110 -0.0308  0.7980 -0.0428
  262MOL    F9331935   6.840   4.823   7.992  0.1267  0.1631 -0.0817
  262MOL    F9431936   6.993   4.923   8.101  0.5183 -0.1066 -0.6620
  262MOL    C9531937   6.879   4.743   8.207  0.0908  0.2603 -0.2461
  262MOL    H9631938   6.959   4.689   8.157 -0.2999 -0.8765  0.3508
  262MOL    H9731939   6.780   4.698   8.202 -1.2393  3.1543 -1.1314
  262MOL    C9831940   6.914   4.767   0.009  0.0961  0.6616  0.5024
  262MOL    F9931941   6.991   4.874   0.018 -0.3601  0.3745  0.5038
  262MOL   F10031942   6.802   4.812   0.062  0.5219  0.3209  0.2054
  262MOL   C10131943   6.968   4.635   0.075 -0.2515  0.7109 -0.6177
  262MOL   H10231944   6.983   4.654   0.181  1.4319  1.2630 -0.9419
  262MOL   H10331945   7.068   4.610   0.038 -0.9350 -1.6643 -0.9460
  262MOL   C10431946   6.879   4.513   0.056  0.3063 -0.2856 -0.0293
  262MOL   F10531947   6.773   4.546   0.129 -0.1764 -0.2568 -0.4181
  262MOL   F10631948   6.830   4.477   8.287 -0.5982 -0.2278  0.5872
  262MOL   C10731949   6.939   4.386   0.127 -0.1004  0.8458  0.4069
  262MOL   H10831950   6.863   4.308   0.129  0.0541  0.7160  1.1676
  262MOL   H10931951   6.957   4.412   0.231 -1.8314  4.0869 -0.0490
  262MOL   C11031952   7.069   4.355   0.062 -0.8592  0.2857  0.2963
  262MOL   F11131953   7.069   4.383   8.280 -0.1648 -0.0544  0.1731
  262MOL   F11231954   7.168   4.413   0.122  0.2090  0.3984 -0.2456
  262MOL   C11331955   7.098   4.203   0.066 -0.7978  0.4891 -0.1626
  262MOL   H11431956   7.017   4.147   0.020  0.2015 -1.5036  0.4701
  262MOL   H11531957   7.088   4.172   0.170 -0.4638  3.3359  0.7722
  262MOL   C11631958   7.237   4.159   0.006  0.0252  0.1392  0.0649
  262MOL   F11731959   7.335   4.250   0.013 -0.1043  0.0172  0.1749
  262MOL   F11831960   7.281   4.054   0.070 -0.6632  0.2008 -0.5615
  262MOL   C11931961   7.220   4.111   8.214  0.2111 -0.5018 -0.2962
  262MOL   H12031962   7.149   4.030   8.202  0.4536 -1.3332  3.2187
  262MOL   H12131963   7.308   4.066   8.168  0.3304 -1.3628  0.7565
  262MOL   H12231964   7.192   4.191   8.145  1.0462 -0.5525 -0.6950
  263MOL     C131965   4.356   0.357   2.096 -0.1233 -0.4705 -0.1692
  263MOL     F231966   4.320   0.477   2.046  0.1064  0.4565  0.0113
  263MOL     F331967   4.472   0.319   2.035 -0.1688  0.0931 -0.1419
  263MOL     C431968   4.235   0.263   2.073  0.0529  0.0955  0.6507
  263MOL     H531969   4.258   0.159   2.098 -0.3717 -0.7497 -2.2809
  263MOL     H631970   4.213   0.254   1.967 -2.6912  1.2070  1.0865
  263MOL     H731971   4.364   0.364   2.205 -2.1851  0.9801 -0.0862
  263MOL     C831972   4.106   0.305   2.152  0.0583  0.1302 -0.5359
  263MOL     F931973   4.137   0.304   2.283  0.0029  0.5083 -0.2501
  263MOL    F1031974   4.084   0.435   2.126  0.2801  0.3232 -0.2421
  263MOL    C1131975   3.977   0.224   2.119  0.6298 -0.4824 -0.2656
  263MOL    H1231976   3.961   0.214   2.011  1.4958  0.0895 -0.4529
  263MOL    H1331977   3.893   0.287   2.150  2.0616  0.4543  1.8505
  263MOL    C1431978   3.962   0.079   2.178  0.5550 -0.0117  0.1728
  263MOL    F1531979   3.870   0.021   2.095  0.4315 -0.0600  0.1875
  263MOL    F1631980   4.079   0.017   2.154  0.1012 -0.0621  0.6462
  263MOL    C1731981   3.905   0.071   2.321  0.0329 -0.0161 -0.2201
  263MOL    H1831982   3.812   0.129   2.320  0.0839  0.0691 -2.0876
  263MOL    H1931983   3.972   0.133   2.380  0.5326 -0.9536  0.2104
  263MOL    C2031984   3.885   8.280   2.389 -0.2803 -0.1242  0.2189
  263MOL    F2131985   3.828   8.306   2.500  0.7202  0.1907 -0.1856
  263MOL    F2231986   3.804   8.202   2.314 -0.1966  0.3926 -0.4211
  263MOL    C2331987   4.024   8.209   2.419  0.1918 -0.3844 -0.1380
  263MOL    H2431988   4.088   8.281   2.470  0.9627 -0.6217 -0.7735
  263MOL    H2531989   4.074   8.199   2.324 -1.2443 -0.5517 -0.8909
  263MOL    C2631990   4.019   8.075   2.480 -0.9104  0.1310 -0.6534
  263MOL    F2731991   3.947   8.077   2.591 -0.1604  0.0872  0.8238
  263MOL    F2831992   3.960   8.004   2.386  0.2150  0.2209  0.0280
  263MOL    C2931993   4.151   8.009   2.515  0.1330  0.2948 -0.3208
  263MOL    H3031994   4.130   7.913   2.563 -2.1433  0.6212 -0.6056
  263MOL    H3131995   4.198   8.057   2.600  0.9191 -2.6594  0.9725
  263MOL    C3231996   4.248   7.985   2.395  0.0483  0.1462  0.4886
  263MOL    F3331997   4.182   7.939   2.287  0.2698 -0.3256  0.0486
  263MOL    F3431998   4.313   8.097   2.369 -0.6409 -0.2458  0.3254
  263MOL    C3531999   4.355   7.875   2.426 -0.6568 -0.2875 -0.4101
  263MOL    H3632000   4.298   7.783   2.440 -0.1565 -0.3133  1.5778
  263MOL    H3732001   4.405   7.904   2.518  0.4729  0.5131 -1.2609
  263MOL    C3832002   4.455   7.857   2.304  0.1485  0.7103 -0.5536
  263MOL    F3932003   4.383   7.807   2.199  0.4026 -0.2520 -0.5247
  263MOL    F4032004   4.520   7.969   2.276 -0.6642  0.6101 -0.1368
  263MOL    C4132005   4.563   7.747   2.315  0.2687  0.1569  0.5947
  263MOL    H4232006   4.629   7.774   2.233 -1.4497  0.7465 -0.6044
  263MOL    H4332007   4.508   7.653   2.305  1.4018 -0.5306  0.7095
  263MOL    C4432008   4.635   7.747   2.459 -0.1588  0.6020 -0.2323
  263MOL    F4532009   4.676   7.869   2.506 -0.0251 -0.3630  0.2652
  263MOL    F4632010   4.546   7.701   2.549  0.1608 -0.2707 -0.5079
  263MOL    C4732011   4.757   7.647   2.461  0.6572  0.1546 -0.1728
  263MOL    H4832012   4.716   7.549   2.436 -0.0579  0.7074 -1.2122
  263MOL    H4932013   4.787   7.628   2.564 -0.4316 -1.6783 -0.1647
  263MOL    C5032014   4.880   7.672   2.374 -0.3802 -0.1166  0.3871
  263MOL    F5132015   4.969   7.575   2.398 -0.7122  0.1366  0.2232
  263MOL    F5232016   4.851   7.668   2.245 -0.0881  0.0687 -0.2511
  263MOL    C5332017   4.952   7.811   2.397 -0.2926 -0.3454  0.5157
  263MOL    H5432018   4.882   7.890   2.368  0.0504 -0.0493  0.4897
  263MOL    H5532019   5.040   7.825   2.333  0.1661 -2.1781  0.7371
  263MOL    C5632020   5.007   7.828   2.541  0.6316  0.0136 -0.6113
  263MOL    F5732021   4.899   7.820   2.620  0.3077  0.0196  0.1897
  263MOL    F5832022   5.089   7.723   2.565  0.1532 -0.0509  0.2235
  263MOL    C5932023   5.076   7.968   2.551  0.3750 -0.0873 -0.3203
  263MOL    H6032024   4.999   8.041   2.526  1.5060  1.1410 -0.3036
  263MOL    H6132025   5.148   7.971   2.469  0.5757 -2.8772 -0.2910
  263MOL    C6232026   5.144   8.001   2.681 -0.1342 -0.0867  0.6577
  263MOL    F6332027   5.060   8.025   2.781  0.0297  0.0606  0.5949
  263MOL    F6432028   5.224   7.898   2.716  0.2860  0.0958  0.1813
  263MOL    C6532029   5.235   8.126   2.670 -0.1289  0.9408 -0.4311
  263MOL    H6632030   5.311   8.110   2.594 -1.2153 -0.8843 -1.1838
  263MOL    H6732031   5.303   8.136   2.755 -1.5699  1.0469  0.7441
  263MOL    C6832032   5.170   8.267   2.647 -0.0890  0.6483 -0.2204
  263MOL    F6932033   5.265   0.009   2.633 -0.3559 -0.1157  0.8066
  263MOL    F7032034   5.101   8.266   2.537  0.5934 -0.3394 -0.3949
  263MOL    C7132035   5.084   8.314   2.766  0.1970 -0.0318  0.4904
  263MOL    H7232036   5.135   8.284   2.858 -0.5785 -3.3207 -0.0829
  263MOL    H7332037   4.994   8.251   2.767  1.0688 -1.2936  1.4418
  263MOL    C7432038   5.021   0.109   2.771  0.6288  0.2220  0.2255
  263MOL    F7532039   5.107   0.196   2.814  0.0351 -0.0537 -0.1900
  263MOL    F7632040   4.985   0.141   2.645 -0.4473 -0.3063 -0.7681
  263MOL    C7732041   4.902   0.117   2.865  0.2671 -0.0431  0.5205
  263MOL    H7832042   4.942   0.098   2.964  0.6612 -0.8181  0.2170
  263MOL    H7932043   4.834   0.035   2.841  0.1545  0.1017  0.3452
  263MOL    C8032044   4.816   0.242   2.849  0.4836 -0.7902 -0.3924
  263MOL    F8132045   4.748   0.231   2.735  0.0376  0.1699 -0.2111
  263MOL    F8232046   4.718   0.256   2.943  0.4323 -0.0860 -0.0435
  263MOL    C8332047   4.895   0.377   2.858 -0.3656 -0.2795  0.2833
  263MOL    H8432048   4.959   0.385   2.770  0.0079  1.9001  0.7177
  263MOL    H8532049   4.960   0.375   2.945  0.8328 -0.2943 -0.5930
  263MOL    C8632050   4.812   0.508   2.854 -0.1623 -1.2032 -0.8113
  263MOL    F8732051   4.750   0.525   2.969 -0.5843 -0.4785  0.2247
  263MOL    F8832052   4.900   0.608   2.836 -0.1834 -0.2028  0.1247
  263MOL    C8932053   4.710   0.504   2.740  0.7501 -0.1395  0.2755
  263MOL    H9032054   4.633   0.431   2.766  2.3296 -1.9770 -0.1135
  263MOL    H9132055   4.752   0.474   2.644 -1.9991 -0.2501 -0.9459
  263MOL    C9232056   4.634   0.634   2.696  0.1095  0.4742 -0.3185
  263MOL    F9332057   4.718   0.685   2.610 -0.4021 -0.7167  0.5669
  263MOL    F9432058   4.519   0.594   2.639 -0.2179  0.1097  0.2226
  263MOL    C9532059   4.606   0.722   2.822  0.1137  0.1027 -0.7045
  263MOL    H9632060   4.695   0.749   2.878 -0.3664  0.3186 -0.0502
  263MOL    H9732061   4.538   0.677   2.894 -1.4531  0.7984 -1.6901
  263MOL    C9832062   4.533   0.863   2.797  0.2194 -0.0896  0.0833
  263MOL    F9932063   4.629   0.943   2.741 -0.2924 -0.2586  0.1264
  263MOL   F10032064   4.430   0.838   2.707  0.6207  0.2283  0.6239
  263MOL   C10132065   4.464   0.915   2.926 -0.4746  0.1982  0.2289
  263MOL   H10232066   4.523   0.893   3.014 -0.1708  1.3660  0.3303
  263MOL   H10332067   4.379   0.847   2.934 -0.6930  0.7373  2.9720
  263MOL   C10432068   4.424   1.065   2.914  0.5862  0.8571 -0.3100
  263MOL   F10532069   4.365   1.079   2.796  0.1493  0.5334 -0.3287
  263MOL   F10632070   4.330   1.082   3.008 -0.1506 -0.0848 -0.2069
  263MOL   C10732071   4.519   1.186   2.939  0.0316 -0.1856  0.0265
  263MOL   H10832072   4.468   1.282   2.936  2.4401  1.2389  2.3099
  263MOL   H10932073   4.600   1.184   2.865 -0.2484 -1.6402 -0.2606
  263MOL   C11032074   4.603   1.183   3.072 -0.2686 -0.6022  0.2794
  263MOL   F11132075   4.675   1.074   3.053  0.0472  0.3605 -0.0322
  263MOL   F11232076   4.699   1.274   3.077  0.0878  0.5333  0.3796
  263MOL   C11332077   4.519   1.187   3.204  0.1486 -0.2607  0.5436
  263MOL   H11432078   4.465   1.093   3.215  0.7707 -0.7547 -0.5959
  263MOL   H11532079   4.441   1.260   3.183 -0.6608 -0.9985  0.9515
  263MOL   C11632080   4.596   1.232   3.340 -0.3021 -1.2198  0.5945
  263MOL   F11732081   4.714   1.172   3.333  0.4220  0.1937  0.1749
  263MOL   F11832082   4.619   1.363   3.336 -0.8179 -0.4642 -0.6503
  263MOL   C11932083   4.511   1.204   3.470 -0.1690 -0.2823  0.2912
  263MOL   H12032084   4.405   1.228   3.469 -0.1851 -0.3849 -0.5194
  263MOL   H12132085   4.549   1.267   3.550  0.1671  0.3042 -0.3305
  263MOL   H12232086   4.515   1.100   3.503 -0.9782 -0.1393  0.8648
  264MOL     C132087   1.167   7.491   0.890  0.5331  0.6974 -0.8069
  264MOL     F232088   1.280   7.426   0.850  0.4748 -0.2226  0.0118
  264MOL     F332089   1.192   7.620   0.916  0.1504  0.2320  0.0438
  264MOL     C432090   1.105   7.411   1.010 -0.2643  0.2072 -0.1430
  264MOL     H532091   1.174   7.421   1.094  3.4077  1.7089 -3.2076
  264MOL     H632092   1.108   7.306   0.984 -1.1504 -0.3587  1.9400
  264MOL     H732093   1.098   7.502   0.807  0.2637  1.6575 -0.4616
  264MOL     C832094   0.964   7.451   1.042 -0.0644  0.2912 -0.4330
  264MOL     F932095   0.958   7.588   1.032 -0.5017 -0.7312 -0.1663
  264MOL    F1032096   0.884   7.414   0.940  0.2412  0.4478 -0.3082
  264MOL    C1132097   0.915   7.398   1.176 -0.6532  0.0346 -0.5477
  264MOL    H1232098   0.982   7.430   1.255  0.0098  0.1182 -1.1391
  264MOL    H1332099   0.926   7.290   1.162 -1.8074 -0.2733  0.8735
  264MOL    C1432100   0.766   7.414   1.220  0.2665  0.5274  0.0384
  264MOL    F1532101   0.729   7.548   1.238  0.2141 -0.0923 -0.5075
  264MOL    F1632102   0.670   7.362   1.133 -0.5019 -0.1403 -0.1203
  264MOL    C1732103   0.747   7.338   1.348  0.5195  0.6260 -0.4509
  264MOL    H1832104   0.810   7.384   1.425  0.1949 -0.0701  0.2453
  264MOL    H1932105   0.785   7.239   1.321 -2.1972 -0.2059 -1.4209
  264MOL    C2032106   0.606   7.316   1.409 -0.1528  0.3531 -0.1396
  264MOL    F2132107   0.544   7.248   1.313 -0.3315 -0.1174 -0.6664
  264MOL    F2232108   0.600   7.238   1.510  0.2500 -0.2048  0.2555
  264MOL    C2332109   0.538   7.445   1.455  0.4580 -0.9070 -0.0667
  264MOL    H2432110   0.501   7.502   1.369  1.1568 -1.3097 -0.6396
  264MOL    H2532111   0.615   7.497   1.512  1.3432 -1.3097 -0.8775
  264MOL    C2632112   0.406   7.433   1.536  0.2080 -0.5026 -0.0194
  264MOL    F2732113   0.421   7.365   1.645 -0.3299  0.8366  0.2612
  264MOL    F2832114   0.361   7.554   1.572 -0.5560  0.3637 -0.3488
  264MOL    C2932115   0.294   7.360   1.463 -0.1641  1.0886 -0.5347
  264MOL    H3032116   0.320   7.254   1.453  0.5682  1.1673  0.3732
  264MOL    H3132117   0.287   7.399   1.362  1.5297  0.1600 -1.0297
  264MOL    C3232118   0.149   7.352   1.519  0.7346  0.1237 -0.3112
  264MOL    F3332119   0.081   7.279   1.431 -0.4264 -0.0630  0.4066
  264MOL    F3432120   0.153   7.292   1.635  0.1638  0.2558 -0.3076
  264MOL    C3532121   0.086   7.492   1.521 -0.0898 -0.9180  0.0850
  264MOL    H3632122   0.131   7.537   1.432  1.2829 -1.3789  0.5326
  264MOL    H3732123   0.123   7.541   1.611  0.2723 -0.6812 -0.1892
  264MOL    C3832124   8.286   7.509   1.515  0.3138  0.4347 -0.1336
  264MOL    F3932125   8.276   7.639   1.495 -0.3155 -0.3650  0.0883
  264MOL    F4032126   8.226   7.452   1.411  0.3131 -0.0308  0.0204
  264MOL    C4132127   8.207   7.467   1.648 -0.5411 -0.3911  0.2907
  264MOL    H4232128   8.251   7.532   1.724  0.6311  0.0501 -0.7544
  264MOL    H4332129   8.218   7.361   1.669 -0.1484 -0.5504 -0.7015
  264MOL    C4432130   8.054   7.493   1.657 -0.0148 -0.5078 -0.2248
  264MOL    F4532131   8.034   7.625   1.629 -0.0423  0.1770  0.1647
  264MOL    F4632132   7.976   7.417   1.573  0.1271 -0.5129  0.1111
  264MOL    C4732133   8.003   7.466   1.802 -0.0639 -0.0469 -0.5090
  264MOL    H4832134   8.075   7.501   1.876 -0.0010  0.4614 -0.8123
  264MOL    H4932135   8.000   7.358   1.817  0.6903  0.0129  0.1117
  264MOL    C5032136   7.868   7.524   1.841  0.6757  0.5970  0.7219
  264MOL    F5132137   7.883   7.657   1.841 -0.5833  0.0273  0.6176
  264MOL    F5232138   7.784   7.483   1.749 -0.4060 -0.2657  0.5895
  264MOL    C5332139   7.827   7.480   1.982 -0.2816 -0.0064 -0.2468
  264MOL    H5432140   7.894   7.514   2.061 -1.4382 -2.4995  1.9180
  264MOL    H5532141   7.858   7.375   1.985  0.5489  0.2551  0.4954
  264MOL    C5632142   7.674   7.483   2.019 -0.2489  0.4370 -0.3468
  264MOL    F5732143   7.645   7.611   2.014 -0.0024  0.5397  0.0365
  264MOL    F5832144   7.606   7.409   1.927 -0.4852 -0.6119  0.2998
  264MOL    C5932145   7.633   7.432   2.161  0.2091 -0.3644 -0.0354
  264MOL    H6032146   7.681   7.336   2.179  1.3988  0.3226  0.5642
  264MOL    H6132147   7.528   7.407   2.169  0.3918 -1.0654  0.2538
  264MOL    C6232148   7.678   7.518   2.280  0.0268  0.4983  1.1257
  264MOL    F6332149   7.667   7.436   2.385 -0.6766  0.3783 -0.3012
  264MOL    F6432150   7.809   7.538   2.267 -0.5597  0.2118 -0.2950
  264MOL    C6532151   7.595   7.642   2.303  0.3728  0.0961  0.1036
  264MOL    H6632152   7.492   7.618   2.327  0.0591  0.8209 -0.4869
  264MOL    H6732153   7.577   7.700   2.212  2.1466  2.4815  1.1935
  264MOL    C6832154   7.648   7.725   2.427  0.0905 -0.1528  0.5482
  264MOL    F6932155   7.644   7.647   2.535 -0.7463 -0.2108 -0.1660
  264MOL    F7032156   7.776   7.768   2.400  0.5344 -0.2059 -0.1314
  264MOL    C7132157   7.548   7.844   2.465 -0.0811  0.0904 -0.3035
  264MOL    H7232158   7.457   7.797   2.503  1.0859 -2.1159 -0.1044
  264MOL    H7332159   7.522   7.882   2.366 -1.9810  0.6286  0.3993
  264MOL    C7432160   7.612   7.961   2.551 -0.4581 -0.0976  0.5443
  264MOL    F7532161   7.706   7.904   2.634 -0.4647  0.0290  0.3205
  264MOL    F7632162   7.686   8.045   2.476  0.0550  0.5312  0.2332
  264MOL    C7732163   7.509   8.041   2.640 -0.5349  0.9342  0.3020
  264MOL    H7832164   7.469   7.971   2.714  0.1392 -0.1854 -0.3787
  264MOL    H7932165   7.427   8.077   2.577  0.2261  1.5988 -0.3151
  264MOL    C8032166   7.556   8.170   2.701  0.3023 -0.0132 -0.9193
  264MOL    F8132167   7.568   8.260   2.600  0.5790 -0.1343  0.3401
  264MOL    F8232168   7.463   8.205   2.783 -0.4059 -0.2352  0.0844
  264MOL    C8332169   7.682   8.166   2.791  0.2160 -0.0157 -0.4530
  264MOL    H8432170   7.773   8.129   2.745  0.6803 -0.5538  0.8618
  264MOL    H8532171   7.674   8.092   2.871 -1.1825  0.3646 -0.2238
  264MOL    C8632172   7.726   8.298   2.866  0.0321  0.5600  0.1582
  264MOL    F8732173   7.621   8.339   2.940 -0.6812 -0.3033 -0.0539
  264MOL    F8832174   7.820   8.274   2.954  0.0775  0.0402  0.3237
  264MOL    C8932175   7.743   0.076   2.775 -0.0833  0.1418 -0.0262
  264MOL    H9032176   7.763   0.159   2.844  0.3025  1.2332 -1.4126
  264MOL    H9132177   7.648   0.086   2.722  0.2281 -0.4763 -0.6988
  264MOL    C9232178   7.860   0.059   2.670 -0.3135  0.0750  0.0906
  264MOL    F9332179   7.838   8.314   2.584 -0.1054  0.2075 -0.3903
  264MOL    F9432180   7.842   0.161   2.592  0.3385  0.2078 -0.0097
  264MOL    C9532181   8.008   0.043   2.722  0.0378  0.1799 -0.1034
  264MOL    H9632182   8.069   0.021   2.634 -1.7647  0.4423 -1.4392
  264MOL    H9732183   8.002   8.314   2.798  1.6824  0.5399  0.4187
  264MOL    C9832184   8.061   0.170   2.793  0.3588  0.3775 -0.5755
  264MOL    F9932185   8.038   0.274   2.723  0.2658  0.2425  0.0457
  264MOL   F10032186   7.990   0.185   2.908  0.1228 -0.0861 -0.1638
  264MOL   C10132187   8.210   0.160   2.834  0.0425 -0.0116 -0.0950
  264MOL   H10232188   8.263   0.161   2.739  1.6888  0.1781  0.8040
  264MOL   H10332189   8.220   0.062   2.881  1.3674 -0.3731 -1.0981
  264MOL   C10432190   8.261   0.269   2.926 -0.0086  1.2623 -0.6003
  264MOL   F10532191   8.241   0.384   2.872  0.2867  0.3702  0.1740
  264MOL   F10632192   8.211   0.267   3.048 -0.0001  0.4542  0.6277
  264MOL   C10732193   0.064   0.257   2.954  0.1352 -0.0897 -0.1362
  264MOL   H10832194   0.092   0.164   3.004  1.4817  0.7011  0.6175
  264MOL   H10932195   0.082   0.342   3.021  2.5500 -0.6049 -0.0766
  264MOL   C11032196   0.164   0.260   2.831 -0.0752  0.3128  0.5930
  264MOL   F11132197   0.140   0.165   2.742  0.0389 -0.2978  0.0969
  264MOL   F11232198   0.158   0.375   2.772 -0.0914  0.1296  0.0030
  264MOL   C11332199   0.305   0.233   2.877 -0.1660 -0.3144  0.7338
  264MOL   H11432200   0.301   0.133   2.919 -1.2593 -1.3135 -1.6224
  264MOL   H11532201   0.314   0.296   2.965  0.4649  0.2788  0.2536
  264MOL   C11632202   0.418   0.245   2.772 -0.3575  0.5583 -0.1388
  264MOL   F11732203   0.404   0.159   2.671 -0.4102 -0.0279  0.2205
  264MOL   F11832204   0.420   0.370   2.728  0.6457 -0.5296  0.2407
  264MOL   C11932205   0.558   0.220   2.830 -0.1962 -0.0523  0.5252
  264MOL   H12032206   0.581   0.117   2.857  1.8588 -0.0992 -1.2559
  264MOL   H12132207   0.575   0.292   2.910  0.9636  0.7829 -0.4651
  264MOL   H12232208   0.644   0.236   2.766 -0.9723  0.9554 -0.2730
  265MOL     C132209   8.174   5.618   4.058  0.2769 -0.1352 -0.2976
  265MOL     F232210   8.187   5.736   4.117 -0.1759 -0.4699  0.3503
  265MOL     F332211   8.190   5.623   3.925 -0.0543  0.1947 -0.4558
  265MOL     C432212   8.034   5.562   4.088 -0.1632 -0.0615  0.5232
  265MOL     H532213   7.953   5.606   4.029 -2.0130 -1.8879  1.6097
  265MOL     H632214   7.996   5.579   4.189 -0.9294  0.3195  0.1764
  265MOL     H732215   8.258   5.558   4.096  1.1112  0.5025 -1.1016
  265MOL     C832216   8.033   5.400   4.094  0.2115 -0.5269  0.8354
  265MOL     F932217   8.042   5.345   3.978 -0.4428 -0.3334  0.1060
  265MOL    F1032218   8.144   5.369   4.166 -0.1780 -0.2303 -0.2862
  265MOL    C1132219   7.919   5.327   4.171  0.1758 -0.8951  0.1751
  265MOL    H1232220   7.911   5.360   4.275 -1.2334 -2.8446  0.7171
  265MOL    H1332221   7.951   5.223   4.175  0.3579 -0.8528 -0.2196
  265MOL    C1432222   7.784   5.336   4.108 -0.6902 -0.0367 -0.6580
  265MOL    F1532223   7.703   5.261   4.187 -0.2646  0.3000 -0.0159
  265MOL    F1632224   7.750   5.465   4.116  0.3998  0.0760 -0.1993
  265MOL    C1732225   7.763   5.277   3.967 -0.5366 -0.0731 -0.5775
  265MOL    H1832226   7.833   5.320   3.896  0.9068 -0.3321  0.6626
  265MOL    H1932227   7.667   5.319   3.937 -0.6788  0.7965  1.0483
  265MOL    C2032228   7.751   5.126   3.947  0.2642  0.3403 -0.7724
  265MOL    F2132229   7.865   5.060   3.969 -0.7298  0.0361  0.0086
  265MOL    F2232230   7.664   5.063   4.032 -0.0514 -0.3128  0.0277
  265MOL    C2332231   7.704   5.073   3.804 -0.0896  0.2204 -0.1387
  265MOL    H2432232   7.607   5.124   3.798  0.1231  0.6156 -0.2222
  265MOL    H2532233   7.681   4.966   3.808  2.1137 -0.3112 -1.2794
  265MOL    C2632234   7.800   5.114   3.690  0.3166 -0.2643 -0.1368
  265MOL    F2732235   7.802   5.245   3.682 -0.0645 -0.3396  0.0554
  265MOL    F2832236   7.927   5.086   3.726  0.3659 -0.4325  0.0233
  265MOL    C2932237   7.772   5.051   3.553  0.2108  0.0773 -0.3779
  265MOL    H3032238   7.671   5.077   3.521  0.3227  2.4767  1.0772
  265MOL    H3132239   7.770   4.943   3.561  0.4161  0.2162  1.8077
  265MOL    C3232240   7.864   5.077   3.433 -0.4344 -0.4833  0.2496
  265MOL    F3332241   7.982   5.027   3.464 -0.0601 -0.0447  0.0650
  265MOL    F3432242   7.826   4.986   3.340  0.2103 -0.1554 -0.2285
  265MOL    C3532243   7.882   5.222   3.377 -0.0361  0.8599  0.4488
  265MOL    H3632244   7.958   5.224   3.299  0.1380 -0.6241  0.5527
  265MOL    H3732245   7.929   5.276   3.459  0.3189  1.4152 -0.1152
  265MOL    C3832246   7.756   5.285   3.321 -0.6591 -0.3693 -0.3901
  265MOL    F3932247   7.688   5.214   3.236 -0.0151  0.2483  0.0072
  265MOL    F4032248   7.662   5.313   3.417  0.3365  0.0714  0.2228
  265MOL    C4132249   7.786   5.423   3.251  0.1631  0.1532  0.3676
  265MOL    H4232250   7.851   5.391   3.169  0.7395  1.7757  0.1867
  265MOL    H4332251   7.849   5.476   3.322 -2.6215  1.9024  1.5902
  265MOL    C4432252   7.671   5.493   3.183 -0.6644  0.4030  0.0634
  265MOL    F4532253   7.611   5.414   3.093  0.0840  0.6455  0.7168
  265MOL    F4632254   7.568   5.527   3.267  0.7661  0.0407  0.7587
  265MOL    C4732255   7.713   5.622   3.101 -0.3235 -0.8721  0.5041
  265MOL    H4832256   7.634   5.674   3.047  0.6769  1.5578  1.2890
  265MOL    H4932257   7.768   5.573   3.020 -2.3964 -0.5632 -1.1235
  265MOL    C5032258   7.800   5.731   3.168 -0.1833 -0.6999  0.2103
  265MOL    F5132259   7.742   5.746   3.288 -0.4732 -0.5269  0.1588
  265MOL    F5232260   7.924   5.677   3.185 -0.3302 -0.1331 -0.3245
  265MOL    C5332261   7.818   5.861   3.089 -0.0710  0.1730  0.2909
  265MOL    H5432262   7.878   5.850   2.999  0.3506  1.5142  0.3867
  265MOL    H5532263   7.877   5.922   3.158  1.6837 -1.7968  0.5600
  265MOL    C5632264   7.700   5.954   3.069  0.1118 -0.5519  0.3254
  265MOL    F5732265   7.618   5.895   2.985  0.1756 -0.1342  1.0367
  265MOL    F5832266   7.638   5.963   3.190 -0.3867  0.2479  0.6066
  265MOL    C5932267   7.724   6.100   3.023  0.3025 -0.0707 -0.4073
  265MOL    H6032268   7.799   6.145   3.089 -1.2608  0.8254  0.8024
  265MOL    H6132269   7.636   6.163   3.030  0.7131  0.6938 -1.9607
  265MOL    C6232270   7.775   6.110   2.874  0.1114  0.0184 -0.4246
  265MOL    F6332271   7.897   6.057   2.865  0.0482  0.4338  0.3349
  265MOL    F6432272   7.687   6.054   2.793  0.7984  0.3505 -0.3883
  265MOL    C6532273   7.785   6.250   2.825 -0.3407  0.0990 -0.2620
  265MOL    H6632274   7.853   6.310   2.884 -0.4496 -0.4692  0.4419
  265MOL    H6732275   7.692   6.305   2.840  0.2397  1.0011 -0.0001
  265MOL    C6832276   7.834   6.276   2.676  0.3692 -0.7415  0.4932
  265MOL    F6932277   7.966   6.240   2.672  0.3331  0.4916 -0.0932
  265MOL    F7032278   7.774   6.204   2.584 -0.1573 -0.4110 -0.7323
  265MOL    C7132279   7.841   6.421   2.621 -0.4180  0.4313  0.2185
  265MOL    H7232280   7.895   6.425   2.527 -3.0458  2.7508 -1.2519
  265MOL    H7332281   7.900   6.484   2.687 -0.8420  1.9766 -0.8532
  265MOL    C7432282   7.702   6.487   2.607 -0.6052 -0.0131 -0.1924
  265MOL    F7532283   7.620   6.405   2.538  0.0873 -0.8027 -0.5382
  265MOL    F7632284   7.639   6.501   2.727  0.3616 -0.2711  0.1780
  265MOL    C7732285   7.713   6.620   2.531  0.0157 -0.2486  0.0661
  265MOL    H7832286   7.769   6.607   2.439 -1.0950 -3.0406 -0.2531
  265MOL    H7932287   7.771   6.683   2.599  1.0612 -1.9774  0.7980
  265MOL    C8032288   7.576   6.694   2.491 -0.7358  0.0017  0.2818
  265MOL    F8132289   7.621   6.793   2.410 -0.2075 -0.2629  0.4064
  265MOL    F8232290   7.505   6.608   2.424  0.3745  0.4967 -0.4435
  265MOL    C8332291   7.501   6.763   2.608 -0.2830  0.0592  0.6941
  265MOL    H8432292   7.571   6.836   2.647 -0.7429  1.1906 -0.5827
  265MOL    H8532293   7.481   6.689   2.686 -3.7168 -1.1507 -1.2193
  265MOL    C8632294   7.372   6.834   2.565  0.8144 -0.1888 -0.4998
  265MOL    F8732295   7.318   6.887   2.676  0.1768  0.6226  0.0213
  265MOL    F8832296   7.405   6.928   2.472  0.1844  0.2221 -0.2779
  265MOL    C8932297   7.247   6.740   2.505  0.1850  0.1826  0.9592
  265MOL    H9032298   7.277   6.704   2.407 -3.3691  1.0622 -0.5368
  265MOL    H9132299   7.160   6.803   2.488 -0.6997 -1.2464  0.0974
  265MOL    C9232300   7.206   6.618   2.592  0.9400  0.1282 -0.0978
  265MOL    F9332301   7.116   6.557   2.514  0.2433 -0.0499  0.5235
  265MOL    F9432302   7.301   6.532   2.606 -0.0758 -0.4794 -0.8596
  265MOL    C9532303   7.145   6.653   2.732  0.0263 -0.0086 -0.0810
  265MOL    H9632304   7.071   6.730   2.715  0.7353  0.8794  0.8110
  265MOL    H9732305   7.225   6.694   2.793 -0.1877  0.9079 -0.4168
  265MOL    C9832306   7.081   6.538   2.803 -0.2622  0.5768 -0.1826
  265MOL    F9932307   6.961   6.503   2.750  0.0124  0.5177  0.1154
  265MOL   F10032308   7.161   6.427   2.804  0.0319 -0.1988 -0.0176
  265MOL   C10132309   7.059   6.562   2.956 -0.0590  0.3374  0.5541
  265MOL   H10232310   7.158   6.543   2.997  0.4461 -0.3880 -0.9672
  265MOL   H10332311   6.997   6.476   2.982 -0.3913  0.2513 -0.5141
  265MOL   C10432312   6.988   6.692   3.011 -0.2302 -0.3167 -0.2806
  265MOL   F10532313   6.970   6.675   3.147  0.1250 -0.0468  0.1225
  265MOL   F10632314   7.079   6.803   3.003  0.3589  0.1891 -0.1183
  265MOL   C10732315   6.854   6.738   2.939  0.3991  0.3158 -0.1311
  265MOL   H10832316   6.780   6.659   2.950 -0.2451  0.8260 -0.7929
  265MOL   H10932317   6.880   6.765   2.836 -0.0814  0.5916 -0.1822
  265MOL   C11032318   6.775   6.863   2.994 -0.3869  0.1610  0.3414
  265MOL   F11132319   6.669   6.888   2.929 -0.1281 -0.0277 -0.4658
  265MOL   F11232320   6.733   6.835   3.117  0.5027 -0.3015 -0.3953
  265MOL   C11332321   6.857   6.994   3.010 -0.4933 -0.5136  0.1052
  265MOL   H11432322   6.927   6.987   3.093  1.7786  1.4339 -1.5412
  265MOL   H11532323   6.798   7.080   3.040 -1.1815  0.0865 -2.8258
  265MOL   C11632324   6.928   7.056   2.886 -0.1628 -0.6490  0.1339
  265MOL   F11732325   7.028   6.984   2.832 -0.3581  0.5532 -0.3163
  265MOL   F11832326   6.839   7.084   2.791  0.1316  0.2147 -0.6404
  265MOL   C11932327   7.002   7.184   2.913 -0.4399  0.1345 -0.1602
  265MOL   H12032328   7.053   7.216   2.822  0.9321 -0.0680  0.5223
  265MOL   H12132329   7.089   7.173   2.978 -0.4971 -0.3545 -0.1664
  265MOL   H12232330   6.933   7.255   2.958  0.6123  0.2885  1.2675
  266MOL     C132331   5.120   7.043   0.165 -0.2184 -0.6281 -0.2224
  266MOL     F232332   5.102   6.966   0.269 -0.0798  0.0399  0.6387
  266MOL     F332333   5.020   7.032   0.081  0.4488  0.5553 -0.6196
  266MOL     C432334   5.256   7.020   0.100 -0.3221 -0.0757 -0.1208
  266MOL     H532335   5.254   6.922   0.052 -0.4423  0.1968 -0.6784
  266MOL     H632336   5.333   7.032   0.176  0.0830 -1.6572 -0.2624
  266MOL     H732337   5.114   7.148   0.194 -1.8317 -0.6448 -0.4678
  266MOL     C832338   5.288   7.127   8.345  0.4584  0.7804 -0.1216
  266MOL     F932339   5.186   7.138   8.256  0.4110  0.2356  0.0609
  266MOL    F1032340   5.296   7.244   0.063  0.2044  0.0664 -0.2079
  266MOL    C1132341   5.420   7.098   8.267  0.3594 -0.1644  0.4192
  266MOL    H1232342   5.423   7.006   8.209  1.9140  0.4843 -0.5443
  266MOL    H1332343   5.501   7.099   8.340  0.4286  1.3165  0.3416
  266MOL    C1432344   5.454   7.207   8.165 -0.4944  0.5281  0.0518
  266MOL    F1532345   5.580   7.176   8.131  0.1192  0.4899 -0.3274
  266MOL    F1632346   5.372   7.189   8.057  0.5999  0.2446  0.6345
  266MOL    C1732347   5.453   7.353   8.216  0.1302  0.2479 -0.5031
  266MOL    H1832348   5.516   7.349   8.305 -0.2539  0.1086 -0.2328
  266MOL    H1932349   5.349   7.384   8.227  0.6887  1.4944  1.5099
  266MOL    C2032350   5.509   7.461   8.127  0.9188  0.0143  0.2381
  266MOL    F2132351   5.641   7.451   8.097 -0.9805 -0.4503 -0.2130
  266MOL    F2232352   5.444   7.451   8.007  0.1384  0.1037  0.0872
  266MOL    C2332353   5.502   7.606   8.169  0.0661  0.8729  0.2068
  266MOL    H2432354   5.566   7.660   8.099  0.3601  0.8313  0.4414
  266MOL    H2532355   5.529   7.612   8.274  0.1592 -0.3375  0.2627
  266MOL    C2632356   5.366   7.677   8.157 -0.2670 -0.4038  0.8300
  266MOL    F2732357   5.330   7.681   8.032  0.8430  0.6372 -0.0514
  266MOL    F2832358   5.275   7.607   8.219  0.1246 -0.1337  0.3183
  266MOL    C2932359   5.361   7.826   8.206  0.1326 -0.6987  0.3570
  266MOL    H3032360   5.361   7.826   8.315 -1.7004 -0.1921  0.3753
  266MOL    H3132361   5.272   7.871   8.160 -0.5550 -0.6150  1.7322
  266MOL    C3232362   5.478   7.920   8.166 -0.2023 -0.5843 -0.1125
  266MOL    F3332363   5.586   7.866   8.211 -0.3115 -0.1267  0.6723
  266MOL    F3432364   5.497   7.921   8.039  1.1836 -0.0384  0.1958
  266MOL    C3532365   5.461   8.062   8.227 -0.5524 -0.0443 -0.4109
  266MOL    H3632366   5.457   8.054   8.335 -1.7321 -0.4519 -0.4755
  266MOL    H3732367   5.360   8.089   8.198 -0.5534  0.6319  0.1989
  266MOL    C3832368   5.568   8.165   8.175 -0.6847  0.2401  0.6348
  266MOL    F3932369   5.684   8.120   8.205 -0.5863  0.4572 -0.0207
  266MOL    F4032370   5.558   8.172   8.041 -0.0950  0.3326 -0.2366
  266MOL    C4132371   5.557   8.306   8.237  0.7641  0.3650 -0.0295
  266MOL    H4232372   5.551   8.302   8.345  0.4494  2.1814  0.0303
  266MOL    H4332373   5.466   0.002   8.199  0.4675 -0.0755  0.1459
  266MOL    C4432374   5.673   0.056   8.205 -0.6572 -0.0350  1.2940
  266MOL    F4532375   5.785   0.016   8.266  0.3424  0.3944 -0.9338
  266MOL    F4632376   5.699   0.045   8.074 -0.4420  0.1593  0.3571
  266MOL    C4732377   5.655   0.207   8.247 -0.2291 -0.0211 -0.2376
  266MOL    H4832378   5.740   0.276   8.250  0.0100 -0.3092 -0.5138
  266MOL    H4932379   5.632   0.205   0.004 -0.1405  2.4213 -0.1419
  266MOL    C5032380   5.549   0.299   8.173  0.0751 -0.5613  0.7786
  266MOL    F5132381   5.428   0.239   8.192 -0.3227  0.0550  0.7281
  266MOL    F5232382   5.552   0.426   8.222 -0.7104 -0.5459  0.7156
  266MOL    C5332383   5.561   0.307   8.020 -0.5577 -0.1898 -0.3138
  266MOL    H5432384   5.476   0.361   7.977  0.5794  1.6238 -0.3180
  266MOL    H5532385   5.546   0.204   7.986  2.7538 -0.6321 -0.6084
  266MOL    C5632386   5.686   0.367   7.965 -0.0860 -0.0785 -0.2150
  266MOL    F5732387   5.673   0.495   7.996  0.3432  0.2362  0.1603
  266MOL    F5832388   5.797   0.317   8.014 -0.1571 -0.0354  0.3240
  266MOL    C5932389   5.691   0.356   7.810 -0.5016 -0.6240  0.1339
  266MOL    H6032390   5.597   0.385   7.763 -1.3905 -3.8849 -0.2231
  266MOL    H6132391   5.703   0.250   7.787  2.4009 -0.6199  1.3507
  266MOL    C6232392   5.798   0.430   7.730  0.1335 -0.7555 -0.6015
  266MOL    F6332393   5.922   0.397   7.768  0.1314 -0.1913 -0.0655
  266MOL    F6432394   5.784   0.386   7.613  0.1530  0.1787  0.3345
  266MOL    C6532395   5.781   0.581   7.722  0.2792  0.1346 -0.2014
  266MOL    H6632396   5.793   0.630   7.819 -2.8123  0.8228 -0.1044
  266MOL    H6732397   5.674   0.601   7.713  0.2951  0.5177  0.4284
  266MOL    C6832398   5.852   0.658   7.605 -0.6673  0.1483 -1.0468
  266MOL    F6932399   5.798   0.613   7.492  0.1932 -0.1324 -0.2501
  266MOL    F7032400   5.820   0.789   7.615  0.5113  0.4614 -0.5685
  266MOL    C7132401   6.005   0.645   7.613 -0.6503 -0.2058 -0.5986
  266MOL    H7232402   6.041   0.546   7.589 -1.7099 -0.0966 -2.7028
  266MOL    H7332403   6.034   0.664   7.717  1.4606 -1.7892 -0.8745
  266MOL    C7432404   6.091   0.742   7.525 -0.4079 -0.5997  0.3133
  266MOL    F7532405   6.073   0.870   7.552 -0.0990 -0.7589  0.0022
  266MOL    F7632406   6.222   0.711   7.542  0.2309  0.2667 -0.6133
  266MOL    C7732407   6.075   0.728   7.375  0.0168 -1.0757  0.4725
  266MOL    H7832408   5.970   0.740   7.349 -0.1756 -2.6010  0.5140
  266MOL    H7932409   6.099   0.623   7.362 -0.4631 -0.9474 -1.6056
  266MOL    C8032410   6.159   0.820   7.272 -0.6269 -0.1217  0.3708
  266MOL    F8132411   6.092   0.794   7.157  0.0342 -0.2050  0.2272
  266MOL    F8232412   6.157   0.947   7.303 -0.2382  0.3242  0.1485
  266MOL    C8332413   6.311   0.780   7.254  0.2177  0.0259 -0.6901
  266MOL    H8432414   6.327   0.673   7.242  0.7587  0.0948 -0.6252
  266MOL    H8532415   6.359   0.777   7.352  0.2482  0.1757 -0.6988
  266MOL    C8632416   6.406   0.836   7.141  0.2152 -0.1623 -0.2392
  266MOL    F8732417   6.395   0.970   7.146 -0.2225  0.2922 -0.4184
  266MOL    F8832418   6.532   0.796   7.166 -0.0180  0.1152  0.2418
  266MOL    C8932419   6.363   0.788   7.003  0.6099 -0.1291 -0.3177
  266MOL    H9032420   6.418   0.843   6.926 -0.4669 -0.0279 -1.0287
  266MOL    H9132421   6.262   0.820   6.980 -0.3026 -3.1686 -0.8274
  266MOL    C9232422   6.372   0.635   6.970 -0.7360  0.5590 -0.8247
  266MOL    F9332423   6.480   0.589   7.035  0.6156 -0.0315  0.0180
  266MOL    F9432424   6.257   0.589   7.029 -0.2583 -0.1692 -0.0348
  266MOL    C9532425   6.369   0.601   6.820 -0.8272  0.1705 -0.1515
  266MOL    H9632426   6.451   0.658   6.777 -0.5246 -0.5753 -0.5716
  266MOL    H9732427   6.275   0.636   6.778 -0.9070 -0.0592 -0.1640
  266MOL    C9832428   6.395   0.453   6.794 -0.0951 -0.7617  0.0674
  266MOL    F9932429   6.492   0.410   6.863 -0.1454 -0.0777 -0.2592
  266MOL   F10032430   6.280   0.390   6.841  0.6112 -0.3689  0.0808
  266MOL   C10132431   6.414   0.448   6.638 -0.5660  0.0114  0.2197
  266MOL   H10232432   6.500   0.510   6.611 -0.9949  0.0159 -1.2223
  266MOL   H10332433   6.330   0.496   6.587 -0.4034  1.1004  0.9740
  266MOL   C10432434   6.418   0.310   6.571 -0.3873  0.2511  0.3571
  266MOL   F10532435   6.439   0.322   6.443  0.1678  0.1692  0.4321
  266MOL   F10632436   6.519   0.253   6.636  0.6482  0.0628 -0.0360
  266MOL   C10732437   6.285   0.224   6.581 -0.3356 -0.3031 -0.3713
  266MOL   H10832438   6.207   0.301   6.577  0.7144  0.9257  2.0129
  266MOL   H10932439   6.277   0.188   6.683  3.0856 -0.5569 -0.1505
  266MOL   C11032440   6.280   0.102   6.488  0.5143  0.1244  0.3143
  266MOL   F11132441   6.274   0.139   6.358  0.6758 -0.0050 -0.3811
  266MOL   F11232442   6.381   0.019   6.512  0.4341  0.3413 -0.0361
  266MOL   C11332443   6.146   0.020   6.509  0.2139  0.1524  0.3837
  266MOL   H11432444   6.147   8.347   6.616  0.6306 -2.3973 -0.1424
  266MOL   H11532445   6.176   8.274   6.466 -1.0426 -0.6161  1.1914
  266MOL   C11632446   6.007   0.081   6.462  0.3444 -0.4997  0.6090
  266MOL   F11732447   5.980   0.186   6.534  0.5996  0.0895  0.5490
  266MOL   F11832448   6.005   0.117   6.334 -0.1627 -0.0283  0.0653
  266MOL   C11932449   5.900   8.321   6.481  0.1612  0.0689 -0.1206
  266MOL   H12032450   5.892   8.298   6.587  2.6587  0.3976  0.1717
  266MOL   H12132451   5.916   8.226   6.430 -1.3807 -0.0691 -0.3401
  266MOL   H12232452   5.800   0.000   6.451  0.7703 -0.7387 -3.1079
  267MOL     C132453   2.050   8.101   4.038  0.2356 -0.7706 -0.0153
  267MOL     F232454   1.958   8.017   4.080  0.2165  0.0566 -0.4278
  267MOL     F332455   2.152   8.019   4.030  0.0459  0.0604 -0.6530
  267MOL     C432456   2.078   8.213   4.136  0.5699 -0.6628 -0.3122
  267MOL     H532457   2.081   8.173   4.237 -0.5480 -1.6565 -0.6520
  267MOL     H632458   1.992   8.279   4.137  1.2909  0.2986 -0.5695
  267MOL     H732459   2.029   8.139   3.938  1.8312  2.1490  0.7055
  267MOL     C832460   2.193   8.310   4.102  0.1213 -0.0984  0.4019
  267MOL     F932461   2.178   0.017   3.981  0.2610 -0.3053  0.5273
  267MOL    F1032462   2.191   0.069   4.188 -0.1091  0.5357 -0.6449
  267MOL    C1132463   2.332   8.246   4.118 -0.2416 -0.1448 -0.4147
  267MOL    H1232464   2.338   8.162   4.049 -2.7404 -3.0658  2.7799
  267MOL    H1332465   2.330   8.202   4.217 -0.0226  0.5644 -0.0927
  267MOL    C1432466   2.463   8.335   4.095  0.2842  0.8027  0.6703
  267MOL    F1532467   2.475   0.016   3.963 -0.0425 -0.6735 -0.5189
  267MOL    F1632468   2.452   0.100   4.159 -0.1893 -0.7389  0.2719
  267MOL    C1732469   2.587   8.260   4.144 -0.4377 -0.5688  0.3386
  267MOL    H1832470   2.588   8.170   4.082 -0.0787  0.3964 -1.0933
  267MOL    H1932471   2.578   8.253   4.252 -0.7567  0.8398  0.4125
  267MOL    C2032472   2.728   8.332   4.123 -0.1295  0.3517  0.0747
  267MOL    F2132473   2.824   8.258   4.180 -0.1549  0.0589  0.0135
  267MOL    F2232474   2.758   8.337   3.993 -0.0650 -0.3071 -0.1322
  267MOL    C2332475   2.731   0.123   4.179  0.3641 -0.2994 -0.7873
  267MOL    H2432476   2.709   0.127   4.286  1.3775  0.1870 -0.5987
  267MOL    H2532477   2.655   0.181   4.126 -1.9578 -2.3388  0.1645
  267MOL    C2632478   2.856   0.209   4.165 -0.5476 -0.0896 -0.6706
  267MOL    F2732479   2.890   0.225   4.039 -0.3778 -0.1812 -0.0599
  267MOL    F2832480   2.825   0.332   4.215 -0.0664  0.2563  0.1800
  267MOL    C2932481   2.981   0.170   4.246 -0.0106  0.0202  0.1660
  267MOL    H3032482   2.997   0.062   4.233  2.1803  0.1655  1.3751
  267MOL    H3132483   2.948   0.171   4.350 -0.8788 -0.4614 -0.0965
  267MOL    C3232484   3.111   0.242   4.226  0.2390 -0.2600 -0.3828
  267MOL    F3332485   3.161   0.233   4.104 -0.2123 -0.1176 -0.1175
  267MOL    F3432486   3.095   0.371   4.262 -0.0240 -0.4874 -0.4783
  267MOL    C3532487   3.216   0.183   4.317 -0.8513 -0.3694 -0.7950
  267MOL    H3632488   3.222   0.080   4.281 -0.1520 -0.7717  0.4491
  267MOL    H3732489   3.168   0.180   4.415  0.7468 -0.8040  0.0001
  267MOL    C3832490   3.363   0.235   4.319  0.4589  0.2852  0.1376
  267MOL    F3932491   3.439   0.141   4.372 -0.0796  0.1141  0.4133
  267MOL    F4032492   3.408   0.249   4.191 -0.3652 -0.3831 -0.6917
  267MOL    C4132493   3.394   0.365   4.392 -0.0738  0.0648  0.3995
  267MOL    H4232494   3.365   0.451   4.332 -0.4501 -0.8792 -0.7981
  267MOL    H4332495   3.503   0.363   4.399 -0.0837 -2.8797  0.5880
  267MOL    C4432496   3.341   0.369   4.531 -0.2362 -0.4932 -0.0253
  267MOL    F4532497   3.217   0.405   4.516  0.3564  0.2510  0.0773
  267MOL    F4632498   3.352   0.254   4.596 -0.6327  0.0736  0.0115
  267MOL    C4732499   3.408   0.487   4.604 -0.1071  0.6326  0.5565
  267MOL    H4832500   3.416   0.572   4.535 -0.6073  0.2243 -0.0098
  267MOL    H4932501   3.513   0.461   4.615 -0.6932 -1.6981  0.8889
  267MOL    C5032502   3.354   0.541   4.735 -0.6966 -1.0910 -0.1536
  267MOL    F5132503   3.227   0.574   4.715 -0.0919 -0.3806 -0.2431
  267MOL    F5232504   3.352   0.440   4.823  0.2715 -0.5064  0.3438
  267MOL    C5332505   3.438   0.661   4.795 -0.8796  0.6983  0.4316
  267MOL    H5432506   3.534   0.619   4.825 -1.8761 -1.1181  1.2334
  267MOL    H5532507   3.404   0.685   4.896  0.3331 -0.5051  1.1568
  267MOL    C5632508   3.464   0.784   4.700 -0.5987 -0.3661 -0.0007
  267MOL    F5732509   3.524   0.871   4.775  0.1575 -0.0391 -0.4201
  267MOL    F5832510   3.549   0.761   4.597 -0.0303 -0.3558  0.0974
  267MOL    C5932511   3.349   0.853   4.626  0.2986 -1.2101  0.1763
  267MOL    H6032512   3.296   0.780   4.564 -0.8239 -0.4405  0.2084
  267MOL    H6132513   3.388   0.932   4.562  0.4261 -0.9536  0.5735
  267MOL    C6232514   3.247   0.928   4.712 -0.1209 -1.1213 -0.4006
  267MOL    F6332515   3.189   0.829   4.782  0.6461 -0.2544 -0.1202
  267MOL    F6432516   3.303   1.021   4.789  0.2243 -0.0663 -0.4806
  267MOL    C6532517   3.139   0.998   4.623 -0.1449 -0.4720  0.5290
  267MOL    H6632518   3.078   0.923   4.573  1.1872 -1.3826  0.2232
  267MOL    H6732519   3.185   1.061   4.546  1.8194 -0.2359  1.8460
  267MOL    C6832520   3.031   1.086   4.698 -0.5807  0.1635  0.4564
  267MOL    F6932521   3.099   1.196   4.741  0.0490 -0.3316  0.2903
  267MOL    F7032522   2.940   1.119   4.612 -0.0069 -0.2162 -0.0050
  267MOL    C7132523   2.960   1.005   4.803 -0.0249  0.2382 -0.3642
  267MOL    H7232524   3.044   0.996   4.871 -0.3689 -1.1325 -0.0948
  267MOL    H7332525   2.941   0.912   4.750  1.2312  0.2665 -0.8955
  267MOL    C7432526   2.824   1.054   4.865 -0.3940  0.0231 -0.3696
  267MOL    F7532527   2.841   1.185   4.908 -0.0198 -0.5866  0.8869
  267MOL    F7632528   2.735   1.057   4.765  0.7184  0.5813 -0.2288
  267MOL    C7732529   2.766   0.969   4.984 -0.1185  0.2146 -0.1284
  267MOL    H7832530   2.683   1.021   5.031  0.5483  0.8455  0.3726
  267MOL    H7932531   2.837   0.973   5.067  0.0703  3.8374 -0.3680
  267MOL    C8032532   2.719   0.819   4.965  0.4084  0.6117 -0.2390
  267MOL    F8132533   2.826   0.741   4.943  0.6217  0.0598  0.2029
  267MOL    F8232534   2.647   0.785   5.071  0.3735  0.3006 -0.4681
  267MOL    C8332535   2.622   0.802   4.849  0.5798 -0.2922  0.0401
  267MOL    H8432536   2.669   0.818   4.752 -0.4854  2.2855 -0.1117
  267MOL    H8532537   2.558   0.890   4.861 -0.8045 -1.2617 -0.1391
  267MOL    C8632538   2.518   0.686   4.849 -0.3464 -0.0419 -0.8633
  267MOL    F8732539   2.592   0.574   4.871  0.3449  0.1749 -0.4234
  267MOL    F8832540   2.434   0.687   4.956 -0.2666 -0.0591  0.0328
  267MOL    C8932541   2.426   0.682   4.726 -0.1243 -0.0006  0.6638
  267MOL    H9032542   2.358   0.600   4.748 -0.3721  0.1955  0.6288
  267MOL    H9132543   2.484   0.636   4.646 -2.5658  1.2229 -1.8338
  267MOL    C9232544   2.344   0.811   4.686 -1.0077  0.5210 -0.2968
  267MOL    F9332545   2.418   0.909   4.634 -0.9122 -0.2844 -0.1396
  267MOL    F9432546   2.254   0.769   4.593 -0.3814  0.3038 -0.5634
  267MOL    C9532547   2.265   0.862   4.805 -0.3261  0.0449  0.2922
  267MOL    H9632548   2.338   0.895   4.878 -1.6200 -1.4163  2.2959
  267MOL    H9732549   2.215   0.784   4.862 -0.4656  0.8402  1.2670
  267MOL    C9832550   2.160   0.980   4.791 -0.2764  0.2801 -0.0371
  267MOL    F9932551   2.069   0.953   4.701  0.4565 -0.3134 -0.0846
  267MOL   F10032552   2.103   0.974   4.913  0.3384  0.0360 -0.2222
  267MOL   C10132553   2.239   1.109   4.768 -0.7210 -0.1475  0.7262
  267MOL   H10232554   2.295   1.096   4.675 -0.8982 -1.2423  0.7669
  267MOL   H10332555   2.325   1.111   4.834  0.7400  4.3966 -1.1082
  267MOL   C10432556   2.166   1.248   4.794 -0.3559  0.7297  0.7695
  267MOL   F10532557   2.130   1.244   4.926 -0.1090  0.1952  0.2342
  267MOL   F10632558   2.244   1.355   4.773  0.1398  0.0273 -0.0417
  267MOL   C10732559   2.035   1.254   4.713  0.2516 -0.5023 -0.9562
  267MOL   H10832560   1.990   1.345   4.753 -1.4873 -2.0570  0.8099
  267MOL   H10932561   1.970   1.171   4.743  0.5390  0.3016  2.0756
  267MOL   C11032562   2.047   1.254   4.561 -0.1328  0.2157  0.5040
  267MOL   F11132563   2.118   1.362   4.535 -0.4273 -0.0440  0.7109
  267MOL   F11232564   2.120   1.150   4.524 -0.1018  0.2209  0.2600
  267MOL   C11332565   1.916   1.244   4.474 -0.2476 -0.0019  0.0813
  267MOL   H11432566   1.877   1.142   4.483  2.5569 -1.3091 -1.9397
  267MOL   H11532567   1.951   1.245   4.370 -1.0219  2.0933 -0.1743
  267MOL   C11632568   1.813   1.359   4.501 -0.0764  0.6147 -0.8756
  267MOL   F11732569   1.768   1.353   4.623 -0.3647 -0.2705 -0.1000
  267MOL   F11832570   1.875   1.473   4.493 -0.3303  0.4328 -0.0497
  267MOL   C11932571   1.697   1.345   4.396  0.0538  0.1282  0.1505
  267MOL   H12032572   1.668   1.240   4.400 -0.2906  0.1184 -2.0611
  267MOL   H12132573   1.724   1.363   4.292 -0.9475 -1.1671 -0.3464
  267MOL   H12232574   1.611   1.407   4.421  0.3460  0.8691 -0.6532
  268MOL     C132575   6.632   2.042   2.290  0.7322 -0.8834  0.2640
  268MOL     F232576   6.518   1.977   2.308  0.6413 -0.1934  0.2944
  268MOL     F332577   6.667   2.025   2.162  0.2111  0.4331 -0.3009
  268MOL     C432578   6.743   2.006   2.386  0.5925  0.0453 -0.1809
  268MOL     H532579   6.723   2.038   2.488  2.0273  1.4098 -0.3096
  268MOL     H632580   6.835   2.058   2.360  1.1810 -1.0502 -0.2975
  268MOL     H732581   6.613   2.149   2.298 -1.1542 -1.1849  0.1999
  268MOL     C832582   6.785   1.854   2.388 -0.3422 -0.3000 -0.2017
  268MOL     F932583   6.886   1.843   2.479 -0.9651 -0.0604 -0.1030
  268MOL    F1032584   6.682   1.779   2.423 -0.0787  0.7599  0.2790
  268MOL    C1132585   6.847   1.793   2.255  0.0277  0.0084 -0.7934
  268MOL    H1232586   6.768   1.778   2.181 -0.3911 -0.8394 -0.1913
  268MOL    H1332587   6.879   1.694   2.288 -2.1253 -1.0423 -1.7371
  268MOL    C1432588   6.980   1.851   2.196  0.3376 -0.6549  0.1289
  268MOL    F1532589   6.990   1.795   2.078  0.1116  0.1607  0.0862
  268MOL    F1632590   6.973   1.982   2.181 -0.3530 -0.2912  0.1522
  268MOL    C1732591   7.112   1.822   2.268 -0.0876 -0.3286  0.1003
  268MOL    H1832592   7.129   1.714   2.259  0.2013 -0.2729 -0.0426
  268MOL    H1932593   7.109   1.845   2.374  0.5574 -1.8147  0.4575
  268MOL    C2032594   7.231   1.905   2.217 -0.4511 -0.5453 -0.1064
  268MOL    F2132595   7.233   1.909   2.082 -0.4552  0.5038 -0.2598
  268MOL    F2232596   7.227   2.028   2.263 -0.1936 -0.4721  0.1265
  268MOL    C2332597   7.367   1.844   2.255 -0.0737 -0.3833  0.3136
  268MOL    H2432598   7.376   1.746   2.207  1.9226 -0.0137 -0.1113
  268MOL    H2532599   7.363   1.839   2.364  0.1888  1.1935  0.4064
  268MOL    C2632600   7.491   1.916   2.196 -0.0462 -0.5455  0.4500
  268MOL    F2732601   7.506   1.893   2.066  0.1925 -0.5034 -0.4324
  268MOL    F2832602   7.479   2.054   2.215 -0.0955  0.0951  0.4136
  268MOL    C2932603   7.622   1.876   2.266 -0.5859  0.2490  0.6852
  268MOL    H3032604   7.643   1.775   2.231  1.3458  1.1562 -0.8577
  268MOL    H3132605   7.611   1.878   2.375  0.2556  2.0645  0.7620
  268MOL    C3232606   7.755   1.955   2.237 -0.3899  0.4975  0.1110
  268MOL    F3332607   7.790   1.939   2.111 -0.1743  0.0964 -0.6080
  268MOL    F3432608   7.735   2.081   2.259 -0.6345  0.1544  0.0623
  268MOL    C3532609   7.869   1.918   2.329  0.0986  0.4020 -0.2167
  268MOL    H3632610   7.829   1.946   2.426 -0.5079 -2.0321  0.2697
  268MOL    H3732611   7.951   1.982   2.298  1.2808 -0.5039  0.9554
  268MOL    C3832612   7.910   1.771   2.319 -0.2454 -0.6609  0.5204
  268MOL    F3932613   7.821   1.689   2.370  0.3837 -0.4511 -0.2106
  268MOL    F4032614   7.941   1.746   2.190  0.0252  0.4131  0.1382
  268MOL    C4132615   8.042   1.741   2.397 -0.1884  0.1057 -0.3136
  268MOL    H4232616   8.120   1.798   2.347 -0.3213 -0.2714 -0.9546
  268MOL    H4332617   8.072   1.636   2.390 -1.6551 -0.4413  1.1171
  268MOL    C4432618   8.045   1.775   2.551 -0.1351 -0.2065  0.0450
  268MOL    F4532619   8.169   1.742   2.597  0.7614 -0.2127  0.1595
  268MOL    F4632620   8.034   1.910   2.561  0.1815  0.3976 -0.2284
  268MOL    C4732621   7.929   1.716   2.633 -0.2208  1.0158 -0.1114
  268MOL    H4832622   7.911   1.609   2.618  0.5314  0.9539 -0.5845
  268MOL    H4932623   7.834   1.761   2.604 -0.2182  2.1087  1.5712
  268MOL    C5032624   7.943   1.746   2.780  0.2190  0.2993 -0.8084
  268MOL    F5132625   8.050   1.684   2.833 -0.4608  0.1328  0.3174
  268MOL    F5232626   7.946   1.880   2.795 -0.0961  0.0877 -0.4469
  268MOL    C5332627   7.820   1.694   2.851  0.5937  0.0417 -0.1098
  268MOL    H5432628   7.798   1.587   2.845  0.3314  0.1856 -1.8964
  268MOL    H5532629   7.728   1.730   2.805  0.6383 -0.1271 -0.3364
  268MOL    C5632630   7.803   1.724   2.998  0.0527 -0.6324 -0.7509
  268MOL    F5732631   7.912   1.696   3.084  0.0342  0.1060  0.2016
  268MOL    F5832632   7.784   1.859   3.008 -0.3180 -0.1905 -0.0104
  268MOL    C5932633   7.680   1.649   3.065 -0.4233  0.2527 -0.6650
  268MOL    H6032634   7.688   1.672   3.171  0.3478  1.4231 -0.9653
  268MOL    H6132635   7.700   1.543   3.054 -0.3465  0.1970  0.0283
  268MOL    C6232636   7.544   1.697   3.027  0.2184 -0.3450 -0.2404
  268MOL    F6332637   7.528   1.830   3.052 -0.4278  0.1112  0.5951
  268MOL    F6432638   7.524   1.676   2.901  0.7466 -0.1179 -0.2557
  268MOL    C6532639   7.429   1.633   3.118 -0.1263 -0.2200  0.4627
  268MOL    H6632640   7.336   1.675   3.079  1.3256  1.5690 -1.2371
  268MOL    H6732641   7.430   1.671   3.220 -1.2558  0.1068  0.3637
  268MOL    C6832642   7.425   1.478   3.130  0.0707 -0.3819 -0.6105
  268MOL    F6932643   7.429   1.438   3.002 -0.7068  0.1840 -0.3728
  268MOL    F7032644   7.531   1.423   3.197 -0.8880 -0.6899  0.1770
  268MOL    C7132645   7.297   1.424   3.192 -0.2729 -0.1132 -0.0046
  268MOL    H7232646   7.312   1.316   3.194  2.2485  0.2135  0.4129
  268MOL    H7332647   7.209   1.431   3.129 -1.7665 -2.5779  1.7178
  268MOL    C7432648   7.253   1.471   3.329 -0.7227  0.4091  0.4870
  268MOL    F7532649   7.359   1.475   3.407 -0.2603  0.1739 -0.2743
  268MOL    F7632650   7.210   1.591   3.306  0.4787 -0.1792 -0.5790
  268MOL    C7732651   7.131   1.390   3.384  0.0516  0.4487 -0.6552
  268MOL    H7832652   7.163   1.290   3.414 -1.7363  0.4386  1.2971
  268MOL    H7932653   7.052   1.359   3.315 -0.9668 -0.1444  0.7489
  268MOL    C8032654   7.060   1.457   3.507  0.6699 -0.5827  0.6615
  268MOL    F8132655   7.016   1.574   3.468 -0.3233 -0.0399  0.4890
  268MOL    F8232656   6.951   1.389   3.527 -0.4024 -0.3838  0.4883
  268MOL    C8332657   7.139   1.469   3.639 -0.2209 -0.2311 -0.0909
  268MOL    H8432658   7.076   1.525   3.707  1.6413  0.2763  1.2429
  268MOL    H8532659   7.222   1.538   3.622 -1.2050  1.4613  1.8512
  268MOL    C8632660   7.189   1.339   3.706 -0.1437 -0.1498  1.1393
  268MOL    F8732661   7.093   1.252   3.695  0.1818 -0.1771 -0.0456
  268MOL    F8832662   7.291   1.283   3.641 -0.4074  0.2260  0.1249
  268MOL    C8932663   7.220   1.366   3.856 -0.0976 -0.3080  0.2568
  268MOL    H9032664   7.256   1.286   3.921 -2.0104 -1.0710  0.3910
  268MOL    H9132665   7.130   1.409   3.900  0.2615  0.2922  0.4183
  268MOL    C9232666   7.336   1.463   3.881  0.2107  0.1444 -0.1197
  268MOL    F9332667   7.441   1.423   3.805 -0.0126 -0.3525 -0.3186
  268MOL    F9432668   7.304   1.587   3.846 -0.1960 -0.4622 -0.5330
  268MOL    C9532669   7.381   1.477   4.028 -0.4527 -0.5915  0.2148
  268MOL    H9632670   7.455   1.556   4.019 -0.3514 -0.6499  0.5227
  268MOL    H9732671   7.430   1.385   4.059  2.2002  0.8947  0.5492
  268MOL    C9832672   7.274   1.520   4.126 -0.0165  0.1658 -0.1755
  268MOL    F9932673   7.214   1.625   4.072 -0.4471  0.1851 -0.0832
  268MOL   F10032674   7.175   1.428   4.149 -0.2706 -0.0053 -0.1181
  268MOL   C10132675   7.324   1.562   4.270  0.0137  0.9163  0.6136
  268MOL   H10232676   7.400   1.639   4.260 -1.0315  1.6485 -2.1003
  268MOL   H10332677   7.370   1.474   4.315 -3.1200 -1.2047 -0.1246
  268MOL   C10432678   7.219   1.607   4.371 -0.3555 -0.3816 -0.8713
  268MOL   F10532679   7.132   1.509   4.384 -0.3806  0.0863 -0.4494
  268MOL   F10632680   7.281   1.630   4.486 -0.3640  0.5605 -0.4002
  268MOL   C10732681   7.150   1.743   4.336  0.0752  0.5902 -0.0550
  268MOL   H10832682   7.094   1.741   4.242 -1.0979 -0.1644  0.6483
  268MOL   H10932683   7.220   1.825   4.317  2.3772 -1.3233 -0.0959
  268MOL   C11032684   7.050   1.786   4.441  1.4302 -0.9173  0.5889
  268MOL   F11132685   7.105   1.799   4.558 -0.2993  0.0285  0.6522
  268MOL   F11232686   7.032   1.914   4.403  0.0776  0.5448  0.0625
  268MOL   C11332687   6.913   1.721   4.453  0.1437 -0.6512  0.3394
  268MOL   H11432688   6.920   1.614   4.470 -0.3561 -1.1088 -2.1508
  268MOL   H11532689   6.856   1.729   4.360 -1.5321 -1.7496  1.2318
  268MOL   C11632690   6.820   1.779   4.565  0.8012  0.1284  0.2627
  268MOL   F11732691   6.866   1.757   4.686  0.0150  0.8270 -0.1180
  268MOL   F11832692   6.813   1.907   4.533 -0.1476  0.3737  0.0217
  268MOL   C11932693   6.675   1.722   4.570 -0.3226 -0.2024  0.2821
  268MOL   H12032694   6.676   1.616   4.597  1.9564  0.0348  1.3006
  268MOL   H12132695   6.615   1.747   4.483 -4.2362  1.9072  3.4731
  268MOL   H12232696   6.626   1.773   4.652 -0.5967  0.2466 -0.1615
  269MOL     C132697   4.348   5.329   8.269 -0.0666  0.1370  0.0358
  269MOL     F232698   4.232   5.389   8.286 -0.2901  0.0907 -0.3807
  269MOL     F332699   4.440   5.422   8.248 -0.1678  0.1764 -0.5143
  269MOL     C432700   4.348   5.219   8.165  0.2002 -0.2536  0.3977
  269MOL     H532701   4.277   5.137   8.180 -0.8201  0.7829  1.3416
  269MOL     H632702   4.442   5.164   8.174 -0.6465 -1.7169  0.4819
  269MOL     H732703   4.374   5.284   0.016  2.7801 -0.2457 -0.8570
  269MOL     C832704   4.351   5.277   8.020  0.5808  0.1674  0.4103
  269MOL     F932705   4.246   5.354   7.995  0.7437  0.2593  0.2178
  269MOL    F1032706   4.462   5.347   7.982  0.0379  0.1437  0.4012
  269MOL    C1132707   4.349   5.163   7.922  0.7723 -0.5628  0.4620
  269MOL    H1232708   4.369   5.198   7.821  1.2455  0.9265  1.0567
  269MOL    H1332709   4.254   5.109   7.918  1.8287 -2.3095 -2.4090
  269MOL    C1432710   4.450   5.042   7.942 -0.0079  0.0700 -0.3796
  269MOL    F1532711   4.575   5.087   7.962 -0.0383 -1.0266  0.1843
  269MOL    F1632712   4.423   4.962   8.045 -0.0746  0.1181  0.2662
  269MOL    C1732713   4.455   4.950   7.823  0.2161  0.1222 -0.3531
  269MOL    H1832714   4.534   4.877   7.843 -1.6120 -2.0845 -0.9445
  269MOL    H1932715   4.493   5.010   7.741 -0.2872 -0.8839 -1.3293
  269MOL    C2032716   4.326   4.871   7.783 -0.0032  0.0620 -1.0638
  269MOL    F2132717   4.269   4.830   7.891 -0.5245 -0.6749  0.0378
  269MOL    F2232718   4.241   4.961   7.738 -0.0746 -0.1988  0.3929
  269MOL    C2332719   4.327   4.754   7.685 -0.4644 -0.2280 -0.5180
  269MOL    H2432720   4.222   4.726   7.687 -1.1399  1.9393 -2.9213
  269MOL    H2532721   4.376   4.667   7.727  1.5816  0.8418 -0.6219
  269MOL    C2632722   4.392   4.765   7.551 -0.2337 -0.2623 -0.1047
  269MOL    F2732723   4.522   4.760   7.560  0.1096  0.0809  0.3442
  269MOL    F2832724   4.357   4.658   7.481  0.1188  0.1195  0.2867
  269MOL    C2932725   4.358   4.893   7.468  0.1135 -0.7762 -0.7947
  269MOL    H3032726   4.377   4.978   7.532  0.9882  0.5372 -2.7432
  269MOL    H3132727   4.251   4.899   7.447  0.3202 -0.4304 -1.7774
  269MOL    C3232728   4.441   4.921   7.340 -0.1490  0.0730 -0.5944
  269MOL    F3332729   4.567   4.924   7.377  0.2513 -0.4607 -0.3346
  269MOL    F3432730   4.421   4.815   7.254 -0.0250 -0.6604  0.4782
  269MOL    C3532731   4.399   5.055   7.278  1.0318 -0.4383  0.0280
  269MOL    H3632732   4.426   5.130   7.352  2.1508 -2.8214  2.1404
  269MOL    H3732733   4.292   5.067   7.264  0.8448  0.2470  1.8548
  269MOL    C3832734   4.478   5.093   7.156  0.5448 -0.0297 -0.4879
  269MOL    F3932735   4.603   5.052   7.169 -0.1379  0.2230  0.2211
  269MOL    F4032736   4.421   5.015   7.061  0.0570 -0.1234  0.1289
  269MOL    C4132737   4.469   5.246   7.106 -0.1778  0.0507 -1.1472
  269MOL    H4232738   4.363   5.269   7.119 -0.2696 -1.7415  1.7899
  269MOL    H4332739   4.488   5.260   6.999 -1.0979 -1.5672 -1.5487
  269MOL    C4432740   4.555   5.340   7.186  0.1884 -0.0308 -0.7751
  269MOL    F4532741   4.513   5.342   7.317  0.8093 -0.7838 -0.2671
  269MOL    F4632742   4.683   5.310   7.178  0.2187  0.1475  0.1672
  269MOL    C4732743   4.552   5.483   7.122  0.2952 -0.2426 -0.6140
  269MOL    H4832744   4.449   5.507   7.099  0.6808  0.5116 -1.5662
  269MOL    H4932745   4.586   5.474   7.019  0.2618  1.3408 -0.7767
  269MOL    C5032746   4.615   5.601   7.198  0.3596 -0.1912 -0.4633
  269MOL    F5132747   4.627   5.706   7.111 -0.8075 -0.2709 -0.5960
  269MOL    F5232748   4.525   5.632   7.295  0.1256  0.2464  0.3514
  269MOL    C5332749   4.759   5.569   7.260  0.6335  0.4732 -0.4559
  269MOL    H5432750   4.809   5.502   7.190  1.6838  0.5866  0.1693
  269MOL    H5532751   4.757   5.498   7.343  2.2698 -1.7652 -2.2709
  269MOL    C5632752   4.837   5.695   7.293 -0.3086  0.1150 -0.3630
  269MOL    F5732753   4.959   5.649   7.322 -0.5204 -0.7244  0.0375
  269MOL    F5832754   4.851   5.766   7.185  0.4419 -0.1199 -0.5898
  269MOL    C5932755   4.795   5.781   7.412 -0.3577 -0.3782 -0.3620
  269MOL    H6032756   4.803   5.719   7.501  0.2020  0.2007 -0.0059
  269MOL    H6132757   4.689   5.802   7.396 -0.3557  0.2338  0.3889
  269MOL    C6232758   4.877   5.912   7.445 -0.0876 -0.0819  0.7951
  269MOL    F6332759   4.822   5.964   7.552  0.0837 -0.3200 -0.7967
  269MOL    F6432760   5.001   5.878   7.484  0.2168  0.6897  0.6160
  269MOL    C6532761   4.876   6.029   7.341  0.3650 -0.1340  0.1892
  269MOL    H6632762   4.930   5.997   7.252  0.2539  1.7851 -0.6009
  269MOL    H6732763   4.931   6.112   7.387 -1.6350  0.8389  0.9057
  269MOL    C6832764   4.735   6.089   7.301  0.3728  0.4358 -0.2447
  269MOL    F6932765   4.671   5.990   7.238  0.0981  0.2829 -0.6727
  269MOL    F7032766   4.673   6.119   7.418 -0.1636 -0.1294 -0.2652
  269MOL    C7132767   4.739   6.210   7.201 -0.3051  0.3352 -0.4163
  269MOL    H7232768   4.647   6.205   7.143  1.0698 -2.2329 -2.4894
  269MOL    H7332769   4.819   6.190   7.129 -0.9314  1.0150 -1.3174
  269MOL    C7432770   4.743   6.342   7.270 -0.5022 -0.5028  0.2276
  269MOL    F7532771   4.646   6.347   7.357  0.6565 -0.6228  0.2376
  269MOL    F7632772   4.867   6.352   7.329 -0.0693 -0.2238 -0.0747
  269MOL    C7732773   4.734   6.455   7.164 -0.0020 -1.4021  0.7003
  269MOL    H7832774   4.651   6.434   7.096 -1.3145  2.6843  0.9277
  269MOL    H7932775   4.832   6.457   7.116 -1.0016  0.4539 -1.3386
  269MOL    C8032776   4.703   6.599   7.213  0.3847 -0.1603 -0.2675
  269MOL    F8132777   4.713   6.684   7.107 -0.0106  0.1891 -0.1294
  269MOL    F8232778   4.576   6.604   7.246  0.1400 -0.3104  0.7813
  269MOL    C8332779   4.792   6.649   7.319 -0.8221  0.5064  0.2077
  269MOL    H8432780   4.784   6.575   7.399  1.3054 -0.3775 -0.3618
  269MOL    H8532781   4.746   6.738   7.362 -1.1675  0.4601 -0.0676
  269MOL    C8632782   4.941   6.685   7.276 -0.4745 -1.2118  0.3653
  269MOL    F8732783   4.999   6.573   7.229  0.3219  0.4227  0.2030
  269MOL    F8832784   4.938   6.772   7.180  0.3752 -0.0737 -0.3032
  269MOL    C8932785   5.042   6.746   7.383 -0.0789 -0.3385  0.6996
  269MOL    H9032786   5.008   6.845   7.412  2.5529  0.0535  2.6313
  269MOL    H9132787   5.133   6.782   7.337 -1.5929  1.5287 -0.9380
  269MOL    C9232788   5.059   6.673   7.511  0.0027 -0.0359  0.3446
  269MOL    F9332789   5.121   6.744   7.602 -0.0334 -0.1937 -0.2569
  269MOL    F9432790   4.940   6.645   7.563 -0.0114  0.5591 -0.0767
  269MOL    C9532791   5.143   6.540   7.495  0.4481  0.2591 -0.6999
  269MOL    H9632792   5.240   6.556   7.447  0.5345 -0.2696 -0.7055
  269MOL    H9732793   5.084   6.465   7.443  0.9518  0.9111 -2.2497
  269MOL    C9832794   5.183   6.481   7.636  0.0755  1.0684  0.2428
  269MOL    F9932795   5.267   6.561   7.694 -0.8861 -0.2177  0.0723
  269MOL   F10032796   5.076   6.491   7.713 -0.2769 -0.1383 -0.3586
  269MOL   C10132797   5.219   6.334   7.640  0.5537  0.1374 -0.5227
  269MOL   H10232798   5.132   6.271   7.624 -0.3311  1.5716 -1.4608
  269MOL   H10332799   5.248   6.318   7.744  0.5953  0.8654 -0.4201
  269MOL   C10432800   5.341   6.284   7.559 -0.5930  0.4363  0.1390
  269MOL   F10532801   5.342   6.154   7.585  0.2357 -0.1032  0.0161
  269MOL   F10632802   5.323   6.308   7.429  0.1097  0.0038 -0.0935
  269MOL   C10732803   5.475   6.343   7.607 -0.1213  0.2362 -0.3679
  269MOL   H10832804   5.470   6.328   7.715 -2.3223 -0.5468 -0.5643
  269MOL   H10932805   5.471   6.451   7.593  0.8860  0.5112  1.2887
  269MOL   C11032806   5.610   6.284   7.546  0.0069 -0.6421  0.7375
  269MOL   F11132807   5.643   6.169   7.588 -0.1048  0.1175  0.0420
  269MOL   F11232808   5.604   6.288   7.413  0.1940  0.1079  0.9676
  269MOL   C11332809   5.728   6.369   7.582  0.2705 -0.0020 -0.1014
  269MOL   H11432810   5.761   6.359   7.686 -1.7878 -2.4350  0.3468
  269MOL   H11532811   5.694   6.472   7.565 -0.3061 -0.0233  0.9082
  269MOL   C11632812   5.857   6.348   7.495 -0.0391 -0.2367 -0.0832
  269MOL   F11732813   5.898   6.223   7.502 -0.0006 -0.0977  0.0002
  269MOL   F11832814   5.826   6.393   7.368  0.1412  0.1831 -0.0090
  269MOL   C11932815   5.977   6.424   7.553 -0.8330 -0.2338 -0.2151
  269MOL   H12032816   6.009   6.382   7.648 -0.7705  2.2672  0.9088
  269MOL   H12132817   5.953   6.528   7.577  1.2546 -0.3069  2.3288
  269MOL   H12232818   6.058   6.423   7.480 -1.9692  0.9950 -1.5525
  270MOL     C132819   0.486   4.775   1.771 -0.5550 -0.4298  0.4282
  270MOL     F232820   0.587   4.843   1.709  0.5109 -0.3787  0.3586
  270MOL     F332821   0.547   4.657   1.808 -0.3772  0.5413  0.2815
  270MOL     C432822   0.381   4.754   1.665  0.0830 -0.0876 -0.4772
  270MOL     H532823   0.423   4.705   1.577 -2.2635 -1.5020 -0.8663
  270MOL     H632824   0.360   4.856   1.634  2.3899  1.1890  1.9786
  270MOL     H732825   0.456   4.834   1.858 -0.3904  1.5966 -0.8659
  270MOL     C832826   0.248   4.686   1.712 -1.0066  0.5625  0.4556
  270MOL     F932827   0.182   4.751   1.807  0.4308 -0.3537  0.0639
  270MOL    F1032828   0.165   4.693   1.600 -0.9617 -0.1458  0.1689
  270MOL    C1132829   0.271   4.546   1.752  0.2786  0.0233  0.0196
  270MOL    H1232830   0.309   4.540   1.854  0.1094 -0.3018  0.0644
  270MOL    H1332831   0.334   4.493   1.680  1.4607  0.3622  0.7999
  270MOL    C1432832   0.133   4.471   1.765 -0.1603  0.0660  0.3481
  270MOL    F1532833   0.058   4.527   1.856 -0.0325  0.0783  0.2106
  270MOL    F1632834   0.068   4.479   1.654 -0.1169  0.1670  0.1411
  270MOL    C1732835   0.147   4.318   1.789  0.3154 -0.0736 -0.2038
  270MOL    H1832836   0.166   4.265   1.695 -1.1158 -0.4177 -0.3255
  270MOL    H1932837   0.045   4.294   1.819  0.4471  0.1287  0.3978
  270MOL    C2032838   0.248   4.266   1.901 -0.3692 -0.4782  0.4850
  270MOL    F2132839   0.371   4.318   1.878  0.2592  0.0142 -0.4158
  270MOL    F2232840   0.211   4.304   2.018  0.2017 -0.0559 -0.2815
  270MOL    C2332841   0.282   4.119   1.912 -0.3093  0.5834 -0.3913
  270MOL    H2432842   0.340   4.109   2.004 -2.6076 -1.6109  0.8849
  270MOL    H2532843   0.341   4.096   1.823 -0.4555  0.8417 -0.5527
  270MOL    C2632844   0.166   4.024   1.928 -0.3051  0.1683 -0.2241
  270MOL    F2732845   0.101   4.037   2.042 -0.2041  0.1642 -0.1004
  270MOL    F2832846   0.082   4.046   1.829 -0.1788 -0.1495  0.0580
  270MOL    C2932847   0.199   3.877   1.908  0.2580  0.4409  0.4047
  270MOL    H3032848   0.274   3.849   1.983  2.2963 -0.4874 -1.9197
  270MOL    H3132849   0.249   3.859   1.813 -1.7273 -1.8220 -0.2677
  270MOL    C3232850   0.086   3.773   1.928  0.0422 -0.4462  0.8448
  270MOL    F3332851   0.037   3.783   2.055 -0.2880 -0.0945  0.6752
  270MOL    F3432852   8.332   3.800   1.845 -0.0184 -0.4962 -0.4599
  270MOL    C3532853   0.137   3.624   1.926  0.2236  0.1035  0.1331
  270MOL    H3632854   0.062   3.569   1.983 -1.6166  0.5933 -1.7446
  270MOL    H3732855   0.226   3.605   1.986  1.0278 -1.2315 -1.4412
  270MOL    C3832856   0.169   3.559   1.784  0.3297 -0.2394 -0.2117
  270MOL    F3932857   0.061   3.596   1.713 -0.4896  0.0776  0.0523
  270MOL    F4032858   0.274   3.621   1.732 -0.1155  0.1845 -0.6468
  270MOL    C4132859   0.187   3.400   1.791  0.5873 -0.1245  0.3810
  270MOL    H4232860   0.087   3.358   1.800  0.6234 -0.0065  1.4503
  270MOL    H4332861   0.242   3.368   1.880  1.0636 -0.7493 -0.1376
  270MOL    C4432862   0.263   3.338   1.673 -0.4086  0.1351 -0.3031
  270MOL    F4532863   0.389   3.376   1.650  0.0344  0.5599 -0.3276
  270MOL    F4632864   0.271   3.212   1.711 -0.4513 -0.2275  0.0114
  270MOL    C4732865   0.196   3.361   1.543  0.3720  0.2881 -0.4407
  270MOL    H4832866   0.183   3.467   1.519  0.2680 -0.0560 -1.9837
  270MOL    H4932867   0.089   3.337   1.549  0.5293 -0.1252  0.6315
  270MOL    C5032868   0.253   3.298   1.419 -1.1192 -0.0511 -0.3366
  270MOL    F5132869   0.376   3.342   1.408  0.1055  0.1780  0.4516
  270MOL    F5232870   0.265   3.172   1.428  0.0612  0.1830 -0.6047
  270MOL    C5332871   0.175   3.338   1.296 -0.0384  0.0035 -0.4353
  270MOL    H5432872   0.192   3.445   1.280  0.5528 -0.1384 -0.7876
  270MOL    H5532873   0.069   3.327   1.315 -0.4096  2.5268 -0.8492
  270MOL    C5632874   0.217   3.272   1.162 -0.6758 -0.1507  0.5689
  270MOL    F5732875   0.350   3.283   1.159  0.8837 -0.2935  0.3256
  270MOL    F5832876   0.182   3.144   1.145 -0.1843 -0.1350 -0.1412
  270MOL    C5932877   0.149   3.354   1.047 -0.6361 -0.1128  0.0982
  270MOL    H6032878   0.164   3.460   1.065 -1.1598 -0.1898  1.0543
  270MOL    H6132879   0.043   3.345   1.070 -0.3549 -2.7148  0.4758
  270MOL    C6232880   0.183   3.316   0.898  0.1829  0.2184 -0.1369
  270MOL    F6332881   0.310   3.303   0.879  0.3306 -0.1491  0.0037
  270MOL    F6432882   0.141   3.193   0.874  0.3360 -0.2260 -0.0143
  270MOL    C6532883   0.113   3.419   0.801 -0.2115 -0.7363 -0.7549
  270MOL    H6632884   0.163   3.516   0.806 -1.3558 -0.2850  3.5403
  270MOL    H6732885   0.007   3.426   0.826 -0.6761 -3.0022 -1.8819
  270MOL    C6832886   0.108   3.388   0.653  0.6637 -0.7080  0.4670
  270MOL    F6932887   0.033   3.274   0.628  0.1616  0.2266  0.1798
  270MOL    F7032888   0.046   3.494   0.598  0.4967  0.1731 -0.3762
  270MOL    C7132889   0.245   3.391   0.584  0.1884  0.3572 -0.1812
  270MOL    H7232890   0.311   3.316   0.628 -0.3426  0.6216  1.0668
  270MOL    H7332891   0.290   3.487   0.607  0.9532  0.3818 -1.6997
  270MOL    C7432892   0.240   3.381   0.429 -0.1608  0.2481  0.3228
  270MOL    F7532893   0.363   3.385   0.393  0.0091 -0.0684 -0.3254
  270MOL    F7632894   0.178   3.269   0.395 -0.3778  0.2629 -0.3313
  270MOL    C7732895   0.175   3.495   0.348 -0.4005 -0.0439 -0.6017
  270MOL    H7832896   0.181   3.589   0.403  0.4242 -0.1112 -0.5737
  270MOL    H7932897   0.070   3.465   0.345 -0.5638  0.1383  1.7226
  270MOL    C8032898   0.218   3.512   0.199  0.4193 -0.5609  0.6237
  270MOL    F8132899   0.340   3.556   0.201  0.5622  0.1012  0.0739
  270MOL    F8232900   0.212   3.392   0.143  0.2467 -0.1203  0.0095
  270MOL    C8332901   0.125   3.610   0.124  0.2404 -0.4177 -0.2767
  270MOL    H8432902   0.111   3.701   0.182 -0.4527  0.8742 -2.3806
  270MOL    H8532903   0.027   3.562   0.121 -0.3088  0.4272  2.6861
  270MOL    C8632904   0.183   3.655   8.337 -0.4595  0.8192  0.3942
  270MOL    F8732905   0.093   3.721   8.267  0.2854 -0.0723  0.1194
  270MOL    F8832906   0.282   3.738   8.348 -0.3264  0.0001 -0.1114
  270MOL    C8932907   0.211   3.536   8.250  0.2315  0.4797 -0.3697
  270MOL    H9032908   0.123   3.474   8.233 -1.0523  2.2142 -0.1070
  270MOL    H9132909   0.293   3.479   8.293  1.0859 -0.5129 -3.2075
  270MOL    C9232910   0.259   3.569   8.104 -0.0306  0.2942  0.5272
  270MOL    F9332911   0.158   3.618   8.025  0.4795 -0.2489 -0.0119
  270MOL    F9432912   0.357   3.655   8.113  0.0822  0.4158  0.0797
  270MOL    C9532913   0.313   3.438   8.034 -0.4457 -0.5531  0.0085
  270MOL    H9632914   0.406   3.398   8.075  0.8418  0.2016 -2.0515
  270MOL    H9732915   0.327   3.475   7.932 -1.4929  0.2503  0.1564
  270MOL    C9832916   0.216   3.328   8.018 -0.1919 -0.3400  0.2013
  270MOL    F9932917   0.218   3.252   8.127 -0.0049 -0.1133  0.1905
  270MOL   F10032918   0.087   3.359   7.998 -0.2503  0.5416 -0.0196
  270MOL   C10132919   0.256   3.225   7.921 -0.4638  0.3848 -0.1784
  270MOL   H10232920   0.189   3.139   7.923  0.1347 -0.1508 -2.3811
  270MOL   H10332921   0.356   3.199   7.954  0.3689  3.5121 -0.1030
  270MOL   C10432922   0.269   3.259   7.774  0.6708  0.4765  0.0622
  270MOL   F10532923   0.153   3.311   7.727 -0.1087 -0.6708  0.5486
  270MOL   F10632924   0.362   3.350   7.748  0.2318 -0.6512 -0.2451
  270MOL   C10732925   0.300   3.136   7.686 -0.5537 -0.1449  0.4423
  270MOL   H10832926   0.320   3.175   7.586  0.4707  1.5894  1.2879
  270MOL   H10932927   0.210   3.076   7.693 -1.1474  0.8050  1.0103
  270MOL   C11032928   0.418   3.037   7.716 -0.2023  0.1414 -0.3504
  270MOL   F11132929   0.406   2.985   7.838 -0.3899 -0.1759 -0.0136
  270MOL   F11232930   0.406   2.935   7.634  0.7783 -0.0315 -0.2519
  270MOL   C11332931   0.556   3.109   7.711 -0.1016  0.2741  0.4886
  270MOL   H11432932   0.554   3.208   7.755  0.3072  0.4414  0.1463
  270MOL   H11532933   0.564   3.124   7.603 -0.4935 -2.7123 -0.0234
  270MOL   C11632934   0.683   3.041   7.749  0.5022  0.1785  0.1539
  270MOL   F11732935   0.785   3.128   7.727  0.1096 -0.0676  0.5047
  270MOL   F11832936   0.675   3.017   7.881 -0.4586  0.0346  0.1954
  270MOL   C11932937   0.722   2.923   7.666  0.5255 -0.0761 -0.2954
  270MOL   H12032938   0.747   2.959   7.566  3.8431  0.4199  0.6471
  270MOL   H12132939   0.644   2.848   7.652  1.2944 -0.6681 -1.5390
  270MOL   H12232940   0.812   2.877   7.706 -0.1556 -0.5683  0.7092
  271MOL     C132941   6.411   2.872   1.971  0.0146  0.2755 -0.6482
  271MOL     F232942   6.416   2.997   1.928  0.4428 -0.0434  0.1053
  271MOL     F332943   6.507   2.852   2.064 -0.0332  0.2445 -0.2008
  271MOL     C432944   6.442   2.778   1.851 -0.6557 -0.9414 -0.0186
  271MOL     H532945   6.538   2.801   1.806 -0.5999 -2.0790 -0.4713
  271MOL     H632946   6.356   2.786   1.784 -0.2060  0.8134 -0.4151
  271MOL     H732947   6.313   2.858   2.017  0.0935  2.8543  0.4266
  271MOL     C832948   6.444   2.623   1.868 -0.1476 -0.1182 -0.3029
  271MOL     F932949   6.349   2.593   1.951  0.5487 -0.1493 -0.4188
  271MOL    F1032950   6.426   2.559   1.759  0.0001 -0.4953 -0.1382
  271MOL    C1132951   6.578   2.577   1.928 -0.2500  0.5802  0.0222
  271MOL    H1232952   6.595   2.620   2.027  1.1144  0.4118 -0.1254
  271MOL    H1332953   6.653   2.639   1.879  0.0605  0.2838  0.1263
  271MOL    C1432954   6.621   2.428   1.921  0.0101 -0.0985 -0.6610
  271MOL    F1532955   6.740   2.424   1.982  0.1149  0.0785 -0.2755
  271MOL    F1632956   6.533   2.348   1.986  0.0923 -0.0997  0.5601
  271MOL    C1732957   6.637   2.364   1.782 -0.0375 -0.0471  0.7476
  271MOL    H1832958   6.671   2.442   1.714 -2.8536  0.3033 -0.3359
  271MOL    H1932959   6.539   2.331   1.746  1.2101 -1.5777 -1.3824
  271MOL    C2032960   6.728   2.245   1.766 -0.4443 -0.3306 -0.7598
  271MOL    F2132961   6.724   2.208   1.634 -0.0962 -0.1601  0.1730
  271MOL    F2232962   6.860   2.263   1.795  0.2518 -0.0514 -0.2685
  271MOL    C2332963   6.683   2.125   1.844 -0.3437  0.1297  0.4125
  271MOL    H2432964   6.589   2.088   1.802 -0.7955  3.1896 -1.4318
  271MOL    H2532965   6.649   2.161   1.942  0.5352 -0.7779  1.0549
  271MOL    C2632966   6.784   2.010   1.848  0.5646  0.3350  0.1533
  271MOL    F2732967   6.879   2.042   1.930  0.3039  0.5897  0.5509
  271MOL    F2832968   6.717   1.902   1.895 -0.3997 -0.6274  0.0415
  271MOL    C2932969   6.843   1.976   1.706  0.0607  0.2398  0.0687
  271MOL    H3032970   6.892   2.067   1.671 -0.2095  0.3190 -0.1002
  271MOL    H3132971   6.755   1.965   1.643 -0.3705  1.1398  0.4936
  271MOL    C3232972   6.940   1.858   1.698  0.2545  0.5971 -0.3816
  271MOL    F3332973   6.886   1.751   1.756  0.5716 -0.0295  0.6159
  271MOL    F3432974   6.958   1.820   1.573  0.2280 -0.0154 -0.4359
  271MOL    C3532975   7.079   1.877   1.762 -0.4425 -0.1185  0.0054
  271MOL    H3632976   7.073   1.886   1.871 -1.8948  0.0924 -0.0829
  271MOL    H3732977   7.113   1.973   1.724 -2.0160 -0.6315 -2.8295
  271MOL    C3832978   7.178   1.754   1.750  0.0298 -0.3214 -0.3872
  271MOL    F3932979   7.116   1.652   1.803  0.2978  0.4021  0.1703
  271MOL    F4032980   7.197   1.742   1.617 -0.1340  0.0657 -0.4789
  271MOL    C4132981   7.317   1.791   1.811 -0.4592  0.3834 -0.4475
  271MOL    H4232982   7.319   1.796   1.920  1.2250  1.3407 -0.5054
  271MOL    H4332983   7.333   1.893   1.774  0.7878  1.0896  1.9340
  271MOL    C4432984   7.436   1.697   1.782 -0.3017  0.4852  0.0477
  271MOL    F4532985   7.466   1.703   1.649 -0.0676  0.4308 -0.3368
  271MOL    F4632986   7.546   1.748   1.834  0.1709  0.0322 -0.2835
  271MOL    C4732987   7.425   1.552   1.816  0.1880  0.5423  0.2125
  271MOL    H4832988   7.501   1.491   1.766  0.8949 -0.1245  2.0429
  271MOL    H4932989   7.328   1.522   1.777 -0.8820  2.6646  1.2228
  271MOL    C5032990   7.437   1.513   1.970  0.3650 -0.1669 -0.1087
  271MOL    F5132991   7.552   1.554   2.023 -0.0514 -0.1533  0.1377
  271MOL    F5232992   7.346   1.571   2.039  0.7267  0.1026  0.0936
  271MOL    C5332993   7.423   1.362   1.997 -0.1046 -0.1288 -0.2075
  271MOL    H5432994   7.393   1.356   2.102  1.7226 -2.5628  0.2331
  271MOL    H5532995   7.526   1.326   1.996  0.3437  1.1304  0.0936
  271MOL    C5632996   7.318   1.281   1.910 -0.0512 -0.4456 -0.2179
  271MOL    F5732997   7.197   1.328   1.927  0.4922 -0.2898  0.4432
  271MOL    F5832998   7.349   1.301   1.785  0.7097  0.5293  0.0623
  271MOL    C5932999   7.322   1.129   1.926  0.1413 -0.0545 -0.3192
  271MOL    H6033000   7.424   1.097   1.905  0.0919 -0.0536 -0.5707
  271MOL    H6133001   7.257   1.090   1.848 -0.0502 -1.1998  0.4006
  271MOL    C6233002   7.282   1.075   2.070  0.8111 -0.5838  0.0245
  271MOL    F6333003   7.379   1.069   2.159  0.1126  0.1137 -0.1697
  271MOL    F6433004   7.196   1.162   2.121  0.5989 -0.3736  0.1063
  271MOL    C6533005   7.224   0.930   2.056 -0.4595  0.0533 -0.3949
  271MOL    H6633006   7.146   0.943   1.981  0.3958  2.9393 -0.8712
  271MOL    H6733007   7.167   0.898   2.143 -0.6423  1.0664 -0.1372
  271MOL    C6833008   7.324   0.821   2.007 -0.5034 -0.6724 -0.1923
  271MOL    F6933009   7.256   0.717   1.972  0.0752 -0.1515 -0.4292
  271MOL    F7033010   7.400   0.861   1.904  0.1385  0.2504  0.3881
  271MOL    C7133011   7.419   0.775   2.113  0.2907  0.4001  0.3137
  271MOL    H7233012   7.381   0.766   2.214  0.5049 -0.4962  0.3183
  271MOL    H7333013   7.503   0.844   2.114  0.7536 -0.1580  0.3060
  271MOL    C7433014   7.490   0.634   2.093  0.1457  0.5533 -0.5147
  271MOL    F7533015   7.562   0.619   2.207 -0.1555  0.2555 -0.8047
  271MOL    F7633016   7.395   0.544   2.098  0.3841 -0.3631  0.3206
  271MOL    C7733017   7.573   0.628   1.970 -0.3987 -0.8914 -0.5034
  271MOL    H7833018   7.636   0.716   1.977 -0.8131 -0.5832 -0.6809
  271MOL    H7933019   7.500   0.645   1.891 -1.4881  0.3348  0.7472
  271MOL    C8033020   7.663   0.500   1.953 -0.4659  0.6466 -0.0051
  271MOL    F8133021   7.756   0.498   2.046  0.5003  0.1232  0.7323
  271MOL    F8233022   7.586   0.396   1.983  0.4697  0.2796 -0.1599
  271MOL    C8333023   7.730   0.476   1.814  0.5524 -0.1526 -0.1115
  271MOL    H8433024   7.649   0.478   1.741  0.3009 -3.2924  0.0190
  271MOL    H8533025   7.775   0.378   1.800 -0.9877 -0.9679  0.5278
  271MOL    C8633026   7.842   0.572   1.763  0.7624  0.4883  0.3353
  271MOL    F8733027   7.821   0.558   1.633  0.0290 -0.4355 -0.3851
  271MOL    F8833028   7.809   0.698   1.785 -0.0798 -0.5592  0.3508
  271MOL    C8933029   7.987   0.530   1.811  0.0491  0.4428  1.1651
  271MOL    H9033030   8.017   0.437   1.763  0.4181  1.5327 -0.7982
  271MOL    H9133031   7.974   0.513   1.918  0.8198  0.7351  1.3050
  271MOL    C9233032   8.096   0.626   1.774 -0.3775 -0.1645  0.8562
  271MOL    F9333033   8.195   0.554   1.721 -0.0801  0.7424  0.5838
  271MOL    F9433034   8.067   0.705   1.671  0.2035  0.1998 -0.2001
  271MOL    C9533035   8.150   0.717   1.886  0.6828  0.3937  0.5428
  271MOL    H9633036   8.060   0.757   1.932  1.1374  2.1796 -0.0602
  271MOL    H9733037   8.200   0.800   1.835  1.5691 -1.2466 -1.3560
  271MOL    C9833038   8.254   0.662   1.986  0.7470 -0.7707 -0.2683
  271MOL    F9933039   8.220   0.536   2.020 -0.2036 -0.2738  0.3920
  271MOL   F10033040   0.028   0.666   1.934  0.4021 -0.4575 -0.2707
  271MOL   C10133041   8.261   0.731   2.125  0.1161  0.2284  0.2403
  271MOL   H10233042   8.302   0.665   2.201  0.4854  0.1622 -0.0149
  271MOL   H10333043   8.153   0.741   2.134  0.0455 -0.6224  0.4044
  271MOL   C10433044   8.331   0.870   2.129  0.5935 -0.5253  0.2859
  271MOL   F10533045   0.111   0.853   2.096  0.0126  0.1148  0.2089
  271MOL   F10633046   8.278   0.942   2.030 -0.5892 -0.0870  0.2540
  271MOL   C10733047   8.306   0.958   2.257  0.1773 -0.1679  0.1507
  271MOL   H10833048   8.348   0.931   2.354  1.4791  0.9153 -0.1083
  271MOL   H10933049   8.199   0.951   2.275  0.1423  0.1528  0.0693
  271MOL   C11033050   8.335   1.111   2.238  0.1442 -0.4652 -0.2563
  271MOL   F11133051   0.101   1.135   2.168 -0.0273 -0.4682 -0.0457
  271MOL   F11233052   8.242   1.156   2.160  0.3745 -0.6333  0.3828
  271MOL   C11333053   8.331   1.191   2.377  0.5989  0.3362  0.0690
  271MOL   H11433054   0.063   1.161   2.442  2.1053 -1.3155 -2.4951
  271MOL   H11533055   8.243   1.153   2.428  1.0401  0.1125  0.6711
  271MOL   C11633056   8.320   1.342   2.369 -0.9253 -0.4586 -0.7939
  271MOL   F11733057   0.066   1.392   2.299 -0.2491 -0.1512 -0.3485
  271MOL   F11833058   8.201   1.380   2.319 -0.0234  0.1199 -0.2244
  271MOL   C11933059   8.319   1.411   2.508 -0.2775  0.9206  0.0102
  271MOL   H12033060   8.238   1.366   2.566 -0.9790  0.7387 -1.0933
  271MOL   H12133061   8.295   1.516   2.490  0.1454  0.9074 -0.6218
  271MOL   H12233062   0.061   1.413   2.567 -0.2547 -1.2837  0.0953
  272MOL     C133063   4.149   7.977   1.181 -0.0823  0.5812  0.4360
  272MOL     F233064   4.140   8.060   1.079  0.2543  0.3114  0.4284
  272MOL     F333065   4.187   8.047   1.290  0.0025 -0.3907  0.0578
  272MOL     C433066   4.259   7.866   1.154  0.6712  0.2765  0.0716
  272MOL     H533067   4.357   7.910   1.173  0.8206 -0.7651  1.8001
  272MOL     H633068   4.262   7.843   1.048 -1.2968 -1.7914  0.4138
  272MOL     H733069   4.050   7.939   1.207  0.7573 -1.1598  1.2264
  272MOL     C833070   4.246   7.739   1.243  0.0600  0.2339 -0.1773
  272MOL     F933071   4.264   7.750   1.374  0.3259 -0.0173 -0.2471
  272MOL    F1033072   4.122   7.696   1.217  0.0154 -0.0974 -0.5197
  272MOL    C1133073   4.324   7.623   1.179 -0.0169 -0.5461 -0.1953
  272MOL    H1233074   4.309   7.624   1.071 -0.0866  0.9881 -0.1843
  272MOL    H1333075   4.276   7.531   1.210 -1.5054  1.1540  2.8022
  272MOL    C1433076   4.476   7.631   1.216  0.5200 -0.0033  0.7379
  272MOL    F1533077   4.530   7.741   1.168  0.0089 -0.7633  0.3703
  272MOL    F1633078   4.509   7.640   1.345  0.3114  0.3642 -0.0736
  272MOL    C1733079   4.555   7.514   1.161 -0.6587  0.3456  0.7267
  272MOL    H1833080   4.660   7.540   1.153 -0.5843  0.6967  2.6219
  272MOL    H1933081   4.533   7.515   1.055  0.9264 -0.8310  0.3778
  272MOL    C2033082   4.542   7.377   1.234  0.0849 -0.3554  0.4012
  272MOL    F2133083   4.578   7.383   1.362  0.1690 -0.6096  0.1267
  272MOL    F2233084   4.416   7.337   1.223  0.2543 -0.2172  0.5007
  272MOL    C2333085   4.639   7.274   1.159 -0.2851  0.1565 -0.7996
  272MOL    H2433086   4.737   7.314   1.181 -0.2997 -0.9461  1.3638
  272MOL    H2533087   4.619   7.283   1.052  4.4050  1.2962 -1.6915
  272MOL    C2633088   4.637   7.126   1.203  0.3696 -0.5662 -0.1378
  272MOL    F2733089   4.684   7.115   1.332 -0.5921 -0.0531  0.1527
  272MOL    F2833090   4.506   7.091   1.204 -0.3701  0.2606 -0.5078
  272MOL    C2933091   4.721   7.019   1.120 -0.2199  0.5857 -0.9591
  272MOL    H3033092   4.702   6.916   1.150  1.0733  0.6288  0.0395
  272MOL    H3133093   4.823   7.046   1.148 -0.8837  1.3955  0.7410
  272MOL    C3233094   4.693   7.031   0.973 -0.1749  0.0907 -0.2063
  272MOL    F3333095   4.564   7.041   0.933 -0.1309  0.1985 -0.1878
  272MOL    F3433096   4.765   7.136   0.938  0.1314 -0.2903  0.1301
  272MOL    C3533097   4.744   6.900   0.901 -0.1539  0.2133 -0.2236
  272MOL    H3633098   4.681   6.815   0.925 -0.3795  0.8338  1.4971
  272MOL    H3733099   4.840   6.878   0.948 -0.9192 -0.5069  1.0336
  272MOL    C3833100   4.757   6.906   0.748  0.6171  0.0341  0.4849
  272MOL    F3933101   4.631   6.907   0.695  0.0976  0.4956 -0.4030
  272MOL    F4033102   4.816   7.018   0.728  0.2823  0.2142 -0.3349
  272MOL    C4133103   4.839   6.789   0.695  0.2111 -0.1411  0.3235
  272MOL    H4233104   4.879   6.829   0.602 -0.3700  0.8762  0.5044
  272MOL    H4333105   4.775   6.708   0.661 -1.4122  0.2733  2.2698
  272MOL    C4433106   4.956   6.721   0.776 -0.0209 -0.2202  1.0774
  272MOL    F4533107   5.037   6.816   0.815  0.5091  0.6404 -0.0537
  272MOL    F4633108   4.909   6.662   0.883 -0.0634  0.5810  0.0058
  272MOL    C4733109   5.046   6.619   0.700  0.2188 -0.7868  0.1615
  272MOL    H4833110   5.123   6.585   0.769  0.7301 -3.0896 -1.5117
  272MOL    H4933111   5.105   6.674   0.626  1.8848 -2.5040  0.1848
  272MOL    C5033112   4.974   6.497   0.639 -0.0788 -0.0867 -0.3717
  272MOL    F5133113   4.899   6.544   0.538  0.0779  0.0609  0.3112
  272MOL    F5233114   5.071   6.427   0.585 -0.0596  0.4828 -0.0332
  272MOL    C5333115   4.897   6.417   0.740  0.2299  0.4492 -0.0524
  272MOL    H5433116   4.822   6.480   0.788 -0.1427 -1.3717  1.7888
  272MOL    H5533117   4.962   6.384   0.820 -1.5670  0.9190  1.6367
  272MOL    C5633118   4.815   6.294   0.689  0.4157 -0.1694  0.3177
  272MOL    F5733119   4.766   6.247   0.803 -0.0112 -0.5029  0.5468
  272MOL    F5833120   4.702   6.320   0.616  0.8459 -0.4490  0.1887
  272MOL    C5933121   4.892   6.182   0.615 -0.6170 -0.4129  0.1311
  272MOL    H6033122   4.990   6.185   0.663 -0.1238 -2.3814 -0.7247
  272MOL    H6133123   4.917   6.218   0.516  0.7304 -0.4290  0.4584
  272MOL    C6233124   4.830   6.042   0.612 -0.3589  0.5601  0.0559
  272MOL    F6333125   4.831   5.979   0.728  0.2902 -0.2471  0.0591
  272MOL    F6433126   4.699   6.058   0.582  0.2653 -0.7250 -0.1295
  272MOL    C6533127   4.896   5.939   0.512 -0.6344 -0.9998 -0.2009
  272MOL    H6633128   4.881   5.970   0.408  1.1648 -0.7811 -0.4046
  272MOL    H6733129   4.835   5.849   0.521 -0.8981 -0.6996  1.0370
  272MOL    C6833130   5.048   5.905   0.547  0.5336  0.3442 -0.2215
  272MOL    F6933131   5.110   5.993   0.476  0.2123 -0.3316  0.6889
  272MOL    F7033132   5.072   5.918   0.679 -0.4435 -0.9072 -0.2411
  272MOL    C7133133   5.085   5.761   0.497  0.4758  0.3507  0.0336
  272MOL    H7233134   5.011   5.683   0.516  0.4677 -0.1077 -1.8107
  272MOL    H7333135   5.177   5.732   0.549 -0.7612 -1.0735  1.4700
  272MOL    C7433136   5.133   5.754   0.355 -0.3585 -0.3452 -0.4234
  272MOL    F7533137   5.043   5.799   0.271  0.1826  0.2715  0.1551
  272MOL    F7633138   5.243   5.829   0.335  0.6366  0.0270  0.1345
  272MOL    C7733139   5.167   5.616   0.299  0.0313 -0.0453 -0.1860
  272MOL    H7833140   5.229   5.633   0.210 -1.7596 -0.3327 -1.5106
  272MOL    H7933141   5.076   5.565   0.268  0.8354 -0.8031 -1.3617
  272MOL    C8033142   5.239   5.521   0.399  0.6246 -0.2409 -0.0210
  272MOL    F8133143   5.351   5.580   0.443  0.0584  0.0923 -0.1534
  272MOL    F8233144   5.170   5.489   0.508 -0.3825 -0.4611  0.5100
  272MOL    C8333145   5.275   5.389   0.325 -0.3962  0.3938  0.8333
  272MOL    H8433146   5.332   5.408   0.234  2.0544  0.6557  2.3834
  272MOL    H8533147   5.181   5.338   0.304 -0.6313  0.5017  1.6300
  272MOL    C8633148   5.360   5.286   0.397 -0.2300 -0.2991 -0.2054
  272MOL    F8733149   5.479   5.330   0.420  0.0820 -0.3503 -0.3566
  272MOL    F8833150   5.306   5.261   0.514 -0.2249  0.1606 -0.1827
  272MOL    C8933151   5.358   5.151   0.328  0.4341  0.1504  0.3865
  272MOL    H9033152   5.254   5.118   0.326  0.4183  0.0706  1.7992
  272MOL    H9133153   5.423   5.079   0.378 -1.9404 -1.9339  0.5589
  272MOL    C9233154   5.394   5.144   0.178 -0.1960  0.0838 -0.0272
  272MOL    F9333155   5.307   5.212   0.108  0.2635  0.1879  0.4270
  272MOL    F9433156   5.520   5.191   0.185  0.2459  0.2984  0.3312
  272MOL    C9533157   5.389   5.000   0.130 -0.1321  0.1638  0.6180
  272MOL    H9633158   5.320   4.933   0.183 -1.6854  2.0187  0.9782
  272MOL    H9733159   5.484   4.949   0.141 -0.8260 -0.7603  2.6007
  272MOL    C9833160   5.351   4.991   8.331 -0.3573  0.6039 -0.0106
  272MOL    F9933161   5.231   5.052   8.306 -0.1930 -0.4938 -0.1026
  272MOL   F10033162   5.445   5.047   8.257  0.1091  0.1233  0.1798
  272MOL   C10133163   5.337   4.838   8.300 -0.6279  0.6148  0.4285
  272MOL   H10233164   5.418   4.771   8.331 -1.9714 -1.1311  0.2806
  272MOL   H10333165   5.333   4.838   8.191 -1.7527  1.4684  0.4636
  272MOL   C10433166   5.214   4.750   8.342  0.0248  0.6026  0.6779
  272MOL   F10533167   5.217   4.738   0.120 -0.0165  0.3739 -0.1959
  272MOL   F10633168   5.105   4.807   8.303  0.3211 -0.3154  0.4226
  272MOL   C10733169   5.226   4.613   8.284 -0.1260  1.0143 -0.0154
  272MOL   H10833170   5.309   4.560   8.331 -0.3808  1.1477  0.5806
  272MOL   H10933171   5.246   4.624   8.177 -0.1419 -0.3271 -0.1694
  272MOL   C11033172   5.093   4.537   8.302 -0.2537 -0.5068 -0.4511
  272MOL   F11133173   5.062   4.540   0.085  0.2776 -0.0087 -0.0244
  272MOL   F11233174   4.987   4.586   8.235 -0.0475  0.0722 -0.4563
  272MOL   C11333175   5.112   4.393   8.260  0.4050 -0.2261  0.4701
  272MOL   H11433176   5.210   4.354   8.290  0.4740 -0.3998  0.0190
  272MOL   H11533177   5.120   4.383   8.152  0.7869 -2.1436  0.6564
  272MOL   C11633178   4.992   4.300   8.306 -0.2259 -0.5601  0.1069
  272MOL   F11733179   4.996   4.183   8.239 -0.0812 -0.1545 -0.1551
  272MOL   F11833180   5.009   4.263   0.087  0.3666  0.0978 -0.2598
  272MOL   C11933181   4.851   4.351   8.272 -0.1795  0.7788 -0.1691
  272MOL   H12033182   4.765   4.287   8.287 -1.6161  2.9886  1.2696
  272MOL   H12133183   4.838   4.369   8.165 -0.4189 -0.7491 -0.4152
  272MOL   H12233184   4.835   4.441   8.330  0.2362  0.8642 -0.1818
  273MOL     C133185   0.546   4.530   2.169 -0.7694 -0.6378  0.0304
  273MOL     F233186   0.588   4.410   2.160 -0.2079 -0.1024  0.2574
  273MOL     F333187   0.622   4.577   2.269 -0.5055  0.0334 -0.3398
  273MOL     C433188   0.395   4.537   2.191  0.9146 -0.2217 -0.2512
  273MOL     H533189   0.359   4.503   2.288 -0.4527  3.4492  0.5931
  273MOL     H633190   0.344   4.467   2.125  1.3289 -0.5446 -0.2302
  273MOL     H733191   0.576   4.582   2.078 -2.6969 -0.2769 -0.4285
  273MOL     C833192   0.332   4.681   2.162  0.1223  0.3549  0.1183
  273MOL     F933193   0.391   4.777   2.233 -0.1789 -0.4392 -0.3577
  273MOL    F1033194   0.348   4.708   2.031 -0.3969 -0.0445  0.0219
  273MOL    C1133195   0.180   4.670   2.192 -0.1749  0.5149 -0.2866
  273MOL    H1233196   0.169   4.616   2.286  1.4987  0.2956 -0.1983
  273MOL    H1333197   0.124   4.609   2.121  1.1062 -0.9614 -0.0693
  273MOL    C1433198   0.107   4.801   2.235  0.2585 -0.0439  0.4090
  273MOL    F1533199   8.333   4.755   2.271  0.0156 -0.5307 -0.1436
  273MOL    F1633200   0.170   4.849   2.340  0.4533 -0.1138  0.3890
  273MOL    C1733201   0.075   4.897   2.126 -0.5192 -0.6619 -0.3251
  273MOL    H1833202   0.041   4.849   2.035 -1.6985 -0.9059  0.2371
  273MOL    H1933203   0.176   4.923   2.093 -0.4571 -1.0421 -0.4331
  273MOL    C2033204   8.344   5.019   2.163 -0.3855  0.1030  0.3781
  273MOL    F2133205   0.064   5.091   2.254 -0.1255  0.0920  0.1963
  273MOL    F2233206   8.338   5.106   2.055 -0.0359  0.2438  0.2408
  273MOL    C2333207   8.206   4.995   2.220  0.2270  0.5974 -0.7148
  273MOL    H2433208   8.162   5.091   2.248 -1.6693 -0.8484  1.5259
  273MOL    H2533209   8.211   4.942   2.316  0.9236  0.6932 -0.6945
  273MOL    C2633210   8.103   4.919   2.139  0.0238 -0.1091 -0.0823
  273MOL    F2733211   8.084   4.993   2.034 -0.5371 -0.6199  0.2033
  273MOL    F2833212   8.146   4.800   2.105 -0.1574  0.3483  0.0151
  273MOL    C2933213   7.964   4.899   2.212 -0.1400  0.1788  0.2345
  273MOL    H3033214   7.890   4.849   2.149  0.3606 -0.2277 -0.0301
  273MOL    H3133215   7.911   4.992   2.237  2.6197  1.4612  1.5468
  273MOL    C3233216   7.957   4.820   2.348 -1.0225  0.2240 -0.0036
  273MOL    F3333217   8.025   4.707   2.337 -0.0583 -0.4410  0.3417
  273MOL    F3433218   8.013   4.907   2.437  0.7174  0.0367 -0.2819
  273MOL    C3533219   7.815   4.785   2.384 -0.1375 -0.3454  0.5033
  273MOL    H3633220   7.773   4.713   2.313 -1.6292  2.1041 -1.1545
  273MOL    H3733221   7.740   4.864   2.382  0.9432  0.6514 -1.1405
  273MOL    C3833222   7.818   4.712   2.522  0.3857  0.0504  0.0593
  273MOL    F3933223   7.864   4.789   2.615  0.3986 -0.4779 -0.6056
  273MOL    F4033224   7.689   4.678   2.556 -0.2883 -0.0788  0.3976
  273MOL    C4133225   7.886   4.570   2.533 -0.2584  0.4073 -0.5519
  273MOL    H4233226   7.995   4.569   2.533 -0.2139 -0.6401  2.7541
  273MOL    H4333227   7.850   4.508   2.451  0.8471 -0.6037 -0.2858
  273MOL    C4433228   7.845   4.475   2.644  0.1872  0.4091  0.2845
  273MOL    F4533229   7.719   4.423   2.617 -0.2089 -0.3496 -0.4183
  273MOL    F4633230   7.927   4.367   2.630  0.2389  0.2127 -0.4345
  273MOL    C4733231   7.853   4.539   2.779 -0.0764  0.2857 -0.1099
  273MOL    H4833232   7.785   4.624   2.788  0.8280  1.0974 -0.8433
  273MOL    H4933233   7.955   4.574   2.797 -0.0757 -0.5833  1.6636
  273MOL    C5033234   7.822   4.442   2.897 -0.2479 -0.3768 -0.2005
  273MOL    F5133235   7.701   4.395   2.879  0.4837 -0.4528  0.0968
  273MOL    F5233236   7.905   4.336   2.901 -0.3014  0.1452  0.3431
  273MOL    C5333237   7.813   4.495   3.037  0.3394  0.1900  0.0819
  273MOL    H5433238   7.906   4.548   3.057 -0.4742  1.5596  0.3225
  273MOL    H5533239   7.820   4.415   3.110 -1.9703 -0.4804 -0.3990
  273MOL    C5633240   7.693   4.583   3.071  0.3424  0.0859  0.2514
  273MOL    F5733241   7.684   4.684   2.989 -0.0388 -0.0198 -0.1822
  273MOL    F5833242   7.580   4.507   3.060 -0.4438  0.1589 -0.3723
  273MOL    C5933243   7.697   4.639   3.213  0.0750  0.6937  0.1857
  273MOL    H6033244   7.787   4.698   3.229 -0.6958  1.4894  1.7023
  273MOL    H6133245   7.700   4.556   3.284 -1.7130  0.3105 -0.1609
  273MOL    C6233246   7.565   4.714   3.254 -0.4491  0.4975  0.3571
  273MOL    F6333247   7.463   4.636   3.256  0.9643  0.6645 -0.4708
  273MOL    F6433248   7.596   4.750   3.380  0.2585  0.1411  0.2974
  273MOL    C6533249   7.533   4.841   3.171  0.5668  0.4366  0.1916
  273MOL    H6633250   7.516   4.817   3.066  1.9750 -0.6706  0.1978
  273MOL    H6733251   7.621   4.904   3.161 -0.1926  1.6221  0.9250
  273MOL    C6833252   7.410   4.910   3.225 -0.0061  0.4200  0.8029
  273MOL    F6933253   7.287   4.844   3.218  0.3939  0.1346  0.2255
  273MOL    F7033254   7.423   4.931   3.352 -0.1738  0.3306 -0.3902
  273MOL    C7133255   7.408   5.050   3.156 -0.0656  0.1297  1.0405
  273MOL    H7233256   7.411   5.036   3.048  3.7906 -0.2017  1.1288
  273MOL    H7333257   7.497   5.106   3.182 -1.0977  3.1475 -1.6533
  273MOL    C7433258   7.277   5.131   3.184  0.4897 -0.4579  0.2454
  273MOL    F7533259   7.164   5.080   3.138  0.5407 -0.0160  0.2381
  273MOL    F7633260   7.267   5.129   3.318 -0.0624  0.4931 -0.2020
  273MOL    C7733261   7.282   5.288   3.143  1.0000  0.0849  0.0823
  273MOL    H7833262   7.376   5.326   3.184  0.7404  0.4918  0.3076
  273MOL    H7933263   7.203   5.346   3.190 -0.5761 -2.0778  0.1549
  273MOL    C8033264   7.282   5.316   2.993 -0.2757  0.8861  0.3410
  273MOL    F8133265   7.385   5.250   2.939 -0.2794  0.0700  0.0894
  273MOL    F8233266   7.169   5.274   2.949  0.1846  0.4754 -0.5572
  273MOL    C8333267   7.290   5.467   2.959 -0.3995 -0.1332  0.5409
  273MOL    H8433268   7.372   5.510   3.018  1.7925 -1.2892 -1.5587
  273MOL    H8533269   7.201   5.514   3.002 -0.0106 -1.3382  2.7545
  273MOL    C8633270   7.320   5.509   2.816 -0.1287 -0.4634  0.1825
  273MOL    F8733271   7.327   5.639   2.791 -0.0190  0.6291 -0.2700
  273MOL    F8833272   7.445   5.463   2.790  0.0727  0.0240 -0.2550
  273MOL    C8933273   7.240   5.449   2.701 -0.0136 -0.1795  0.8598
  273MOL    H9033274   7.214   5.344   2.715 -1.2900 -0.2396 -1.6320
  273MOL    H9133275   7.306   5.459   2.614 -0.7353  0.0910  0.3407
  273MOL    C9233276   7.102   5.514   2.667 -0.4875  0.0236  0.3516
  273MOL    F9333277   7.014   5.509   2.766  0.0735  0.6837 -0.8751
  273MOL    F9433278   7.109   5.647   2.638  0.4368 -0.0289  0.1100
  273MOL    C9533279   7.031   5.444   2.556  0.3837  0.4888  0.5045
  273MOL    H9633280   6.925   5.471   2.550  0.3835  0.6497  1.2074
  273MOL    H9733281   7.025   5.336   2.570 -0.8970  0.4924  0.0492
  273MOL    C9833282   7.096   5.451   2.412 -0.3049 -0.0277  0.6783
  273MOL    F9933283   7.101   5.582   2.378 -0.2167  0.5126 -0.4896
  273MOL   F10033284   7.204   5.389   2.396 -0.2722 -0.0960  0.1408
  273MOL   C10133285   7.006   5.387   2.306 -0.2367  0.6539 -0.2091
  273MOL   H10233286   6.910   5.439   2.315 -0.4971 -0.1722  2.1761
  273MOL   H10333287   6.986   5.281   2.322  0.3454  0.6431  0.4558
  273MOL   C10433288   7.042   5.418   2.155 -0.4194 -0.0450 -0.2389
  273MOL   F10533289   7.030   5.551   2.137  0.7820  0.3170 -0.5717
  273MOL   F10633290   7.167   5.379   2.126  0.7828  0.2844 -0.1161
  273MOL   C10733291   6.955   5.356   2.044  0.2698 -0.7135  0.1910
  273MOL   H10833292   6.857   5.400   2.055  0.5441 -0.4834  1.7975
  273MOL   H10933293   6.939   5.249   2.059 -0.6842 -0.4452  1.1020
  273MOL   C11033294   7.003   5.383   1.901  0.1533 -0.0421 -0.4517
  273MOL   F11133295   7.048   5.508   1.885 -0.0497 -0.3198 -0.3224
  273MOL   F11233296   7.114   5.307   1.873  0.0959  0.0639 -0.0792
  273MOL   C11333297   6.902   5.352   1.793  0.3704 -0.4555  0.5075
  273MOL   H11433298   6.905   5.247   1.765 -0.6949 -1.2254  3.1690
  273MOL   H11533299   6.939   5.411   1.709 -0.3725  1.3157  1.4040
  273MOL   C11633300   6.757   5.398   1.812 -0.2423 -0.4565 -0.6741
  273MOL   F11733301   6.687   5.341   1.910  0.1257  0.1600 -0.6105
  273MOL   F11833302   6.778   5.529   1.828  0.0215  0.7826  0.0572
  273MOL   C11933303   6.679   5.374   1.680 -0.4034  0.3623 -0.2293
  273MOL   H12033304   6.685   5.267   1.661 -1.4410  0.4364 -1.0558
  273MOL   H12133305   6.720   5.441   1.605  0.9524  0.1776  0.3513
  273MOL   H12233306   6.572   5.390   1.695 -0.7470 -1.7758 -0.1935
  274MOL     C133307   0.850   2.820   6.818 -0.2068  0.0690 -0.1851
  274MOL     F233308   0.847   2.878   6.701 -0.2401 -0.2229  0.0115
  274MOL     F333309   0.963   2.843   6.877  0.6929  0.1705  0.0844
  274MOL     C433310   0.830   2.659   6.800  0.0800  0.3846 -0.1686
  274MOL     H533311   0.912   2.623   6.739 -0.0954  0.0977 -0.2346
  274MOL     H633312   0.738   2.638   6.745 -0.3489  1.0826  0.2661
  274MOL     H733313   0.768   2.858   6.879  1.5364 -1.0030  2.9086
  274MOL     C833314   0.823   2.588   6.936  0.8510 -0.1158  0.0492
  274MOL     F933315   0.924   2.614   7.014 -0.8567 -0.1500  0.4416
  274MOL    F1033316   0.720   2.639   6.992  0.0382 -0.1936  0.0085
  274MOL    C1133317   0.808   2.438   6.921  0.3120  0.2993  0.0992
  274MOL    H1233318   0.904   2.401   6.886 -0.6573 -1.4272 -0.8310
  274MOL    H1333319   0.725   2.425   6.851 -0.1407 -1.1611  0.8877
  274MOL    C1433320   0.781   2.364   7.052  0.6628 -0.4157  0.4509
  274MOL    F1533321   0.873   2.380   7.151  0.0908 -0.0997  0.0495
  274MOL    F1633322   0.664   2.405   7.107  0.2612 -0.3324  0.0350
  274MOL    C1733323   0.759   2.209   7.034 -0.2548 -0.7414 -0.1962
  274MOL    H1833324   0.663   2.184   6.989 -0.8275 -1.4184  1.3408
  274MOL    H1933325   0.733   2.166   7.131 -1.2630  3.1800  1.3659
  274MOL    C2033326   0.880   2.129   6.977  0.1328  0.5772  0.6328
  274MOL    F2133327   0.833   2.003   6.977  0.0184  0.0224  0.2090
  274MOL    F2233328   0.919   2.160   6.850 -0.0145  0.1653  0.2941
  274MOL    C2333329   1.004   2.132   7.073  0.5197 -0.1595  0.4118
  274MOL    H2433330   0.966   2.130   7.175 -1.7513  1.5732 -0.3655
  274MOL    H2533331   1.041   2.232   7.049 -1.5268  0.9490  1.7353
  274MOL    C2633332   1.127   2.043   7.042  0.5390 -0.4237 -0.6209
  274MOL    F2733333   1.230   2.081   7.124 -0.1458  0.5840 -0.2246
  274MOL    F2833334   1.081   1.928   7.076 -0.3237 -0.0713 -0.2071
  274MOL    C2933335   1.166   2.044   6.886  0.1669  0.6263 -0.1837
  274MOL    H3033336   1.188   2.142   6.845  1.5220  0.2500 -0.3718
  274MOL    H3133337   1.079   2.008   6.831 -0.0313  0.0690  0.4814
  274MOL    C3233338   1.284   1.947   6.864  0.6584 -0.3490 -0.1066
  274MOL    F3333339   1.395   1.974   6.930  0.2707 -0.2299  0.4076
  274MOL    F3433340   1.248   1.833   6.905  0.4609 -0.4693 -0.1052
  274MOL    C3533341   1.328   1.921   6.719 -0.1235  0.2282 -0.5269
  274MOL    H3633342   1.234   1.901   6.669 -0.4977 -0.1933  0.3306
  274MOL    H3733343   1.395   1.834   6.722  1.5223  1.4856  0.1584
  274MOL    C3833344   1.388   2.039   6.639  0.6928  0.5562 -0.5731
  274MOL    F3933345   1.405   1.999   6.515 -0.4005  0.1262 -0.0844
  274MOL    F4033346   1.296   2.132   6.618  0.4244  0.0227 -0.3687
  274MOL    C4133347   1.518   2.099   6.699  0.4553 -0.2853 -0.1708
  274MOL    H4233348   1.499   2.147   6.795 -0.8568  1.3264 -1.1935
  274MOL    H4333349   1.556   2.185   6.644 -1.4215 -0.6113 -2.0751
  274MOL    C4433350   1.640   1.999   6.719  0.1298  0.1499 -0.2932
  274MOL    F4533351   1.591   1.899   6.790 -0.1442 -0.1996  0.0117
  274MOL    F4633352   1.684   1.937   6.604  0.1663 -0.5769  0.0931
  274MOL    C4733353   1.757   2.063   6.795 -0.0112 -0.1810 -0.1279
  274MOL    H4833354   1.817   1.984   6.840 -0.2355 -0.1464  0.2331
  274MOL    H4933355   1.709   2.109   6.881 -0.9160  0.1041 -0.7849
  274MOL    C5033356   1.854   2.159   6.719 -0.2430 -0.4722 -0.2163
  274MOL    F5133357   1.867   2.121   6.598 -0.0692 -0.5562  0.0302
  274MOL    F5233358   1.800   2.276   6.708  0.2720 -0.0291  0.2335
  274MOL    C5333359   1.986   2.190   6.779  0.0880 -0.4055 -0.8561
  274MOL    H5433360   2.032   2.251   6.702 -0.0802  0.9447  0.1050
  274MOL    H5533361   2.035   2.092   6.784  0.5113 -0.1417  0.4101
  274MOL    C5633362   1.993   2.253   6.919  0.2101  0.0244  0.0064
  274MOL    F5733363   1.964   2.386   6.915  0.4003  0.2190 -0.3220
  274MOL    F5833364   1.909   2.192   7.000  0.0534 -0.2010  0.3079
  274MOL    C5933365   2.144   2.239   6.973  0.5567  0.0862  0.5026
  274MOL    H6033366   2.218   2.258   6.895  1.3924  1.2727  1.5492
  274MOL    H6133367   2.172   2.134   6.974 -1.0124 -0.3937 -2.7769
  274MOL    C6233368   2.188   2.329   7.092 -0.1602 -0.0944  0.2119
  274MOL    F6333369   2.210   2.452   7.040 -0.0918  0.4162 -0.4231
  274MOL    F6433370   2.088   2.341   7.181  0.0108  0.0950  0.5017
  274MOL    C6533371   2.308   2.275   7.177 -0.0544  0.6030 -1.1444
  274MOL    H6633372   2.311   2.361   7.243 -1.2310  1.2572 -1.9155
  274MOL    H6733373   2.404   2.279   7.126  0.3385  1.4183 -0.3394
  274MOL    C6833374   2.297   2.135   7.247  0.4938 -0.3651  0.6317
  274MOL    F6933375   2.168   2.112   7.279 -0.0436 -0.6894  0.2548
  274MOL    F7033376   2.317   2.045   7.147  0.5082  0.2822  0.5857
  274MOL    C7133377   2.395   2.110   7.361  0.5633 -0.3448 -0.5305
  274MOL    H7233378   2.382   2.195   7.428 -0.9113 -3.1385  2.8726
  274MOL    H7333379   2.494   2.115   7.316  0.1660 -0.9207 -1.4900
  274MOL    C7433380   2.371   1.980   7.445  0.5569 -0.1437  1.0166
  274MOL    F7533381   2.247   1.993   7.499  0.2729 -0.1191 -0.1338
  274MOL    F7633382   2.375   1.870   7.370  0.3003 -0.1473  0.3538
  274MOL    C7733383   2.469   1.965   7.556 -0.2322 -0.4160  0.1433
  274MOL    H7833384   2.433   1.889   7.625 -0.2437  0.0921  0.6981
  274MOL    H7933385   2.456   2.051   7.622  2.2992  1.2531 -1.4289
  274MOL    C8033386   2.613   1.945   7.517 -0.4731 -0.2638 -0.2757
  274MOL    F8133387   2.627   1.827   7.465  0.2261 -0.1944  0.2992
  274MOL    F8233388   2.657   2.035   7.426 -0.3910 -0.0735  0.2742
  274MOL    C8333389   2.694   1.953   7.647 -0.1692 -0.6579  0.9161
  274MOL    H8433390   2.689   1.861   7.706 -1.5122 -1.1284  0.0892
  274MOL    H8533391   2.657   2.040   7.702  1.1114  0.5952 -0.1651
  274MOL    C8633392   2.841   1.966   7.618  0.2437  0.1642 -1.3709
  274MOL    F8733393   2.867   1.857   7.550 -0.0323 -0.3693  0.1381
  274MOL    F8833394   2.877   2.067   7.540 -0.2756 -0.3311  0.0186
  274MOL    C8933395   2.937   1.970   7.745  0.8651  0.3479 -0.9340
  274MOL    H9033396   2.947   2.075   7.771  1.9067  0.2116 -0.7814
  274MOL    H9133397   3.035   1.942   7.705  1.1372 -1.7327  1.1196
  274MOL    C9233398   2.906   1.880   7.868 -0.5768  0.1137 -0.0713
  274MOL    F9333399   2.799   1.929   7.926 -0.6684  0.2453 -0.1637
  274MOL    F9433400   2.876   1.760   7.818  0.1516  0.2546  0.5780
  274MOL    C9533401   3.027   1.883   7.964  0.5060 -0.6782 -0.2810
  274MOL    H9633402   3.016   1.982   8.006  2.5942 -1.2093  1.6108
  274MOL    H9733403   3.122   1.892   7.912  1.3952 -0.0819  1.4263
  274MOL    C9833404   3.022   1.784   8.081 -0.5219  0.2198 -0.4044
  274MOL    F9933405   3.118   1.822   8.164 -0.0884 -0.5511  0.0301
  274MOL   F10033406   2.916   1.784   8.160  0.0302  0.6576  0.1600
  274MOL   C10133407   3.054   1.637   8.031  0.1272  0.8398  0.1140
  274MOL   H10233408   3.133   1.646   7.957  0.4771  1.7340  0.5917
  274MOL   H10333409   2.959   1.606   7.987  0.0981  1.6887 -0.4322
  274MOL   C10433410   3.080   1.524   8.136  0.1991  0.2857 -0.1319
  274MOL   F10533411   3.193   1.543   8.199 -0.0444 -0.2922  0.1367
  274MOL   F10633412   2.980   1.543   8.215 -0.2134 -0.4484  0.1830
  274MOL   C10733413   3.073   1.384   8.073  0.0603  0.2177  0.4898
  274MOL   H10833414   3.147   1.371   7.994  0.6149 -1.4390  1.2508
  274MOL   H10933415   2.981   1.373   8.016  0.3394  1.8432 -0.2736
  274MOL   C11033416   3.072   1.256   8.170 -0.4231  0.0396  0.5448
  274MOL   F11133417   3.193   1.228   8.231  0.5078  0.5370 -0.1921
  274MOL   F11233418   2.978   1.265   8.264 -0.3088 -0.4002 -0.1829
  274MOL   C11333419   3.039   1.124   8.089  0.2963 -0.4922 -0.6565
  274MOL   H11433420   3.034   1.037   8.155  0.7519 -1.3811 -1.7683
  274MOL   H11533421   3.120   1.096   8.022  0.9104  0.2559 -0.2294
  274MOL   C11633422   2.899   1.116   8.021 -0.1406 -0.0433 -0.0096
  274MOL   F11733423   2.887   1.194   7.914 -0.7364  0.3013 -0.6252
  274MOL   F11833424   2.903   0.988   7.973 -0.6380  0.5779  0.4554
  274MOL   C11933425   2.784   1.135   8.116  0.2196  0.0714  0.1923
  274MOL   H12033426   2.693   1.101   8.066 -0.2644  1.1742  0.3103
  274MOL   H12133427   2.772   1.238   8.148  2.6014  0.9001 -1.4868
  274MOL   H12233428   2.795   1.077   8.208 -1.3910 -3.0974 -1.5147
  275MOL     C133429   7.058   6.487   5.906  0.2024  0.4531  0.0733
  275MOL     F233430   7.169   6.426   5.879  0.7927  0.2111  0.2272
  275MOL     F333431   7.001   6.508   5.789 -0.2141  0.3048  0.2270
  275MOL     C433432   7.066   6.625   5.978  1.4757  0.4572  0.5695
  275MOL     H533433   7.145   6.688   5.936 -0.1330  2.0408 -0.1360
  275MOL     H633434   7.102   6.610   6.080  1.6640  0.4590  0.5029
  275MOL     H733435   6.994   6.423   5.967 -0.3874  0.6598 -0.3196
  275MOL     C833436   6.931   6.700   5.981  0.0367  0.3048  0.4300
  275MOL     F933437   6.825   6.620   6.001 -0.3951 -0.5892  0.0180
  275MOL    F1033438   6.931   6.791   6.080 -0.4894  0.0681 -0.2408
  275MOL    C1133439   6.890   6.776   5.851  0.0239  0.1042  0.3297
  275MOL    H1233440   6.798   6.829   5.875 -0.1495 -0.9586  2.1515
  275MOL    H1333441   6.857   6.704   5.777  1.6164  1.2040 -1.4956
  275MOL    C1433442   6.985   6.880   5.799  1.0495  0.1347 -0.0400
  275MOL    F1533443   7.099   6.826   5.755  0.1055  0.4074  0.0063
  275MOL    F1633444   6.929   6.930   5.694 -0.1337  0.5614  0.2355
  275MOL    C1733445   7.017   6.989   5.904  0.1030 -0.0601  0.5279
  275MOL    H1833446   7.083   6.937   5.973  1.3683  0.7438 -0.0604
  275MOL    H1933447   6.933   7.022   5.964 -0.4935  0.3884 -0.5250
  275MOL    C2033448   7.095   7.112   5.842  0.0845 -0.0229 -0.3955
  275MOL    F2133449   6.998   7.178   5.775 -0.1335  0.4342  0.4102
  275MOL    F2233450   7.139   7.180   5.947 -0.2692 -0.2089 -0.5466
  275MOL    C2333451   7.232   7.089   5.772 -0.3707 -0.9886  0.3864
  275MOL    H2433452   7.204   7.034   5.682  0.8257 -1.2350  0.1476
  275MOL    H2533453   7.284   7.012   5.830  2.9537  0.4743 -0.4954
  275MOL    C2633454   7.324   7.206   5.745  0.1913  0.0189 -0.2100
  275MOL    F2733455   7.403   7.149   5.663 -0.2829  0.3907  0.5119
  275MOL    F2833456   7.258   7.304   5.687  0.0887  0.2401 -0.0793
  275MOL    C2933457   7.394   7.254   5.870 -0.1947 -0.3796  0.8295
  275MOL    H3033458   7.433   7.167   5.923 -2.4780 -0.7367  1.9342
  275MOL    H3133459   7.326   7.309   5.934  0.9265 -0.1729  1.8714
  275MOL    C3233460   7.524   7.337   5.851 -0.3290 -0.6215 -0.6350
  275MOL    F3333461   7.576   7.360   5.974 -0.4886 -0.2984  0.3235
  275MOL    F3433462   7.608   7.271   5.774 -0.0622  0.0283 -0.4552
  275MOL    C3533463   7.511   7.476   5.783 -0.3024 -0.2197  0.4101
  275MOL    H3633464   7.505   7.463   5.675 -1.1359 -1.9046  0.6357
  275MOL    H3733465   7.602   7.528   5.811  0.9848 -1.3339 -1.5822
  275MOL    C3833466   7.397   7.571   5.839  0.1318 -0.5981 -0.5745
  275MOL    F3933467   7.267   7.533   5.830 -0.2477 -0.2819 -0.5118
  275MOL    F4033468   7.420   7.600   5.975 -0.1818  0.0586 -0.6986
  275MOL    C4133469   7.399   7.715   5.778  0.1892 -0.3397  0.0283
  275MOL    H4233470   7.401   7.705   5.670 -2.5047 -0.3128 -0.0585
  275MOL    H4333471   7.490   7.763   5.814 -0.5383 -1.5586  3.7006
  275MOL    C4433472   7.282   7.819   5.808  0.1453 -0.2929 -0.7864
  275MOL    F4533473   7.298   7.927   5.735 -0.4261  1.0393  0.3867
  275MOL    F4633474   7.169   7.767   5.760  0.3473 -0.2609 -0.0010
  275MOL    C4733475   7.283   7.848   5.955 -0.0787 -0.0170  0.8031
  275MOL    H4833476   7.380   7.877   5.995 -1.0756  1.6623  2.0330
  275MOL    H4933477   7.247   7.756   6.002 -2.3926  0.1105 -0.6455
  275MOL    C5033478   7.176   7.940   6.001 -0.2805 -0.9869 -0.9429
  275MOL    F5133479   7.062   7.882   5.977 -0.0973  0.5561  0.5918
  275MOL    F5233480   7.188   7.958   6.130  0.2784  0.7621  0.2607
  275MOL    C5333481   7.158   8.084   5.942 -0.8118  0.0330 -0.3839
  275MOL    H5433482   7.146   8.075   5.834 -0.1537  0.5423 -0.4997
  275MOL    H5533483   7.258   8.127   5.940  0.0344 -1.8426  0.5765
  275MOL    C5633484   7.048   8.171   6.010  0.1388 -0.0359  0.3980
  275MOL    F5733485   6.928   8.111   6.005  0.5086  0.6057 -0.3849
  275MOL    F5833486   7.078   8.187   6.140 -0.2100 -0.1186  0.2058
  275MOL    C5933487   7.036   8.316   5.961  0.8052  1.0498 -0.6651
  275MOL    H6033488   7.132   0.012   5.982  1.0047 -0.1862  1.3133
  275MOL    H6133489   6.963   0.019   6.023  0.1894 -0.9181  0.3487
  275MOL    C6233490   6.984   8.349   5.817 -0.1727  0.7745  0.2454
  275MOL    F6333491   7.048   8.279   5.722  0.1739  0.0883 -0.2363
  275MOL    F6433492   6.853   8.333   5.810  0.2005  0.0402  0.1991
  275MOL    C6533493   7.015   0.150   5.780  0.7519  0.4024  0.2881
  275MOL    H6633494   6.986   0.167   5.676 -0.1921 -0.9170  0.3352
  275MOL    H6733495   7.124   0.143   5.780  0.8797  2.0330  0.0134
  275MOL    C6833496   6.973   0.264   5.867  0.0643 -0.7043  0.2063
  275MOL    F6933497   6.840   0.244   5.890 -0.2633  0.5386  0.4162
  275MOL    F7033498   7.036   0.271   5.982  0.3667 -0.0722 -0.0871
  275MOL    C7133499   6.974   0.396   5.800  0.2702  0.2671 -0.3537
  275MOL    H7233500   6.941   0.477   5.866 -2.6490 -1.4118  0.3387
  275MOL    H7333501   6.896   0.385   5.725 -1.0556  1.2369  0.8517
  275MOL    C7433502   7.100   0.447   5.731  0.7239  0.8367  0.3048
  275MOL    F7533503   7.196   0.444   5.825 -0.0031  0.1564  0.6216
  275MOL    F7633504   7.128   0.352   5.636 -0.3446 -0.3445 -0.0744
  275MOL    C7733505   7.090   0.587   5.670 -0.6065  0.2766 -0.8039
  275MOL    H7833506   7.049   0.658   5.743 -0.9533 -2.0815  1.3746
  275MOL    H7933507   7.028   0.593   5.581 -1.0085 -1.0836 -0.6224
  275MOL    C8033508   7.221   0.652   5.627 -0.1252  0.0310  0.0758
  275MOL    F8133509   7.189   0.774   5.569 -0.4240 -0.8218 -0.1857
  275MOL    F8233510   7.300   0.676   5.735  0.2628  0.0212  0.0186
  275MOL    C8333511   7.284   0.558   5.526 -0.8314 -0.4682 -0.8459
  275MOL    H8433512   7.208   0.518   5.460 -1.5957 -2.0871  0.9465
  275MOL    H8533513   7.304   0.469   5.587 -0.4190  0.7399  0.8101
  275MOL    C8633514   7.395   0.613   5.443  0.0166  0.1396 -0.3849
  275MOL    F8733515   7.446   0.521   5.363 -0.1845 -0.3576 -0.0823
  275MOL    F8833516   7.333   0.702   5.366 -0.0682 -0.1959  0.0063
  275MOL    C8933517   7.515   0.683   5.509  0.3666  0.5308  0.0928
  275MOL    H9033518   7.477   0.761   5.575 -0.3102  0.8163 -0.6297
  275MOL    H9133519   7.567   0.738   5.431 -1.2406  0.2275 -1.2058
  275MOL    C9233520   7.615   0.591   5.588 -0.1819  0.3953  0.6057
  275MOL    F9333521   7.554   0.540   5.691 -0.1598  0.1631  0.3052
  275MOL    F9433522   7.659   0.483   5.522  0.4223  0.3043 -0.3671
  275MOL    C9533523   7.747   0.664   5.630 -0.3393  0.2950  0.1602
  275MOL    H9633524   7.800   0.695   5.540 -1.8074  1.2990 -0.3865
  275MOL    H9733525   7.805   0.589   5.683 -2.2166 -0.1049  1.7245
  275MOL    C9833526   7.741   0.791   5.715  0.1483  0.0290 -0.3511
  275MOL    F9933527   7.681   0.886   5.639  0.1757  0.0153 -0.3543
  275MOL   F10033528   7.650   0.765   5.811 -0.2625 -0.1786 -0.1348
  275MOL   C10133529   7.873   0.847   5.780  0.4669 -0.2976  0.2288
  275MOL   H10233530   7.951   0.832   5.705 -0.8703 -0.0357 -1.2252
  275MOL   H10333531   7.891   0.781   5.864 -4.1604  0.3428  1.8608
  275MOL   C10433532   7.877   1.000   5.831 -0.0261  0.4372  0.1540
  275MOL   F10533533   7.995   1.043   5.869 -0.0803 -0.4852  0.0752
  275MOL   F10633534   7.847   1.068   5.729 -0.5804  0.5182  0.7399
  275MOL   C10733535   7.768   1.027   5.933  0.3983  0.3281  0.4214
  275MOL   H10833536   7.672   0.997   5.890  0.1458 -2.1671  2.6071
  275MOL   H10933537   7.765   1.136   5.936 -1.2628  0.3469 -1.2444
  275MOL   C11033538   7.773   0.968   6.079  0.4229 -0.9270 -0.2777
  275MOL   F11133539   7.780   0.830   6.079 -0.2055 -0.1466  0.0269
  275MOL   F11233540   7.888   1.003   6.141  0.2152 -0.2933 -0.4498
  275MOL   C11333541   7.660   1.015   6.172  0.0495  0.5521 -0.0262
  275MOL   H11433542   7.567   0.969   6.140  0.9855 -0.6086 -1.0899
  275MOL   H11533543   7.653   1.123   6.159 -1.2589  0.4960  0.1434
  275MOL   C11633544   7.679   0.973   6.320 -0.0280  0.0096 -0.3913
  275MOL   F11733545   7.695   0.838   6.328  0.0625  0.5142  0.4082
  275MOL   F11833546   7.785   1.042   6.355 -0.4288 -0.1167 -0.4483
  275MOL   C11933547   7.567   1.007   6.412  0.0289 -0.2343 -0.6480
  275MOL   H12033548   7.562   1.115   6.423  0.2840 -0.4244  1.6378
  275MOL   H12133549   7.587   0.960   6.509 -0.4406  0.2612 -0.3119
  275MOL   H12233550   7.475   0.969   6.367 -0.1697 -2.6856  1.6919
  276MOL     C133551   4.771   7.050   6.983 -0.1581 -0.3538 -0.1693
  276MOL     F233552   4.896   7.003   6.980  0.2051  0.3427  0.1026
  276MOL     F333553   4.757   7.153   6.903 -0.4563 -0.1116  0.6113
  276MOL     C433554   4.734   7.079   7.130  0.7442 -0.4255 -0.2280
  276MOL     H533555   4.800   7.160   7.161  0.1041 -0.1408  0.4053
  276MOL     H633556   4.768   6.995   7.189  0.4467 -0.9201 -0.7559
  276MOL     H733557   4.710   6.968   6.946 -1.6680  1.3256 -1.5194
  276MOL     C833558   4.584   7.104   7.165 -0.2055 -0.6725 -0.3611
  276MOL     F933559   4.538   7.195   7.075  0.2458  0.6959 -0.1336
  276MOL    F1033560   4.523   6.995   7.147  0.3139  0.1917  0.1388
  276MOL    C1133561   4.558   7.173   7.302  0.5392  0.2362  0.1892
  276MOL    H1233562   4.459   7.219   7.294  0.6407  0.1845 -1.6017
  276MOL    H1333563   4.620   7.262   7.316  2.4690 -1.0331 -0.2087
  276MOL    C1433564   4.564   7.076   7.424  0.3215  0.4397  0.3909
  276MOL    F1533565   4.680   7.016   7.416 -0.3007 -0.3235 -0.8311
  276MOL    F1633566   4.565   7.155   7.526  0.2642  0.1786 -0.3797
  276MOL    C1733567   4.454   6.970   7.435  0.5941  0.5054 -0.2157
  276MOL    H1833568   4.470   6.892   7.361 -1.0937 -0.9383  0.8943
  276MOL    H1933569   4.360   7.019   7.408 -1.3329 -1.4086  2.7673
  276MOL    C2033570   4.435   6.895   7.571 -0.1256  0.4896 -0.4273
  276MOL    F2133571   4.386   6.984   7.658  0.0774  0.3282  0.1023
  276MOL    F2233572   4.349   6.795   7.552 -0.3543  0.1016  0.1082
  276MOL    C2333573   4.561   6.832   7.623  0.0836 -0.2657 -0.7829
  276MOL    H2433574   4.613   6.919   7.665 -2.5060  0.6311  0.6353
  276MOL    H2533575   4.616   6.788   7.539  1.4938  1.5322 -0.8342
  276MOL    C2633576   4.544   6.724   7.738  0.1786  0.0475 -0.1667
  276MOL    F2733577   4.472   6.626   7.684 -0.4515  0.3178  0.5619
  276MOL    F2833578   4.661   6.671   7.769  0.1265 -0.5753  0.0937
  276MOL    C2933579   4.473   6.780   7.865  0.1876  0.1762 -0.5709
  276MOL    H3033580   4.367   6.773   7.838  0.1362  0.1789 -0.3691
  276MOL    H3133581   4.476   6.887   7.882  2.7097  0.3167 -1.6933
  276MOL    C3233582   4.494   6.713   8.005  0.6966 -0.1721 -0.0779
  276MOL    F3333583   4.611   6.748   8.055  0.1355  0.0281  0.2659
  276MOL    F3433584   4.401   6.751   8.091 -0.1482 -0.9716  0.0172
  276MOL    C3533585   4.481   6.560   8.007  0.2599 -0.2667 -0.0908
  276MOL    H3633586   4.568   6.526   7.952 -0.1079  1.8097 -2.0450
  276MOL    H3733587   4.385   6.528   7.964 -0.6464  0.0903  1.6176
  276MOL    C3833588   4.480   6.482   8.138  0.5935 -0.0750  0.2946
  276MOL    F3933589   4.358   6.489   8.196 -0.1242  0.1850  0.1200
  276MOL    F4033590   4.498   6.360   8.089 -0.3140 -0.3982 -0.1786
  276MOL    C4133591   4.589   6.497   8.241 -0.2391 -0.2443 -0.0725
  276MOL    H4233592   4.574   6.599   8.275 -1.2989  0.6624 -3.0742
  276MOL    H4333593   4.686   6.498   8.192 -0.4721 -1.6994 -0.6111
  276MOL    C4433594   4.571   6.391   0.007 -0.5226 -0.2463  0.6045
  276MOL    F4533595   4.442   6.392   0.039 -0.2867  0.0912 -0.1115
  276MOL    F4633596   4.609   6.269   8.310 -0.1013  0.5032 -0.3604
  276MOL    C4733597   4.655   6.433   0.132 -0.0099 -0.4932  0.0549
  276MOL    H4833598   4.644   6.538   0.158  0.2052 -1.0129  2.3618
  276MOL    H4933599   4.758   6.431   0.098  0.5363 -0.2842  1.6815
  276MOL    C5033600   4.632   6.367   0.273  0.4269  0.6087 -0.4843
  276MOL    F5133601   4.662   6.234   0.279 -0.3477 -0.1172  0.1319
  276MOL    F5233602   4.723   6.432   0.339 -0.6031 -0.5239  0.4246
  276MOL    C5333603   4.489   6.398   0.327 -0.5132 -0.3057  0.1835
  276MOL    H5433604   4.476   6.339   0.418  0.8599  2.0679  1.9935
  276MOL    H5533605   4.414   6.350   0.264  0.4567  0.4550 -1.5836
  276MOL    C5633606   4.442   6.540   0.370  0.1233 -0.1467  0.0971
  276MOL    F5733607   4.533   6.601   0.448  0.3696  0.0277  0.6288
  276MOL    F5833608   4.413   6.610   0.256 -0.1286  0.0943  0.3782
  276MOL    C5933609   4.308   6.542   0.455 -0.3448  0.2887 -0.3056
  276MOL    H6033610   4.322   6.491   0.551  1.1795  0.7999 -0.2429
  276MOL    H6133611   4.232   6.479   0.410  0.3373 -0.4602 -0.4078
  276MOL    C6233612   4.244   6.682   0.471  0.3456 -0.3067  0.4669
  276MOL    F6333613   4.325   6.750   0.550  0.1432  0.3029  0.1314
  276MOL    F6433614   4.233   6.743   0.348 -0.4107  0.5551  0.3032
  276MOL    C6533615   4.111   6.666   0.550 -0.1447  0.2331  0.8691
  276MOL    H6633616   4.127   6.639   0.654 -0.7803 -1.6475  0.5070
  276MOL    H6733617   4.056   6.580   0.511 -0.1224 -0.1014  1.5745
  276MOL    C6833618   4.012   6.777   0.537  0.3442  0.6801  0.0165
  276MOL    F6933619   3.998   6.794   0.404 -0.0865  0.0917  0.0804
  276MOL    F7033620   3.898   6.740   0.578  0.2715  0.0841 -0.1992
  276MOL    C7133621   4.051   6.907   0.614 -0.2105 -0.6813  0.5653
  276MOL    H7233622   4.152   6.937   0.587 -0.6353  0.1531 -0.1243
  276MOL    H7333623   4.047   6.879   0.719 -1.7247 -2.7577  0.0085
  276MOL    C7433624   3.946   7.023   0.600  0.4301 -0.5306  0.0740
  276MOL    F7533625   4.003   7.137   0.654  0.1190 -0.1902  0.5954
  276MOL    F7633626   3.943   7.046   0.473 -0.2360  0.4283 -0.5355
  276MOL    C7733627   3.798   6.996   0.651 -0.3979  0.0635  1.0675
  276MOL    H7833628   3.794   6.927   0.735  0.4811  1.0905  1.9588
  276MOL    H7933629   3.754   6.927   0.579  1.7824 -0.8080  0.5388
  276MOL    C8033630   3.705   7.117   0.660  0.0193 -1.1755  0.4946
  276MOL    F8133631   3.585   7.072   0.695  0.2490 -0.3982 -0.5442
  276MOL    F8233632   3.758   7.205   0.748  0.4841  0.5835 -0.0790
  276MOL    C8333633   3.674   7.177   0.516  0.3787  0.4931 -0.7917
  276MOL    H8433634   3.646   7.096   0.449  1.5222 -0.5775 -0.0097
  276MOL    H8533635   3.772   7.218   0.491  1.8036 -2.5440 -0.3622
  276MOL    C8633636   3.560   7.278   0.496  0.3325 -0.1916 -0.0097
  276MOL    F8733637   3.566   7.305   0.371 -0.3926  0.0213 -0.0458
  276MOL    F8833638   3.438   7.223   0.520 -0.2715  0.0425 -0.2775
  276MOL    C8933639   3.575   7.410   0.576  0.2123 -0.9669  0.3963
  276MOL    H9033640   3.653   7.466   0.525 -2.1769  3.3682  1.2157
  276MOL    H9133641   3.606   7.390   0.678  0.2710  1.0530  0.7940
  276MOL    C9233642   3.451   7.499   0.591  0.4377 -0.2954  0.8563
  276MOL    F9333643   3.352   7.434   0.630  0.1776 -0.1069  0.1327
  276MOL    F9433644   3.492   7.589   0.676  0.7888 -0.3856  0.5069
  276MOL    C9533645   3.413   7.568   0.455  0.3123  0.5594 -0.2885
  276MOL    H9633646   3.382   7.488   0.387  1.9404 -0.4017  0.0641
  276MOL    H9733647   3.497   7.615   0.405 -0.3558  2.1106  0.0181
  276MOL    C9833648   3.310   7.681   0.444  0.3952 -0.1888 -0.0689
  276MOL    F9933649   3.352   7.790   0.509  0.4135 -0.0744 -0.2013
  276MOL   F10033650   3.313   7.714   0.318  0.0022 -0.4584  0.0446
  276MOL   C10133651   3.177   7.633   0.487 -0.2202  0.3500 -0.2344
  276MOL   H10233652   3.175   7.616   0.594  0.9748  1.7400  0.0221
  276MOL   H10333653   3.154   7.534   0.445  1.3289 -0.1262  0.0006
  276MOL   C10433654   3.064   7.723   0.470 -0.3189 -1.1728  0.4792
  276MOL   F10533655   3.107   7.846   0.511  0.2118 -0.3586  0.0881
  276MOL   F10633656   3.042   7.731   0.340 -0.1682  0.1746  0.7588
  276MOL   C10733657   2.935   7.685   0.539  0.8349 -0.5191  0.0073
  276MOL   H10833658   2.956   7.676   0.645 -0.1419  0.7313  0.3204
  276MOL   H10933659   2.897   7.586   0.513  1.7014 -0.7756 -0.3191
  276MOL   C11033660   2.821   7.780   0.537 -0.4013  0.2994  0.3650
  276MOL   F11133661   2.719   7.727   0.607  0.3427 -0.3930  0.1565
  276MOL   F11233662   2.854   7.900   0.593  0.3031  0.0824 -0.1172
  276MOL   C11333663   2.768   7.813   0.396 -0.4466 -0.4363  0.1575
  276MOL   H11433664   2.848   7.864   0.343 -0.3836 -2.2951 -1.5722
  276MOL   H11533665   2.695   7.892   0.412  0.8422  0.6188  0.8708
  276MOL   C11633666   2.711   7.699   0.312 -0.4185 -0.8113 -0.0844
  276MOL   F11733667   2.783   7.595   0.307 -0.6435 -0.1050  0.6108
  276MOL   F11833668   2.602   7.670   0.372  0.1827 -0.0234  0.2688
  276MOL   C11933669   2.672   7.754   0.171  0.0330  0.0268  0.3954
  276MOL   H12033670   2.753   7.796   0.111  0.8364 -1.4513  0.4036
  276MOL   H12133671   2.597   7.832   0.164 -1.1103 -0.9917  1.0978
  276MOL   H12233672   2.632   7.675   0.106  1.7604  0.2031 -0.9343
  277MOL     C133673   2.571   3.802   1.705 -0.2268 -0.0238 -0.4946
  277MOL     F233674   2.616   3.858   1.818 -0.0925  0.2016  0.0189
  277MOL     F333675   2.437   3.819   1.701 -0.6599  0.1226 -0.4205
  277MOL     C433676   2.608   3.653   1.706 -0.4596 -0.3916 -0.1596
  277MOL     H533677   2.556   3.606   1.790  0.0583  2.0073  1.5652
  277MOL     H633678   2.712   3.651   1.738 -0.3391 -1.6397 -0.6052
  277MOL     H733679   2.608   3.859   1.620 -2.7638  1.8811 -0.3812
  277MOL     C833680   2.584   3.584   1.573 -0.2305 -0.2110 -0.3803
  277MOL     F933681   2.452   3.605   1.560  0.1032  0.3578  0.2883
  277MOL    F1033682   2.651   3.655   1.476 -0.3301 -0.0615 -0.2994
  277MOL    C1133683   2.622   3.431   1.562  0.0168  0.0024 -1.1120
  277MOL    H1233684   2.626   3.387   1.463 -1.8072 -1.7606 -0.4315
  277MOL    H1333685   2.549   3.369   1.614  0.0872  1.0165  0.2196
  277MOL    C1433686   2.763   3.397   1.614 -0.2157 -0.6140 -0.5085
  277MOL    F1533687   2.850   3.488   1.577 -0.0326  0.4313  0.3158
  277MOL    F1633688   2.753   3.386   1.746  0.6998 -0.1182 -0.1284
  277MOL    C1733689   2.832   3.267   1.568  1.0786  0.7779  0.0686
  277MOL    H1833690   2.939   3.260   1.588  0.6042  2.9804  3.7787
  277MOL    H1933691   2.818   3.260   1.460  0.2364 -0.0029  0.2291
  277MOL    C2033692   2.758   3.134   1.618 -0.0563  0.1559  0.4193
  277MOL    F2133693   2.737   3.124   1.751 -0.1097 -0.6420 -0.2740
  277MOL    F2233694   2.638   3.135   1.561 -0.2650 -0.0666 -0.3355
  277MOL    C2333695   2.842   3.005   1.593  0.4621  0.1681 -0.8728
  277MOL    H2433696   2.934   3.009   1.652  0.5606  2.6141 -1.1451
  277MOL    H2533697   2.893   3.000   1.497 -1.1856 -2.5333 -1.6592
  277MOL    C2633698   2.773   2.864   1.617  0.2609 -0.1072 -0.3170
  277MOL    F2733699   2.871   2.774   1.600 -0.2171  0.2034  0.2693
  277MOL    F2833700   2.722   2.856   1.742 -0.0127  0.3612 -0.2552
  277MOL    C2933701   2.646   2.838   1.529  0.6660 -0.0420 -0.3362
  277MOL    H3033702   2.674   2.874   1.431 -1.5183  1.3954 -0.4656
  277MOL    H3133703   2.569   2.910   1.557 -1.5737 -2.7384  0.7526
  277MOL    C3233704   2.589   2.697   1.508  0.8161 -0.1896 -0.0209
  277MOL    F3333705   2.675   2.615   1.454 -0.6536 -0.2036  0.1212
  277MOL    F3433706   2.572   2.645   1.639 -0.4891  0.4435 -0.7187
  277MOL    C3533707   2.455   2.700   1.451 -0.6346 -0.1417 -0.7535
  277MOL    H3633708   2.406   2.784   1.499  3.0959  1.3966  0.5377
  277MOL    H3733709   2.393   2.615   1.482 -2.4257  0.0040 -3.7773
  277MOL    C3833710   2.453   2.714   1.299 -0.3719 -0.4057  0.3360
  277MOL    F3933711   2.495   2.826   1.250 -0.5951 -0.2015  0.1405
  277MOL    F4033712   2.515   2.616   1.236  0.2922 -0.2249  0.1086
  277MOL    C4133713   2.306   2.705   1.274 -0.8346 -0.4416  0.8005
  277MOL    H4233714   2.242   2.782   1.317  0.6074  0.9734  0.4311
  277MOL    H4333715   2.265   2.609   1.308 -0.8548 -1.5053 -2.0926
  277MOL    C4433716   2.269   2.713   1.122 -1.0527  0.6480  0.6797
  277MOL    F4533717   2.141   2.736   1.127  0.7367  0.1575 -0.1540
  277MOL    F4633718   2.325   2.821   1.074 -0.2181 -0.3405  0.0784
  277MOL    C4733719   2.305   2.591   1.028 -0.3147 -0.4448 -0.7264
  277MOL    H4833720   2.275   2.501   1.082  0.5644 -0.2173  0.1620
  277MOL    H4933721   2.414   2.583   1.024 -0.2114 -0.0026  0.9872
  277MOL    C5033722   2.244   2.591   0.881  0.1409  0.3356 -0.2809
  277MOL    F5133723   2.110   2.568   0.889  0.2042  0.0908 -0.1927
  277MOL    F5233724   2.261   2.718   0.836  0.3273  0.4448 -0.2612
  277MOL    C5333725   2.308   2.488   0.784  0.0541 -0.2134 -0.2316
  277MOL    H5433726   2.415   2.508   0.780  0.0637 -0.1232  0.3893
  277MOL    H5533727   2.270   2.522   0.688  1.2203  2.2214  0.1307
  277MOL    C5633728   2.271   2.342   0.803 -0.4899  0.1649 -0.1013
  277MOL    F5733729   2.308   2.308   0.921 -0.1931  0.1357 -0.2233
  277MOL    F5833730   2.135   2.319   0.793 -0.5235  0.4599 -0.3660
  277MOL    C5933731   2.345   2.243   0.712  0.1047  0.1006  0.1652
  277MOL    H6033732   2.289   2.252   0.619  2.1556  1.1513 -0.9789
  277MOL    H6133733   2.333   2.143   0.753  1.3796  0.8450  2.4485
  277MOL    C6233734   2.496   2.266   0.677 -0.5108  0.2294 -0.0089
  277MOL    F6333735   2.499   2.376   0.599  0.5638 -0.0914  0.4757
  277MOL    F6433736   2.550   2.279   0.799  0.2146 -0.4757 -0.9407
  277MOL    C6533737   2.553   2.148   0.596  0.7728  0.6661  0.6374
  277MOL    H6633738   2.491   2.129   0.508  0.4576  0.3213  0.9318
  277MOL    H6733739   2.534   2.057   0.652 -1.1153  1.9411  2.1268
  277MOL    C6833740   2.704   2.164   0.568  0.1574  0.3408 -0.0035
  277MOL    F6933741   2.715   2.255   0.472 -0.1719 -0.0295 -0.3593
  277MOL    F7033742   2.766   2.200   0.680 -0.2143 -0.3365  0.3657
  277MOL    C7133743   2.771   2.032   0.513  1.0360 -0.1556 -0.1361
  277MOL    H7233744   2.769   1.966   0.600  0.4999  0.8723  0.6607
  277MOL    H7333745   2.874   2.059   0.489  1.0095  1.7153  1.6838
  277MOL    C7433746   2.706   1.958   0.389 -0.3340 -0.7151 -0.7001
  277MOL    F7533747   2.775   1.842   0.387  0.4282 -0.0381  0.5358
  277MOL    F7633748   2.575   1.929   0.412  0.0395  0.0238 -0.4336
  277MOL    C7733749   2.714   2.020   0.246 -0.4271  0.6147 -0.3519
  277MOL    H7833750   2.648   2.107   0.243  0.4351  1.2987  0.2909
  277MOL    H7933751   2.678   1.948   0.173  2.8613 -1.8759  0.3570
  277MOL    C8033752   2.860   2.052   0.192  0.9497  0.7159 -0.5078
  277MOL    F8133753   2.917   2.141   0.276 -0.2150  0.7516  0.9279
  277MOL    F8233754   2.926   1.939   0.196  0.3212 -0.1381 -0.0107
  277MOL    C8333755   2.857   2.109   0.046 -0.2667  0.1213  0.0845
  277MOL    H8433756   2.797   2.201   0.045 -2.0947 -1.0290  0.7368
  277MOL    H8533757   2.803   2.034   8.337 -1.0920  0.1744  0.7665
  277MOL    C8633758   2.988   2.153   8.339 -0.2417  0.6901  0.5159
  277MOL    F8733759   3.037   2.238   0.071 -0.3434 -0.2936 -0.6253
  277MOL    F8833760   3.065   2.045   8.333 -0.4961 -0.0338  0.0477
  277MOL    C8933761   2.983   2.208   8.193  0.5050  0.3533 -0.6882
  277MOL    H9033762   2.917   2.295   8.190  0.7671  0.5412 -1.0355
  277MOL    H9133763   2.930   2.155   8.114 -0.7677 -1.7902  1.5302
  277MOL    C9233764   3.116   2.240   8.113 -0.0781  0.0768  0.1784
  277MOL    F9333765   3.185   2.123   8.102 -0.0681 -0.2026  0.0183
  277MOL    F9433766   3.087   2.274   7.988  0.2444  0.2386 -0.4899
  277MOL    C9533767   3.203   2.347   8.182 -0.1667  0.4368  0.5917
  277MOL    H9633768   3.293   2.354   8.121 -0.4871 -2.3131 -0.2647
  277MOL    H9733769   3.240   2.308   8.277 -1.2938  0.2275  0.9468
  277MOL    C9833770   3.143   2.489   8.196  0.0930 -0.2869  0.3553
  277MOL    F9933771   3.037   2.487   8.271 -0.1412  0.3543 -0.0326
  277MOL   F10033772   3.245   2.556   8.251 -0.1507 -0.1041 -0.4828
  277MOL   C10133773   3.100   2.560   8.065 -0.0394  0.5164  0.5334
  277MOL   H10233774   3.042   2.645   8.099  1.0104  2.5683 -2.6010
  277MOL   H10333775   3.022   2.500   8.018 -0.2341  0.7174  0.5973
  277MOL   C10433776   3.203   2.605   7.968 -0.0393  0.7199  0.4267
  277MOL   F10533777   3.274   2.706   8.019 -0.1886  0.2528  0.2458
  277MOL   F10633778   3.297   2.513   7.954 -0.1392 -0.0942  0.1624
  277MOL   C10733779   3.147   2.647   7.831 -0.7187 -0.3713 -0.0548
  277MOL   H10833780   3.102   2.563   7.777 -1.9578  1.6881 -2.3059
  277MOL   H10933781   3.225   2.678   7.762 -0.6095  0.0778  0.2710
  277MOL   C11033782   3.056   2.773   7.833 -0.3990  0.3521 -0.1757
  277MOL   F11133783   2.941   2.744   7.898  0.0861 -1.0516  0.3619
  277MOL   F11233784   3.117   2.865   7.911 -0.0327  0.7199  0.1687
  277MOL   C11333785   3.028   2.831   7.698 -0.1445 -0.2513  0.8630
  277MOL   H11433786   3.127   2.862   7.662  0.9332 -1.6620  2.5407
  277MOL   H11533787   2.984   2.929   7.716  0.2223 -0.2660  1.9032
  277MOL   C11633788   2.941   2.743   7.602  0.0070  0.5362 -0.4176
  277MOL   F11733789   2.979   2.608   7.600  0.3808  0.3687  0.3806
  277MOL   F11833790   2.810   2.760   7.619  0.3529 -0.0021 -0.3094
  277MOL   C11933791   2.960   2.770   7.453  0.0434 -0.1105  0.3404
  277MOL   H12033792   2.960   2.876   7.427  1.7348 -0.0468  0.5641
  277MOL   H12133793   2.898   2.706   7.389 -1.1199  0.4029  0.9356
  277MOL   H12233794   3.058   2.735   7.421 -0.9734 -0.1800 -2.9837
  278MOL     C133795   0.463   8.251   3.689  0.1483  0.8326  0.1520
  278MOL     F233796   0.465   8.285   3.560  0.0374 -0.2031 -0.4822
  278MOL     F333797   0.382   8.339   3.751 -0.4297 -0.3185 -0.2030
  278MOL     C433798   0.605   8.241   3.748  0.7897 -0.6619 -0.1637
  278MOL     H533799   0.586   8.255   3.854  1.5417 -1.5685  0.1010
  278MOL     H633800   0.663   8.328   3.718 -1.6878  0.4550 -1.8208
  278MOL     H733801   0.411   8.157   3.706  0.0571  0.2314 -3.0517
  278MOL     C833802   0.677   8.106   3.713  0.2599  0.6807 -1.2705
  278MOL     F933803   0.603   8.000   3.738 -0.3918  0.1612 -0.2492
  278MOL    F1033804   0.694   8.108   3.580  0.2604 -0.6588 -0.0589
  278MOL    C1133805   0.820   8.090   3.772 -0.1089 -0.2525  0.7481
  278MOL    H1233806   0.873   8.179   3.737  1.2393 -1.2876  0.0843
  278MOL    H1333807   0.879   8.009   3.730 -0.3754 -0.0051 -0.1123
  278MOL    C1433808   0.815   8.079   3.922 -0.2305 -0.2058 -0.1881
  278MOL    F1533809   0.780   8.203   3.963 -0.4406 -0.2858 -0.4302
  278MOL    F1633810   0.734   7.984   3.962 -0.2072  0.6095  0.4687
  278MOL    C1733811   0.950   8.046   3.992  0.5009 -0.1238 -0.1102
  278MOL    H1833812   0.967   7.939   3.978 -0.2305  0.0613 -2.8977
  278MOL    H1933813   0.931   8.059   4.098 -1.4138  0.9094 -0.5490
  278MOL    C2033814   1.079   8.113   3.947 -0.6383  0.9017 -0.8517
  278MOL    F2133815   1.180   8.063   4.020  0.2020 -0.0674 -0.2173
  278MOL    F2233816   1.097   8.087   3.818 -0.3702 -0.3391 -0.6496
  278MOL    C2333817   1.074   8.265   3.957 -0.0507  0.0128  0.1559
  278MOL    H2433818   1.014   8.299   4.042  0.6177  0.1436  0.5746
  278MOL    H2533819   1.031   8.298   3.863  0.5644 -3.4802 -1.3898
  278MOL    C2633820   1.213   8.329   3.964  0.1100 -0.2305  0.2583
  278MOL    F2733821   1.196   0.111   3.970  0.0407  0.5040  0.1211
  278MOL    F2833822   1.262   8.299   4.089  0.1758  0.2600 -0.2324
  278MOL    C2933823   1.321   8.294   3.855 -0.3481  0.1871  0.9300
  278MOL    H3033824   1.278   8.309   3.756  0.4048 -0.9563  0.4200
  278MOL    H3133825   1.338   8.186   3.853 -2.9955 -0.3192  2.8477
  278MOL    C3233826   1.458   0.023   3.854  0.3805 -0.5777  0.1792
  278MOL    F3333827   1.534   8.339   3.755  0.3207 -0.1320  0.1580
  278MOL    F3433828   1.438   0.156   3.851  0.2738  0.0660  0.4110
  278MOL    C3533829   1.543   0.002   3.978 -0.3462  0.2350 -0.3251
  278MOL    H3633830   1.541   8.245   4.000 -2.3260  0.0307 -1.4229
  278MOL    H3733831   1.489   0.047   4.061 -0.2807  1.0581 -0.7281
  278MOL    C3833832   1.687   0.053   3.977  0.2334  0.1716 -0.0948
  278MOL    F3933833   1.738   0.051   4.102  0.4609  0.2940 -0.5160
  278MOL    F4033834   1.758   8.313   3.913 -0.1186  0.2087  0.4723
  278MOL    C4133835   1.715   0.185   3.915 -0.8238 -0.1092  0.6313
  278MOL    H4233836   1.654   0.265   3.956  2.8362  2.1810  1.9035
  278MOL    H4333837   1.678   0.170   3.813 -0.7028  1.3915  0.3553
  278MOL    C4433838   1.864   0.230   3.902 -0.3402 -0.4052 -0.0221
  278MOL    F4533839   1.891   0.290   4.019 -0.1762 -0.2954 -0.3758
  278MOL    F4633840   1.946   0.132   3.866  0.0153  0.2468 -0.4957
  278MOL    C4733841   1.892   0.352   3.810  0.0957  0.7071 -0.4091
  278MOL    H4833842   1.849   0.440   3.858  0.5138 -1.7503  4.7563
  278MOL    H4933843   1.822   0.336   3.727 -0.3969 -2.6568  0.5876
  278MOL    C5033844   2.045   0.378   3.771 -0.4730  0.2049 -0.1966
  278MOL    F5133845   2.092   0.273   3.704  0.7966 -0.1078  0.5456
  278MOL    F5233846   2.048   0.485   3.689  0.6021 -0.5818 -0.1911
  278MOL    C5333847   2.145   0.403   3.891 -0.3613  0.1733 -0.0620
  278MOL    H5433848   2.125   0.323   3.962 -2.5043  1.3003  0.6696
  278MOL    H5533849   2.127   0.493   3.950 -3.4731 -0.8744  0.7332
  278MOL    C5633850   2.291   0.386   3.859  0.3797 -1.3340 -0.0948
  278MOL    F5733851   2.360   0.405   3.969  0.1312 -0.0746  0.0259
  278MOL    F5833852   2.318   0.259   3.823  0.1184 -0.0352  0.5852
  278MOL    C5933853   2.346   0.474   3.741 -0.4699 -0.7244 -0.9549
  278MOL    H6033854   2.293   0.475   3.646 -3.6450  1.2565  0.7405
  278MOL    H6133855   2.445   0.434   3.719 -0.0366 -0.3464  0.2348
  278MOL    C6233856   2.355   0.628   3.771  0.4421 -0.2697  0.6509
  278MOL    F6333857   2.238   0.682   3.813 -0.4754  0.1783  0.8037
  278MOL    F6433858   2.453   0.659   3.854 -0.5864  0.6552  0.4103
  278MOL    C6533859   2.406   0.692   3.638  0.0227 -0.0208 -0.0705
  278MOL    H6633860   2.331   0.671   3.562 -0.3703 -0.9404  0.5657
  278MOL    H6733861   2.490   0.642   3.589 -0.5860 -0.9686 -0.1527
  278MOL    C6833862   2.421   0.846   3.646  0.0762  0.3899  0.8131
  278MOL    F6933863   2.493   0.882   3.747 -0.1004  0.2393 -0.2949
  278MOL    F7033864   2.485   0.877   3.532 -0.3424 -0.0027 -0.5061
  278MOL    C7133865   2.283   0.917   3.647  0.2771 -0.2667  0.4573
  278MOL    H7233866   2.240   0.918   3.747 -0.5519 -0.1059  0.1120
  278MOL    H7333867   2.202   0.865   3.596 -0.8502  2.8831 -1.1229
  278MOL    C7433868   2.273   1.062   3.586  0.0212 -0.4548 -0.2677
  278MOL    F7533869   2.150   1.108   3.627  0.1623 -0.1389 -0.0843
  278MOL    F7633870   2.371   1.131   3.639 -0.3377  0.0567  0.0632
  278MOL    C7733871   2.275   1.085   3.432 -0.5706  0.8234  0.7066
  278MOL    H7833872   2.374   1.060   3.395 -0.4278 -0.3526  1.8412
  278MOL    H7933873   2.267   1.193   3.427 -0.5258  0.8122  0.3429
  278MOL    C8033874   2.172   1.000   3.358 -0.2340  0.1985 -0.1687
  278MOL    F8133875   2.198   0.870   3.365  0.2515 -0.5876 -0.1560
  278MOL    F8233876   2.047   1.017   3.400  0.0463  0.5118  0.0841
  278MOL    C8333877   2.169   1.013   3.209 -0.5619  0.1344  0.5523
  278MOL    H8433878   2.082   0.957   3.174 -1.4742  1.7124  0.2299
  278MOL    H8533879   2.268   0.982   3.174 -0.0154 -1.1285  3.1018
  278MOL    C8633880   2.139   1.149   3.157  0.2267 -0.5453  0.5596
  278MOL    F8733881   2.035   1.212   3.210  0.1817 -0.1419  0.6321
  278MOL    F8833882   2.248   1.227   3.182  0.5325 -0.7816  0.3280
  278MOL    C8933883   2.127   1.138   3.003  0.1911 -0.4832  0.4329
  278MOL    H9033884   2.222   1.102   2.963  0.4884  0.1576  0.5540
  278MOL    H9133885   2.128   1.240   2.967  0.1553 -0.1947  1.2308
  278MOL    C9233886   2.019   1.053   2.929  0.3933 -0.7375 -0.6729
  278MOL    F9333887   2.030   1.076   2.805  0.5454  0.0934  0.0772
  278MOL    F9433888   2.032   0.922   2.947 -0.0441  0.0735  0.4606
  278MOL    C9533889   1.879   1.099   2.982 -0.1854 -0.6423 -0.2902
  278MOL    H9633890   1.886   1.208   2.981 -1.7085 -0.5149  0.9942
  278MOL    H9733891   1.879   1.066   3.086  2.2110 -0.6517 -0.2568
  278MOL    C9833892   1.761   1.037   2.906  0.2760 -0.0208  0.0904
  278MOL    F9933893   1.777   1.052   2.776 -0.1455  0.3948  0.0433
  278MOL   F10033894   1.727   0.904   2.932 -0.0683  0.2465 -0.0633
  278MOL   C10133895   1.637   1.111   2.936 -0.2786  0.1278  0.6480
  278MOL   H10233896   1.554   1.072   2.878 -0.7305  1.4945  0.3432
  278MOL   H10333897   1.642   1.212   2.893  0.5392 -0.6793 -1.1960
  278MOL   C10433898   1.591   1.127   3.084 -0.3853 -0.5392 -0.1553
  278MOL   F10533899   1.596   1.006   3.134 -0.6024 -0.2183  0.0512
  278MOL   F10633900   1.674   1.207   3.154  0.0159  0.0544  0.1093
  278MOL   C10733901   1.438   1.174   3.094 -0.0033 -0.3272 -0.5840
  278MOL   H10833902   1.371   1.122   3.026 -0.7509  0.6602 -0.6111
  278MOL   H10933903   1.441   1.281   3.071 -1.3845 -0.2237 -0.3168
  278MOL   C11033904   1.369   1.165   3.230 -0.4494 -0.2798  0.1530
  278MOL   F11133905   1.247   1.209   3.207  0.4134 -0.1101  0.3070
  278MOL   F11233906   1.362   1.040   3.263 -0.3791  0.1573 -0.3095
  278MOL   C11333907   1.435   1.245   3.349 -0.6080 -0.6149  0.6678
  278MOL   H11433908   1.537   1.211   3.371 -0.4407  0.4354  1.5665
  278MOL   H11533909   1.372   1.210   3.431 -0.5877 -0.0602  0.9213
  278MOL   C11633910   1.430   1.403   3.342 -0.3211  0.4295  0.2330
  278MOL   F11733911   1.510   1.453   3.244 -0.1944 -0.0355 -0.7798
  278MOL   F11833912   1.314   1.448   3.297 -0.2652 -0.7070 -0.9114
  278MOL   C11933913   1.471   1.473   3.472  0.1585 -0.3242  0.0235
  278MOL   H12033914   1.466   1.581   3.458 -1.3312 -0.3646  0.1070
  278MOL   H12133915   1.574   1.448   3.493  0.4480  1.1980  0.4609
  278MOL   H12233916   1.401   1.432   3.545 -2.1962  1.4106 -1.1561
  279MOL     C133917   3.381   5.175   7.745 -0.0385 -0.1543  0.1044
  279MOL     F233918   3.501   5.228   7.747  0.3898  0.2338  0.1381
  279MOL     F333919   3.325   5.192   7.623  0.1013  0.1093 -0.0104
  279MOL     C433920   3.292   5.262   7.845 -0.0032 -0.6323  0.0390
  279MOL     H533921   3.188   5.248   7.816 -0.2950  1.8204 -0.2121
  279MOL     H633922   3.297   5.369   7.821 -1.1775 -0.0508  2.2232
  279MOL     H733923   3.391   5.070   7.772  3.2904  0.2752  0.6820
  279MOL     C833924   3.315   5.233   7.995  0.0727  0.2063 -0.6441
  279MOL     F933925   3.285   5.099   8.017 -0.1093 -0.6208 -0.9768
  279MOL    F1033926   3.445   5.242   8.017  0.0737  0.5635 -0.2373
  279MOL    C1133927   3.248   5.345   8.082  0.1327  0.2502 -0.2448
  279MOL    H1233928   3.286   5.443   8.051  2.8436  0.7603  4.2530
  279MOL    H1333929   3.299   5.335   8.178 -0.7784  1.4901  0.3955
  279MOL    C1433930   3.094   5.334   8.108 -0.4170  0.0485  0.4930
  279MOL    F1533931   3.032   5.329   7.993  0.9030  0.0919  0.1709
  279MOL    F1633932   3.068   5.220   8.176 -0.2441 -0.4518 -0.5165
  279MOL    C1733933   3.048   5.458   8.190 -0.0482  0.2938  0.1729
  279MOL    H1833934   3.083   5.545   8.134  1.0992  0.4728  1.1515
  279MOL    H1933935   3.104   5.461   8.284  0.3919 -2.5564  0.0492
  279MOL    C2033936   2.903   5.465   8.224  0.1799  0.5074 -1.1518
  279MOL    F2133937   2.827   5.473   8.111 -0.2851  0.3169  0.0641
  279MOL    F2233938   2.868   5.354   8.275 -0.4330  0.0336 -0.4473
  279MOL    C2333939   2.870   5.587   8.307 -0.1980  0.6008  0.4374
  279MOL    H2433940   2.855   5.675   8.244 -0.0815 -0.4325 -1.0769
  279MOL    H2533941   2.958   5.610   0.016  0.5804 -0.9823 -0.0630
  279MOL    C2633942   2.751   5.561   0.058 -0.4198 -0.1685 -0.1714
  279MOL    F2733943   2.761   5.455   0.132 -0.3546 -0.0324  0.3574
  279MOL    F2833944   2.762   5.664   0.136 -0.0716  0.0829 -0.0850
  279MOL    C2933945   2.614   5.557   8.335 -0.1724  0.2127  0.2492
  279MOL    H3033946   2.605   5.479   8.259 -0.3829 -0.5642  1.0541
  279MOL    H3133947   2.600   5.658   8.298  0.8642  0.9601  1.8648
  279MOL    C3233948   2.492   5.548   0.080  1.1412  0.6481  0.0002
  279MOL    F3333949   2.480   5.419   0.133  0.4502  0.5403 -0.0074
  279MOL    F3433950   2.514   5.631   0.186 -0.3581  0.0988  0.1768
  279MOL    C3533951   2.353   5.579   0.015 -0.0177 -0.2120 -0.4094
  279MOL    H3633952   2.358   5.684   8.334  1.6670 -0.4256 -0.9043
  279MOL    H3733953   2.281   5.568   0.096 -1.1948  1.3407 -1.2021
  279MOL    C3833954   2.304   5.485   8.256  0.5588  0.1494 -0.3026
  279MOL    F3933955   2.389   5.491   8.147 -0.1179  0.0899  0.0988
  279MOL    F4033956   2.315   5.368   8.308  0.5260 -0.1853  0.1725
  279MOL    C4133957   2.159   5.515   8.213 -0.0249 -0.2418  0.4329
  279MOL    H4233958   2.160   5.602   8.147 -0.6622 -0.3036  0.3412
  279MOL    H4333959   2.091   5.542   8.294  0.4805  2.4190  0.0072
  279MOL    C4433960   2.090   5.395   8.129 -0.0811 -0.3962 -0.2416
  279MOL    F4533961   2.166   5.374   8.027  0.4173  0.0533 -0.0970
  279MOL    F4633962   2.069   5.283   8.202  0.0225 -0.5025  0.0386
  279MOL    C4733963   1.960   5.459   8.073 -0.8676 -0.2161  0.3657
  279MOL    H4833964   1.985   5.532   7.996  1.4637 -2.4932 -1.1173
  279MOL    H4933965   1.914   5.517   8.153  2.4006  0.8156  1.6027
  279MOL    C5033966   1.856   5.373   8.006  0.1835  0.3415  0.0023
  279MOL    F5133967   1.801   5.296   8.096 -0.2722 -0.2851  0.1226
  279MOL    F5233968   1.768   5.460   7.967  0.0377 -0.0511  0.2699
  279MOL    C5333969   1.898   5.284   7.885 -0.4381 -0.4139  0.0177
  279MOL    H5433970   1.980   5.220   7.917  0.7956 -0.3783 -2.8897
  279MOL    H5533971   1.941   5.353   7.813  0.5521 -2.3682 -1.2957
  279MOL    C5633972   1.780   5.211   7.821 -0.5553  0.0000  0.8050
  279MOL    F5733973   1.722   5.135   7.913  0.1897 -0.4267  0.3474
  279MOL    F5833974   1.685   5.291   7.777  0.2721 -0.6273 -0.5287
  279MOL    C5933975   1.825   5.113   7.701 -0.1747  0.6046  0.3882
  279MOL    H6033976   1.915   5.059   7.732  0.0629  0.7068 -0.1085
  279MOL    H6133977   1.854   5.173   7.615  0.8497  0.0049  0.2991
  279MOL    C6233978   1.721   5.013   7.644 -0.1488  0.3686  0.0126
  279MOL    F6333979   1.684   4.940   7.749 -0.0531 -0.4837  0.3740
  279MOL    F6433980   1.616   5.089   7.604 -0.2145 -0.0555  0.3835
  279MOL    C6533981   1.774   4.931   7.519  0.1742  0.4320 -0.1268
  279MOL    H6633982   1.791   5.000   7.437  0.2880  0.5421 -0.0103
  279MOL    H6733983   1.688   4.871   7.490  0.2476  0.8588 -1.2703
  279MOL    C6833984   1.906   4.854   7.532  0.1075 -0.2775  0.3778
  279MOL    F6933985   1.936   4.780   7.423  0.2895 -0.0117  0.2128
  279MOL    F7033986   2.007   4.947   7.534  0.0924  0.0009 -0.6052
  279MOL    C7133987   1.911   4.764   7.665 -1.1988 -0.3821  0.1649
  279MOL    H7233988   1.902   4.826   7.754 -2.1740 -2.1627  1.3100
  279MOL    H7333989   2.015   4.731   7.667 -0.7456  0.9768 -0.3436
  279MOL    C7433990   1.813   4.647   7.670  0.6567  0.2905  0.3375
  279MOL    F7533991   1.688   4.680   7.686 -0.1210  0.2817 -0.2771
  279MOL    F7633992   1.825   4.583   7.556  0.1285  0.6747 -0.4043
  279MOL    C7733993   1.852   4.543   7.781  0.0616 -0.1504  0.2632
  279MOL    H7833994   1.764   4.479   7.795  1.1023 -1.3918  1.2679
  279MOL    H7933995   1.876   4.588   7.877  2.3203 -0.6954 -0.0180
  279MOL    C8033996   1.970   4.449   7.742 -0.2060 -0.3824  0.1654
  279MOL    F8133997   1.941   4.392   7.631  0.1328  0.2636  0.5144
  279MOL    F8233998   2.083   4.513   7.722 -0.2789 -0.3340 -0.6248
  279MOL    C8333999   1.988   4.336   7.840  0.2396  0.0493  0.3454
  279MOL    H8434000   2.061   4.276   7.786  0.3601  0.2404  0.2934
  279MOL    H8534001   1.893   4.284   7.841  0.5767 -0.6443 -2.2095
  279MOL    C8634002   2.042   4.374   7.986  0.0786  0.1579 -0.1564
  279MOL    F8734003   1.963   4.443   8.066  0.0589  0.4126 -0.0141
  279MOL    F8834004   2.058   4.258   8.043 -0.0917  0.2889  0.0625
  279MOL    C8934005   2.178   4.446   7.976  0.6571  0.3416 -0.3168
  279MOL    H9034006   2.167   4.551   7.951 -2.0224  0.7686  2.3960
  279MOL    H9134007   2.225   4.388   7.896  0.1645  0.9461 -1.0422
  279MOL    C9234008   2.266   4.417   8.103  0.0291  0.1674 -0.4810
  279MOL    F9334009   2.194   4.417   8.212  0.1915  0.0591 -0.1340
  279MOL    F9434010   2.306   4.291   8.089  0.0169 -0.3239  0.5226
  279MOL    C9534011   2.376   4.513   8.126  0.4493  0.4120  0.5384
  279MOL    H9634012   2.439   4.473   8.206  0.3406 -0.5328  0.1501
  279MOL    H9734013   2.334   4.609   8.157  0.3017  0.0560  1.4499
  279MOL    C9834014   2.477   4.525   8.009 -0.2241 -0.9154 -0.4867
  279MOL    F9934015   2.535   4.407   7.984 -0.2415 -0.8729 -0.0768
  279MOL   F10034016   2.413   4.573   7.903 -0.0151  0.7877 -0.3194
  279MOL   C10134017   2.588   4.615   8.055  0.1520 -0.7935 -0.0999
  279MOL   H10234018   2.627   4.588   8.153  2.5818  2.2397 -0.1485
  279MOL   H10334019   2.540   4.708   8.085 -0.7593 -1.3908  0.2966
  279MOL   C10434020   2.707   4.646   7.949  0.4526  0.2048  0.2466
  279MOL   F10534021   2.805   4.712   8.007  0.9256  0.2208 -0.0382
  279MOL   F10634022   2.755   4.528   7.910  0.1256  0.4849  0.1106
  279MOL   C10734023   2.666   4.713   7.815  0.1740  0.0779  0.2741
  279MOL   H10834024   2.611   4.806   7.831 -1.3169 -0.0986 -3.4449
  279MOL   H10934025   2.598   4.645   7.763  0.8668 -0.2033 -0.2680
  279MOL   C11034026   2.777   4.745   7.706  0.6412 -0.4377 -0.3394
  279MOL   F11134027   2.870   4.652   7.695  0.1412  0.0470 -0.3379
  279MOL   F11234028   2.711   4.753   7.591 -0.2946  0.3330  0.0979
  279MOL   C11334029   2.854   4.875   7.729  0.2155 -0.3209 -0.1346
  279MOL   H11434030   2.858   4.909   7.833 -1.9408  0.7686 -0.3697
  279MOL   H11534031   2.794   4.955   7.684  1.2214  0.3357 -0.3426
  279MOL   C11634032   2.990   4.882   7.648  0.2948  0.4316  0.0439
  279MOL   F11734033   3.050   4.993   7.688 -0.6471  0.1622 -0.2719
  279MOL   F11834034   3.081   4.789   7.684  0.8526  0.2897  0.2665
  279MOL   C11934035   2.984   4.891   7.500  0.7458 -0.0719  0.6918
  279MOL   H12034036   2.948   4.990   7.475  0.0950 -0.9127 -1.9009
  279MOL   H12134037   2.921   4.811   7.461  0.4363 -0.0672  1.1870
  279MOL   H12234038   3.080   4.884   7.448  1.2259  0.9157  1.4251
  280MOL     C134039   7.494   3.274   5.210  0.2079 -0.0112 -0.0319
  280MOL     F234040   7.421   3.176   5.143  0.2088  0.0794  0.4365
  280MOL     F334041   7.610   3.259   5.163  0.0754  0.3007  0.4060
  280MOL     C434042   7.495   3.254   5.359 -1.1462 -0.3927  0.1041
  280MOL     H534043   7.565   3.172   5.378  0.1585  1.2513  2.7322
  280MOL     H634044   7.395   3.226   5.391 -1.4950  0.6911 -0.0344
  280MOL     H734045   7.452   3.371   5.182 -1.3239 -0.8951 -0.8505
  280MOL     C834046   7.545   3.380   5.446 -0.1003 -0.1204  0.2851
  280MOL     F934047   7.457   3.483   5.420 -0.2077 -0.0682  0.4171
  280MOL    F1034048   7.526   3.337   5.565 -0.3946  0.3636 -0.7439
  280MOL    C1134049   7.691   3.425   5.433  0.6462  0.0106  0.3727
  280MOL    H1234050   7.693   3.471   5.335  0.2260 -0.7854 -0.0168
  280MOL    H1334051   7.757   3.338   5.429  0.0386 -0.5063  1.3592
  280MOL    C1434052   7.741   3.535   5.525  0.3944  1.0177  0.0379
  280MOL    F1534053   7.744   3.480   5.645  0.2477  0.0832  0.2786
  280MOL    F1634054   7.862   3.573   5.485  0.1366  0.0210 -0.2699
  280MOL    C1734055   7.657   3.661   5.544  0.4018  0.2557  0.4764
  280MOL    H1834056   7.571   3.643   5.608 -0.4098  2.9966  0.2306
  280MOL    H1934057   7.625   3.683   5.441  1.1990 -0.8901 -0.0156
  280MOL    C2034058   7.728   3.779   5.605  0.2934  0.6730  0.6823
  280MOL    F2134059   7.826   3.818   5.527  0.6491 -0.7462 -0.2442
  280MOL    F2234060   7.633   3.873   5.621 -0.1827 -0.3900  0.0366
  280MOL    C2334061   7.793   3.752   5.741  1.0416  0.1769  0.4689
  280MOL    H2434062   7.866   3.827   5.772  0.8692  0.0210  1.2675
  280MOL    H2534063   7.854   3.662   5.735  0.9696  0.3121 -2.7650
  280MOL    C2634064   7.704   3.741   5.861  0.5423  0.6241 -0.6993
  280MOL    F2734065   7.609   3.643   5.852  0.1057 -0.0776  0.4958
  280MOL    F2834066   7.788   3.702   5.955  0.2594 -0.1021  0.3223
  280MOL    C2934067   7.636   3.872   5.896  0.5776 -0.1240 -0.6482
  280MOL    H3034068   7.549   3.886   5.833  0.1407 -0.2591 -0.0796
  280MOL    H3134069   7.706   3.954   5.877 -0.0927  0.5306 -0.3319
  280MOL    C3234070   7.573   3.885   6.040  0.1494  0.1087  0.5209
  280MOL    F3334071   7.662   3.839   6.131  0.7619 -0.0401 -0.0481
  280MOL    F3434072   7.569   4.017   6.057 -0.0550 -0.5499 -0.0505
  280MOL    C3534073   7.436   3.820   6.046 -0.3602 -0.1174 -0.6144
  280MOL    H3634074   7.431   3.721   6.000  0.3905 -0.4286 -0.0434
  280MOL    H3734075   7.367   3.878   5.985 -0.5738 -0.0168 -0.2797
  280MOL    C3834076   7.380   3.811   6.197 -0.1694  0.7212  0.5990
  280MOL    F3934077   7.387   3.925   6.271  0.4002 -0.1977  0.3832
  280MOL    F4034078   7.250   3.790   6.186 -0.2612 -0.2289 -0.1968
  280MOL    C4134079   7.437   3.690   6.286  0.6834 -0.2502  0.1231
  280MOL    H4234080   7.390   3.703   6.384 -0.9807 -1.1356 -0.5477
  280MOL    H4334081   7.545   3.701   6.298  1.1552 -4.5399  0.3951
  280MOL    C4434082   7.412   3.543   6.235 -0.5077 -0.2424 -0.0048
  280MOL    F4534083   7.282   3.530   6.211 -0.0238 -0.0450 -0.3559
  280MOL    F4634084   7.484   3.508   6.130 -0.0039 -0.0468 -0.2461
  280MOL    C4734085   7.446   3.441   6.348 -0.0324  0.0902  0.2434
  280MOL    H4834086   7.393   3.458   6.441 -1.9242  1.1263 -1.0136
  280MOL    H4934087   7.550   3.461   6.374 -0.6386 -0.2437  3.0734
  280MOL    C5034088   7.445   3.292   6.305 -0.0712  0.2457 -0.0098
  280MOL    F5134089   7.327   3.258   6.240  0.0629 -0.3321 -0.0818
  280MOL    F5234090   7.542   3.260   6.220 -0.0354 -0.1190  0.2650
  280MOL    C5334091   7.447   3.196   6.422 -0.0971  0.0969 -0.3541
  280MOL    H5434092   7.445   3.097   6.376 -2.4629  0.3442 -0.8345
  280MOL    H5534093   7.354   3.217   6.474  0.9488  0.2124  1.5099
  280MOL    C5634094   7.568   3.206   6.520 -0.1584 -0.0392  0.2868
  280MOL    F5734095   7.551   3.320   6.596  0.4107 -0.3067 -0.0162
  280MOL    F5834096   7.553   3.104   6.604 -0.5441  0.0619  0.2930
  280MOL    C5934097   7.711   3.217   6.465  0.3270  0.1167  0.5782
  280MOL    H6034098   7.717   3.296   6.391  0.5753  0.4584  0.9594
  280MOL    H6134099   7.732   3.129   6.405  0.0918 -1.0222  2.1187
  280MOL    C6234100   7.818   3.241   6.576 -0.0231  0.1572  0.9231
  280MOL    F6334101   7.799   3.349   6.649  0.2113  0.0219  0.0620
  280MOL    F6434102   7.808   3.140   6.661 -0.4500 -1.1054  0.4397
  280MOL    C6534103   7.957   3.251   6.513 -0.0262  0.5229  0.4058
  280MOL    H6634104   7.963   3.348   6.464  1.7401 -0.4721 -1.4217
  280MOL    H6734105   7.959   3.176   6.435 -3.6875  0.1434  0.6126
  280MOL    C6834106   8.077   3.232   6.614  0.3749  0.4424 -0.0092
  280MOL    F6934107   8.070   3.312   6.722 -0.1457 -0.3152  0.2314
  280MOL    F7034108   8.076   3.105   6.660  0.3873  0.1000  0.1338
  280MOL    C7134109   8.219   3.245   6.552  0.0389  0.2372 -0.3346
  280MOL    H7234110   8.215   3.183   6.463 -0.2706 -1.0125  0.5299
  280MOL    H7334111   8.291   3.222   6.631 -1.5940 -0.7888  0.9058
  280MOL    C7434112   8.263   3.386   6.505  0.6005  0.6108 -0.4094
  280MOL    F7534113   8.184   3.425   6.413  0.5624 -0.2312 -0.0820
  280MOL    F7634114   8.243   3.481   6.603 -0.4649  0.3593 -0.5587
  280MOL    C7734115   0.064   3.398   6.455  0.0454  0.7273 -0.4104
  280MOL    H7834116   0.094   3.502   6.442 -2.7177  1.3112 -2.5299
  280MOL    H7934117   0.071   3.358   6.354  2.8849  0.7555 -0.2670
  280MOL    C8034118   0.173   3.338   6.554  0.4691 -0.1931  0.5689
  280MOL    F8134119   0.168   3.209   6.555  0.2029  0.4060  0.5566
  280MOL    F8234120   0.288   3.365   6.501  0.6139  0.3265  0.6796
  280MOL    C8334121   0.181   3.401   6.701 -1.2191  0.9019  0.5240
  280MOL    H8434122   0.080   3.386   6.739 -1.9173  2.5625 -0.6161
  280MOL    H8534123   0.199   3.507   6.681  2.6642  0.3420  0.5985
  280MOL    C8634124   0.289   3.342   6.798  0.0046  0.1040 -0.5804
  280MOL    F8734125   0.305   3.210   6.780 -0.2920  0.0131  0.2696
  280MOL    F8834126   0.398   3.398   6.750 -0.5739  0.0662  0.5726
  280MOL    C8934127   0.278   3.369   6.950  0.5116  0.0296  0.1306
  280MOL    H9034128   0.371   3.353   7.004 -0.3901 -2.6385  0.9678
  280MOL    H9134129   0.215   3.286   6.982  0.1611  0.2929  0.1311
  280MOL    C9234130   0.212   3.506   6.988  0.4474 -0.7473 -0.2924
  280MOL    F9334131   0.273   3.598   6.917 -0.5906  0.0203  0.1426
  280MOL    F9434132   0.083   3.508   6.954  0.3941 -0.4435 -0.1833
  280MOL    C9534133   0.238   3.542   7.129  0.4172  0.5597 -0.3073
  280MOL    H9634134   0.344   3.562   7.144  1.4273 -2.1708 -3.2574
  280MOL    H9734135   0.212   3.457   7.192 -0.3588  0.9778 -0.0648
  280MOL    C9834136   0.162   3.673   7.173  0.1767  0.0797  0.6076
  280MOL    F9934137   0.199   3.780   7.100 -0.2043 -0.3424 -0.2776
  280MOL   F10034138   0.033   3.670   7.156  0.1096 -0.1428  0.1617
  280MOL   C10134139   0.183   3.711   7.320  0.1440 -0.2719 -0.1399
  280MOL   H10234140   0.120   3.799   7.331 -0.5357 -0.8758  0.7953
  280MOL   H10334141   0.286   3.748   7.331 -0.2845  0.6411  0.9227
  280MOL   C10434142   0.157   3.602   7.425  0.4540 -0.0833  0.0531
  280MOL   F10534143   0.041   3.548   7.394 -0.3132  0.2224 -0.0597
  280MOL   F10634144   0.255   3.507   7.418  0.0483 -0.1663 -1.1463
  280MOL   C10734145   0.145   3.647   7.578 -0.7110  0.6059  0.3540
  280MOL   H10834146   0.159   3.552   7.629 -1.3020  0.4038  0.1384
  280MOL   H10934147   0.044   3.658   7.617 -1.3076 -3.3817  0.1245
  280MOL   C11034148   0.234   3.751   7.648  0.5826  0.0212  0.2042
  280MOL   F11134149   0.200   3.864   7.593 -0.5727  0.4145  0.3967
  280MOL   F11234150   0.200   3.757   7.776 -0.3178 -0.6972 -0.0923
  280MOL   C11334151   0.384   3.724   7.646 -0.2626 -0.1311 -0.2543
  280MOL   H11434152   0.413   3.706   7.543  1.3586 -1.6325  0.4506
  280MOL   H11534153   0.410   3.632   7.698  0.9980  1.7332  2.5346
  280MOL   C11634154   0.473   3.843   7.685  0.7052 -0.5385 -0.5546
  280MOL   F11734155   0.593   3.817   7.642  0.0904  0.6217 -0.3329
  280MOL   F11834156   0.433   3.958   7.631 -0.1665  0.3308 -0.4317
  280MOL   C11934157   0.493   3.862   7.839 -0.1368 -0.1803  0.4324
  280MOL   H12034158   0.520   3.772   7.895 -1.0053  0.2004  1.4841
  280MOL   H12134159   0.400   3.900   7.883 -0.4551 -0.5906  0.1173
  280MOL   H12234160   0.572   3.933   7.861 -0.5391  0.5010 -0.2695
  281MOL     C134161   0.899   4.249   0.574  0.7426  0.2461  0.3719
  281MOL     F234162   0.771   4.252   0.546  0.5245 -1.0224  0.0610
  281MOL     F334163   0.909   4.300   0.691 -0.5967 -0.5544 -0.4737
  281MOL     C434164   0.987   4.314   0.463  0.0189  0.2648  0.5095
  281MOL     H534165   0.957   4.419   0.456  0.6175  0.3685 -0.6521
  281MOL     H634166   0.960   4.257   0.375 -0.8000 -1.8173  2.0738
  281MOL     H734167   0.922   4.144   0.594  3.5308  0.7082 -0.2424
  281MOL     C834168   1.139   4.303   0.483  0.4368  0.0565 -0.3244
  281MOL     F934169   1.171   4.351   0.601  0.5333  0.1054 -0.1846
  281MOL    F1034170   1.170   4.172   0.490 -0.1783 -0.4415 -0.1029
  281MOL    C1134171   1.234   4.378   0.387 -1.0550 -0.2973 -0.5543
  281MOL    H1234172   1.240   4.336   0.286 -0.4021  2.3789 -1.6779
  281MOL    H1334173   1.336   4.372   0.426 -0.3602 -0.9212 -2.3772
  281MOL    C1434174   1.190   4.526   0.367  0.3118 -0.0417  0.1616
  281MOL    F1534175   1.086   4.517   0.279 -0.0139  0.6141 -0.3991
  281MOL    F1634176   1.156   4.585   0.478 -0.5546  0.3456 -0.1728
  281MOL    C1734177   1.293   4.607   0.293 -0.1184  0.8719 -0.1796
  281MOL    H1834178   1.310   4.557   0.198 -1.0267 -1.2985  0.7505
  281MOL    H1934179   1.386   4.600   0.349 -0.1890  0.7525 -0.0745
  281MOL    C2034180   1.262   4.757   0.268  0.2804  0.7559 -0.2358
  281MOL    F2134181   1.254   4.816   0.386 -0.1692 -0.1401  0.5840
  281MOL    F2234182   1.363   4.804   0.200  0.0632  0.6570  0.5362
  281MOL    C2334183   1.137   4.792   0.191 -0.2597  0.5732  0.0620
  281MOL    H2434184   1.049   4.783   0.255 -0.4283 -0.0715 -0.2551
  281MOL    H2534185   1.116   4.732   0.103 -1.6162  0.1636  0.6436
  281MOL    C2634186   1.120   4.939   0.143  0.0090  0.4263 -0.0391
  281MOL    F2734187   1.217   4.984   0.061 -0.5226  0.4513  0.2994
  281MOL    F2834188   1.007   4.938   0.071  0.1644 -0.3002 -0.4074
  281MOL    C2934189   1.104   5.031   0.262 -0.2093 -0.9576 -0.2557
  281MOL    H3034190   1.203   5.032   0.306  0.4424 -1.5558 -1.6604
  281MOL    H3134191   1.037   4.990   0.337 -0.8835 -0.1579 -0.4085
  281MOL    C3234192   1.058   5.173   0.229  0.4106 -0.4489  0.2756
  281MOL    F3334193   1.126   5.228   0.128 -0.1398 -0.7830 -0.3689
  281MOL    F3434194   0.931   5.155   0.193 -0.1553 -0.7838 -0.4197
  281MOL    C3534195   1.047   5.273   0.344 -0.3344 -0.8912 -0.2158
  281MOL    H3634196   0.966   5.240   0.409 -0.6611 -2.2560 -1.2711
  281MOL    H3734197   1.017   5.361   0.287 -0.5214 -1.2824 -0.7299
  281MOL    C3834198   1.171   5.307   0.427 -0.9412 -0.0378 -0.5414
  281MOL    F3934199   1.232   5.195   0.473 -0.0194 -0.4039  0.2575
  281MOL    F4034200   1.261   5.367   0.341 -0.0177 -0.4068  0.4480
  281MOL    C4134201   1.143   5.406   0.541  1.0008  0.8423 -0.2958
  281MOL    H4234202   1.061   5.365   0.600  2.2335 -0.5927  0.4567
  281MOL    H4334203   1.097   5.498   0.504 -1.4335 -0.3769 -0.4409
  281MOL    C4434204   1.262   5.432   0.633  0.0990  0.0923 -0.1803
  281MOL    F4534205   1.358   5.474   0.553  0.5080 -0.0372 -0.9035
  281MOL    F4634206   1.236   5.532   0.716 -0.4474 -0.5664  0.1155
  281MOL    C4734207   1.305   5.302   0.710 -0.1232 -0.3091 -0.3633
  281MOL    H4834208   1.358   5.232   0.646 -1.6715 -0.6808 -1.2570
  281MOL    H4934209   1.218   5.248   0.749  0.4204 -1.1453 -0.2936
  281MOL    C5034210   1.399   5.332   0.826 -0.1611 -0.9762  0.0807
  281MOL    F5134211   1.348   5.415   0.912  0.9936 -0.1448 -0.3412
  281MOL    F5234212   1.432   5.212   0.877  0.1536  0.0027 -0.7154
  281MOL    C5334213   1.524   5.409   0.777 -0.3800  0.1372 -0.9823
  281MOL    H5434214   1.486   5.510   0.764 -0.6439  0.3757  1.5439
  281MOL    H5534215   1.562   5.374   0.681  0.6591 -0.5731 -0.3207
  281MOL    C5634216   1.640   5.418   0.883  0.4261  0.3283 -0.5647
  281MOL    F5734217   1.587   5.463   0.995 -0.3718  0.2121 -0.0580
  281MOL    F5834218   1.685   5.294   0.913 -0.2117 -0.0627 -0.4496
  281MOL    C5934219   1.753   5.505   0.826 -0.4767 -0.0087  0.4472
  281MOL    H6034220   1.722   5.596   0.773 -0.9591  0.8789  2.2368
  281MOL    H6134221   1.796   5.445   0.745 -0.1187  1.6404 -0.6209
  281MOL    C6234222   1.860   5.545   0.925 -0.1422  0.1931  0.4881
  281MOL    F6334223   1.821   5.650   1.003  0.0990  0.3542  0.6084
  281MOL    F6434224   1.878   5.437   1.007  0.7182  0.1207  0.0843
  281MOL    C6534225   1.989   5.578   0.852  0.1398  0.2442  0.0257
  281MOL    H6634226   1.963   5.655   0.779 -2.1532 -0.1132  0.4477
  281MOL    H6734227   2.016   5.483   0.805 -2.1274 -0.0587 -0.7186
  281MOL    C6834228   2.106   5.620   0.937  0.5161  0.5225 -0.0937
  281MOL    F6934229   2.085   5.744   0.991  0.0178 -0.1041  0.4730
  281MOL    F7034230   2.134   5.529   1.033 -0.3177 -0.0486 -0.7905
  281MOL    C7134231   2.241   5.648   0.860  0.1642 -0.3026 -0.5224
  281MOL    H7234232   2.274   5.558   0.808 -1.4167  0.4539 -2.9152
  281MOL    H7334233   2.318   5.684   0.928  0.2255 -0.2541 -0.6181
  281MOL    C7434234   2.235   5.765   0.762  0.1643 -0.3908  0.3496
  281MOL    F7534235   2.148   5.742   0.668  0.1036  0.1691  0.4924
  281MOL    F7634236   2.226   5.888   0.810  0.1419 -0.0337 -0.1062
  281MOL    C7734237   2.373   5.769   0.678  0.0028  0.2999  0.3053
  281MOL    H7834238   2.392   5.672   0.633  1.9861  1.3418 -1.1900
  281MOL    H7934239   2.457   5.800   0.740 -0.0442 -0.8426  0.9455
  281MOL    C8034240   2.371   5.861   0.551 -0.1576 -0.0666 -0.0146
  281MOL    F8134241   2.279   5.815   0.469  0.2883  0.4217  0.0691
  281MOL    F8234242   2.334   5.982   0.590 -0.0318 -0.4864 -0.0561
  281MOL    C8334243   2.507   5.872   0.478 -0.2525  0.1517  0.3819
  281MOL    H8434244   2.538   5.773   0.443 -0.4997  0.2680 -0.1686
  281MOL    H8534245   2.579   5.903   0.554 -1.4635  0.1500  1.5470
  281MOL    C8634246   2.506   5.973   0.357 -0.1895 -0.5975  0.5588
  281MOL    F8734247   2.423   5.904   0.281 -0.0685  0.3924  0.5566
  281MOL    F8834248   2.455   6.092   0.383  0.1170  0.5692  0.3343
  281MOL    C8934249   2.643   6.003   0.300  0.4383  0.4148  0.5644
  281MOL    H9034250   2.695   5.909   0.279 -0.6267 -0.1832  0.5705
  281MOL    H9134251   2.711   6.029   0.382  2.8627 -1.5784 -0.7169
  281MOL    C9234252   2.663   6.092   0.174  0.2521  0.5828 -0.9542
  281MOL    F9334253   2.568   6.064   0.091 -0.4355 -0.0526 -0.3829
  281MOL    F9434254   2.639   6.215   0.214 -0.4312  0.2948  0.6576
  281MOL    C9534255   2.795   6.065   0.103 -0.0520  0.1141  0.2260
  281MOL    H9634256   2.809   5.964   0.064 -0.3228  0.2814 -0.3102
  281MOL    H9734257   2.871   6.079   0.180 -1.2203 -1.6743  1.7326
  281MOL    C9834258   2.839   6.165   8.345  1.0092 -0.0325 -0.2988
  281MOL    F9934259   2.731   6.201   8.273  0.1289 -0.0456  0.0260
  281MOL   F10034260   2.878   6.276   0.064  0.0166  0.4805 -0.4925
  281MOL   C10134261   2.951   6.116   8.252 -0.3841  0.3765 -0.4201
  281MOL   H10234262   3.035   6.087   8.315 -1.1657 -1.4007 -0.1847
  281MOL   H10334263   2.999   6.195   8.195  2.2774  0.3051  1.6220
  281MOL   C10434264   2.909   6.002   8.151  0.8048  0.4003 -0.0380
  281MOL   F10534265   2.867   5.892   8.214 -0.0967  0.0247 -0.2119
  281MOL   F10634266   2.816   6.054   8.066  0.1125 -0.1344 -0.3497
  281MOL   C10734267   3.035   5.956   8.068 -0.4442 -0.2104 -0.1350
  281MOL   H10834268   3.109   5.917   8.138  0.7483 -0.1817 -1.3559
  281MOL   H10934269   3.079   6.038   8.010 -0.5956  0.7741  1.1223
  281MOL   C11034270   3.005   5.849   7.963  0.4365  0.6812  0.7087
  281MOL   F11134271   2.944   5.747   8.016 -0.4371 -0.1508 -0.6977
  281MOL   F11234272   2.932   5.912   7.868  0.6216 -0.0383 -0.0843
  281MOL   C11334273   3.131   5.783   7.909  0.2429  0.6031  0.0392
  281MOL   H11434274   3.171   5.716   7.985 -2.3630 -0.6088  0.4090
  281MOL   H11534275   3.192   5.867   7.876 -0.6055  0.6824 -1.4242
  281MOL   C11634276   3.111   5.683   7.790 -0.4720 -0.2642  1.0240
  281MOL   F11734277   3.234   5.633   7.755  0.2825  0.2324 -0.5452
  281MOL   F11834278   3.034   5.581   7.827  0.3960  0.0237  0.5644
  281MOL   C11934279   3.047   5.738   7.663  0.5782 -0.0207  0.0400
  281MOL   H12034280   2.942   5.762   7.682  0.5364  0.8847 -1.2838
  281MOL   H12134281   3.044   5.667   7.581 -1.4530  0.0422  0.0426
  281MOL   H12234282   3.107   5.821   7.625  0.3714 -0.7265 -1.8600
  282MOL     C134283   4.758   6.898   6.171 -0.5002  0.2368 -0.5102
  282MOL     F234284   4.827   7.003   6.131 -0.1247 -0.1937  0.3570
  282MOL     F334285   4.692   6.925   6.291 -0.7521  0.0749  0.3862
  282MOL     C434286   4.846   6.775   6.190  0.4040 -0.7027  0.1487
  282MOL     H534287   4.912   6.786   6.276  1.1138  0.3113 -0.5088
  282MOL     H634288   4.917   6.781   6.108 -0.5259  1.3083 -0.5382
  282MOL     H734289   4.693   6.879   6.086 -1.7385  0.7678  0.3054
  282MOL     C834290   4.777   6.640   6.191 -0.0366  0.7238  0.0446
  282MOL     F934291   4.686   6.638   6.289 -0.0016 -0.2265 -0.1840
  282MOL    F1034292   4.717   6.602   6.075 -0.1677  0.2839  0.2715
  282MOL    C1134293   4.878   6.527   6.234  0.3219  0.4218  0.7234
  282MOL    H1234294   4.902   6.548   6.338 -0.0479  1.1657  0.6599
  282MOL    H1334295   4.971   6.528   6.177 -0.3708  0.3065 -0.4203
  282MOL    C1434296   4.813   6.387   6.228  0.1510 -0.1447 -0.6559
  282MOL    F1534297   4.703   6.382   6.294  0.1168  0.1116 -0.4441
  282MOL    F1634298   4.788   6.351   6.100  0.1045 -0.1416 -0.0149
  282MOL    C1734299   4.907   6.280   6.295 -1.2422 -0.9216 -0.5991
  282MOL    H1834300   4.939   6.308   6.395  1.8909 -2.5778 -1.0961
  282MOL    H1934301   4.994   6.271   6.230 -0.4649 -0.2732  0.3441
  282MOL    C2034302   4.849   6.132   6.301  0.7021 -0.2736 -0.8601
  282MOL    F2134303   4.925   6.081   6.396 -0.2571  0.3047 -0.1806
  282MOL    F2234304   4.720   6.138   6.337  0.3833  0.1894  0.1934
  282MOL    C2334305   4.861   6.056   6.169  0.2575  0.2989  0.2563
  282MOL    H2434306   4.966   6.048   6.141  0.1214  0.8619 -0.4080
  282MOL    H2534307   4.826   6.118   6.087  0.3029  0.8529  0.6542
  282MOL    C2634308   4.795   5.915   6.165 -0.4666 -0.2445 -0.1556
  282MOL    F2734309   4.836   5.873   6.046  0.3084  0.2584  0.0905
  282MOL    F2834310   4.861   5.844   6.259 -0.2002  0.2967  0.0866
  282MOL    C2934311   4.645   5.894   6.184 -1.0682 -0.0382  0.1932
  282MOL    H3034312   4.616   5.962   6.104 -0.3591  1.1557  0.9363
  282MOL    H3134313   4.613   5.924   6.284 -0.5799  0.4464  0.1988
  282MOL    C3234314   4.596   5.747   6.159  0.6586 -0.6668  0.0743
  282MOL    F3334315   4.619   5.723   6.032  0.1558 -0.0857 -0.1675
  282MOL    F3434316   4.671   5.659   6.234 -0.7037 -0.0935  0.2115
  282MOL    C3534317   4.443   5.727   6.184  0.6648 -0.0217  0.5986
  282MOL    H3634318   4.396   5.782   6.103  0.1865 -0.3507  0.6506
  282MOL    H3734319   4.420   5.772   6.280  0.2557 -1.1425  1.0404
  282MOL    C3834320   4.395   5.585   6.168 -0.1509  0.5475 -0.3852
  282MOL    F3934321   4.446   5.529   6.066 -0.1380 -0.2537 -0.1312
  282MOL    F4034322   4.431   5.507   6.271  0.0244 -0.2314 -0.4825
  282MOL    C4134323   4.249   5.575   6.143 -0.2900  0.1338 -0.6455
  282MOL    H4234324   4.211   5.650   6.074  0.2573  0.7339 -0.3005
  282MOL    H4334325   4.185   5.605   6.225 -0.0417  1.1244 -0.8163
  282MOL    C4434326   4.202   5.431   6.095  0.0186 -0.0808  0.2667
  282MOL    F4534327   4.072   5.431   6.071  0.5158 -0.4719 -0.2676
  282MOL    F4634328   4.253   5.407   5.973 -0.5631  0.7442 -0.2376
  282MOL    C4734329   4.235   5.304   6.180  0.0912  0.3567  0.2492
  282MOL    H4834330   4.342   5.283   6.174 -0.5815 -2.3647 -4.0962
  282MOL    H4934331   4.191   5.218   6.129  1.3868  1.1714 -2.3174
  282MOL    C5034332   4.180   5.307   6.323 -0.0637  0.1308 -0.4256
  282MOL    F5134333   4.206   5.418   6.388 -0.3001  0.2250 -0.0581
  282MOL    F5234334   4.048   5.299   6.303  0.0429 -0.1233 -0.0330
  282MOL    C5334335   4.236   5.186   6.404  0.5323 -0.3906 -0.3290
  282MOL    H5434336   4.343   5.199   6.424  0.5059 -1.3132  0.4905
  282MOL    H5534337   4.238   5.105   6.331 -0.6250 -0.8450  0.1312
  282MOL    C5634338   4.167   5.161   6.540  0.3823  0.1263  0.2308
  282MOL    F5734339   4.039   5.130   6.512  0.0807  0.3884  0.0024
  282MOL    F5834340   4.226   5.056   6.593  0.1613 -0.3732 -0.2034
  282MOL    C5934341   4.173   5.283   6.639  0.3960  0.2560  0.3186
  282MOL    H6034342   4.102   5.361   6.611  2.2615  1.6413 -0.6549
  282MOL    H6134343   4.272   5.324   6.624  1.0992 -1.8197 -0.9098
  282MOL    C6234344   4.140   5.247   6.789 -0.9678  0.3003 -0.0099
  282MOL    F6334345   4.236   5.166   6.844 -0.2630 -0.5180  0.1676
  282MOL    F6434346   4.142   5.368   6.850  0.0514 -0.1354  0.6920
  282MOL    C6534347   4.008   5.181   6.823 -0.0627  0.5715  0.1939
  282MOL    H6634348   4.018   5.158   6.929 -0.0132  1.8506  0.4721
  282MOL    H6734349   4.003   5.082   6.777  2.1404  0.8862 -0.7903
  282MOL    C6834350   3.878   5.261   6.793 -0.4544  0.9847  0.1635
  282MOL    F6934351   3.870   5.302   6.666 -0.6671 -0.2697  0.3645
  282MOL    F7034352   3.785   5.163   6.802  0.2761 -0.3524  0.1543
  282MOL    C7134353   3.862   5.381   6.887  0.1162  0.9468 -0.4565
  282MOL    H7234354   3.949   5.446   6.891  0.4906  0.4384 -0.4389
  282MOL    H7334355   3.865   5.334   6.985 -1.6456  2.0549  0.1726
  282MOL    C7434356   3.738   5.465   6.871  0.9209 -0.1000 -0.3679
  282MOL    F7534357   3.751   5.520   6.758 -0.4582  0.3334 -0.3439
  282MOL    F7634358   3.624   5.389   6.864  0.0930 -0.1742 -0.3268
  282MOL    C7734359   3.709   5.570   6.975 -0.5059  0.3878  0.2810
  282MOL    H7834360   3.683   5.525   7.071  0.2309  1.2253  0.8758
  282MOL    H7934361   3.616   5.612   6.936 -0.8422 -1.5108 -0.9884
  282MOL    C8034362   3.832   5.658   7.010 -1.0831  0.6028  0.0652
  282MOL    F8134363   3.935   5.587   7.057 -0.0922 -0.0751  0.1051
  282MOL    F8234364   3.863   5.712   6.895  0.0150 -0.3032  0.3040
  282MOL    C8334365   3.794   5.780   7.105  0.7781  0.3471 -0.2191
  282MOL    H8434366   3.735   5.744   7.189  0.6532  0.4654 -0.2549
  282MOL    H8534367   3.726   5.841   7.046 -1.2064 -0.7872  0.8507
  282MOL    C8634368   3.914   5.864   7.169  0.9715  0.8302  0.4599
  282MOL    F8734369   3.857   5.977   7.211 -0.5199  0.0778 -0.2014
  282MOL    F8834370   3.964   5.805   7.282  0.0592 -0.7352  0.2350
  282MOL    C8934371   4.029   5.903   7.073  0.4746 -0.2170  0.0204
  282MOL    H9034372   4.011   5.974   6.992  1.7135  0.6698  0.5144
  282MOL    H9134373   4.076   5.815   7.029  1.4106 -0.0638  0.7164
  282MOL    C9234374   4.153   5.978   7.127  0.5464 -0.0304  0.2165
  282MOL    F9334375   4.234   5.894   7.192  0.4309  0.0368 -0.2305
  282MOL    F9434376   4.212   6.026   7.026 -0.2931 -0.6308  0.1376
  282MOL    C9534377   4.130   6.090   7.229 -0.1632  0.3586 -0.4482
  282MOL    H9634378   4.071   6.050   7.313  0.4617 -0.3484 -0.3374
  282MOL    H9734379   4.056   6.160   7.191 -1.0360  1.1166  2.5277
  282MOL    C9834380   4.251   6.184   7.279 -0.2775  0.0522 -0.0726
  282MOL    F9934381   4.327   6.226   7.179 -0.3129  0.2683  0.3031
  282MOL   F10034382   4.191   6.280   7.346 -0.1353 -0.0924 -0.0727
  282MOL   C10134383   4.350   6.114   7.381 -0.5220  0.9461  0.1138
  282MOL   H10234384   4.409   6.204   7.402 -0.3352  0.7345  0.4913
  282MOL   H10334385   4.419   6.044   7.334 -1.2576  0.9612 -1.0112
  282MOL   C10434386   4.298   6.056   7.519  0.4625  0.9354 -0.2187
  282MOL   F10534387   4.230   6.151   7.582  0.3295 -0.1976  0.3070
  282MOL   F10634388   4.213   5.958   7.509 -0.4801  0.3561  0.2953
  282MOL   C10734389   4.425   6.018   7.603  0.1139  0.0283  0.5518
  282MOL   H10834390   4.485   6.108   7.611  1.4301 -0.8050  0.1850
  282MOL   H10934391   4.483   5.947   7.544 -2.3570 -0.0717 -1.9122
  282MOL   C11034392   4.397   5.963   7.745  0.2075 -0.1472  0.4865
  282MOL   F11134393   4.511   5.964   7.814 -0.2110  0.5505 -0.2385
  282MOL   F11234394   4.310   6.040   7.812  0.5688  0.1969 -0.1019
  282MOL   C11334395   4.335   5.819   7.748 -0.1286  0.5029 -0.0529
  282MOL   H11434396   4.234   5.822   7.707 -0.4412  1.0769  0.7275
  282MOL   H11534397   4.319   5.787   7.851 -1.4716 -1.8937 -0.9754
  282MOL   C11634398   4.424   5.708   7.690  0.1904 -0.0863 -0.3314
  282MOL   F11734399   4.402   5.700   7.558 -0.9555 -0.7149 -0.0366
  282MOL   F11834400   4.547   5.726   7.722 -0.1799 -1.0894  0.0720
  282MOL   C11934401   4.395   5.570   7.745  0.0198  0.2181 -0.2667
  282MOL   H12034402   4.289   5.543   7.734  0.6496 -1.7295 -1.9275
  282MOL   H12134403   4.422   5.558   7.850 -1.2110  2.1588  0.2959
  282MOL   H12234404   4.452   5.489   7.699  0.5847  0.1628  0.5297
  283MOL     C134405   7.822   4.020   3.904  0.3098 -0.0456  0.8349
  283MOL     F234406   7.891   4.137   3.907 -0.8410 -0.1264  0.2773
  283MOL     F334407   7.858   3.955   3.801 -0.3091  0.1009  0.0748
  283MOL     C434408   7.675   4.042   3.887  0.5071 -0.2885  0.1656
  283MOL     H534409   7.654   4.114   3.808 -1.6445  1.5737  2.3123
  283MOL     H634410   7.632   4.100   3.969  0.3978 -0.7172  0.4118
  283MOL     H734411   7.836   3.967   3.998 -1.0971  1.8417  2.1580
  283MOL     C834412   7.587   3.915   3.885  0.0610  0.5594  0.3898
  283MOL     F934413   7.628   3.846   3.777 -0.2724  0.1170  0.2321
  283MOL    F1034414   7.622   3.844   3.994  0.3790 -0.5112  0.0505
  283MOL    C1134415   7.433   3.915   3.864  0.4385  0.3875  0.2104
  283MOL    H1234416   7.392   3.816   3.843 -0.0592  0.2698  1.6390
  283MOL    H1334417   7.407   3.977   3.778  1.4383  0.4199 -0.0674
  283MOL    C1434418   7.356   3.979   3.985  0.0448 -0.4774 -1.0873
  283MOL    F1534419   7.387   3.904   4.091 -0.0403  0.1789 -0.0768
  283MOL    F1634420   7.396   4.105   4.007 -0.4785  0.0544 -0.2202
  283MOL    C1734421   7.200   3.979   3.970  0.2483  0.3451  0.0006
  283MOL    H1834422   7.174   3.894   3.908  0.1790 -0.6355  1.3628
  283MOL    H1934423   7.167   4.062   3.908  1.3132  1.0110  0.2905
  283MOL    C2034424   7.125   3.985   4.106 -0.1409 -0.3902  0.3349
  283MOL    F2134425   6.994   3.987   4.080  0.3632 -0.0229 -0.5163
  283MOL    F2234426   7.146   3.870   4.172 -0.1286 -0.2581  0.1372
  283MOL    C2334427   7.171   4.107   4.190 -0.4386  0.4311 -0.5983
  283MOL    H2434428   7.201   4.191   4.127 -1.5570 -0.3629 -2.2119
  283MOL    H2534429   7.266   4.091   4.242 -0.9825 -0.7989  0.0501
  283MOL    C2634430   7.074   4.154   4.294  0.6367  0.2104 -0.2499
  283MOL    F2734431   7.132   4.250   4.372 -0.1606 -0.2435  0.1302
  283MOL    F2834432   6.972   4.205   4.229 -0.7453  0.1829  0.6645
  283MOL    C2934433   7.020   4.046   4.381  0.1086 -0.1865  0.2697
  283MOL    H3034434   7.100   3.988   4.425 -0.1416 -1.2349 -0.6185
  283MOL    H3134435   6.960   3.973   4.325 -0.4722  0.6376 -0.2044
  283MOL    C3234436   6.928   4.089   4.499  0.0023  0.1712  0.4342
  283MOL    F3334437   6.993   4.181   4.572  0.0167 -0.3781 -0.4746
  283MOL    F3434438   6.821   4.142   4.434  0.0548 -0.6354  0.2109
  283MOL    C3534439   6.892   3.963   4.588 -0.1732 -0.6002 -0.8012
  283MOL    H3634440   6.982   3.916   4.626 -0.2597  0.7154  1.0774
  283MOL    H3734441   6.838   3.885   4.534 -1.2450  0.4358 -1.2518
  283MOL    C3834442   6.788   3.988   4.701 -0.6774 -1.1075  0.1628
  283MOL    F3934443   6.682   4.051   4.651 -0.4525 -0.3614 -0.0678
  283MOL    F4034444   6.744   3.874   4.743 -0.2597 -0.0679  0.1005
  283MOL    C4134445   6.840   4.077   4.819 -0.3817  0.4896  0.1628
  283MOL    H4234446   6.892   4.161   4.773 -0.7335  2.3049  2.9661
  283MOL    H4334447   6.913   4.019   4.874 -1.0217 -0.2572  0.2233
  283MOL    C4434448   6.735   4.137   4.912  0.6692  0.2563  0.5732
  283MOL    F4534449   6.805   4.200   5.001  0.2789  0.2910 -0.4802
  283MOL    F4634450   6.673   4.232   4.840 -0.1834 -0.5485  0.0082
  283MOL    C4734451   6.637   4.031   4.979  0.1484  0.3181  0.3282
  283MOL    H4834452   6.696   3.942   5.004 -1.1382 -1.2315 -1.9391
  283MOL    H4934453   6.571   3.999   4.898  0.8385  0.3821 -0.2683
  283MOL    C5034454   6.554   4.082   5.103 -0.8352 -0.3941  0.4299
  283MOL    F5134455   6.493   4.188   5.079 -0.5207 -0.0388  0.2565
  283MOL    F5234456   6.457   3.999   5.118  0.2636  0.0868  0.9063
  283MOL    C5334457   6.635   4.084   5.234 -0.3469  0.3781  0.2820
  283MOL    H5434458   6.714   4.155   5.211  2.1551 -1.6560  2.2203
  283MOL    H5534459   6.693   3.991   5.239  0.3635  0.7900 -0.2221
  283MOL    C5634460   6.562   4.111   5.361 -0.1217 -0.5282 -0.2905
  283MOL    F5734461   6.471   4.021   5.384 -0.0433 -0.1493 -0.1299
  283MOL    F5834462   6.657   4.098   5.457 -0.3412  0.3932  0.4307
  283MOL    C5934463   6.498   4.259   5.361  0.1874 -0.7225 -0.0140
  283MOL    H6034464   6.404   4.258   5.304  0.0868  3.2329 -0.0918
  283MOL    H6134465   6.554   4.329   5.300 -0.4082  0.1395  0.4115
  283MOL    C6234466   6.459   4.315   5.501 -0.2582  0.0096  0.0368
  283MOL    F6334467   6.568   4.317   5.580 -0.3700  0.3927  0.0177
  283MOL    F6434468   6.410   4.441   5.496 -0.5813 -0.1902 -0.0967
  283MOL    C6534469   6.355   4.241   5.584  0.7909  1.1596  0.7457
  283MOL    H6634470   6.341   4.298   5.675 -0.9834 -2.1499  2.6607
  283MOL    H6734471   6.406   4.147   5.605  0.8697  1.2541  0.9693
  283MOL    C6834472   6.219   4.218   5.516 -0.0060 -0.3075  0.2518
  283MOL    F6934473   6.172   4.329   5.465 -0.0850  0.0902  0.0190
  283MOL    F7034474   6.219   4.128   5.412 -0.0288  0.1054 -0.3009
  283MOL    C7134475   6.123   4.175   5.624  0.0929 -0.3509 -0.1675
  283MOL    H7234476   6.110   4.249   5.703 -0.4303 -2.1195  1.4385
  283MOL    H7334477   6.162   4.084   5.669  0.5835  0.5079  1.1834
  283MOL    C7434478   5.986   4.146   5.560  0.3133  0.2237  0.2969
  283MOL    F7534479   5.935   4.260   5.516  0.2099  0.0126  0.4196
  283MOL    F7634480   5.988   4.051   5.469  0.0756 -0.0088 -0.2805
  283MOL    C7734481   5.874   4.111   5.663 -0.3659  0.0555 -0.0347
  283MOL    H7834482   5.778   4.113   5.611  0.3740  0.2206 -1.4027
  283MOL    H7934483   5.865   4.181   5.746 -1.7316 -1.0110  0.7485
  283MOL    C8034484   5.880   3.973   5.736  0.4877 -0.4557 -0.1222
  283MOL    F8134485   5.878   3.877   5.644 -0.1791 -0.1928 -0.0555
  283MOL    F8234486   6.000   3.957   5.787  0.1422  0.0200 -0.6293
  283MOL    C8334487   5.767   3.944   5.847  0.0616  0.6493 -0.3538
  283MOL    H8434488   5.673   3.984   5.808 -0.0723  1.7282  1.0138
  283MOL    H8534489   5.783   4.004   5.937  0.4420 -1.3553  0.9416
  283MOL    C8634490   5.761   3.801   5.898  0.2052 -0.3188  0.0441
  283MOL    F8734491   5.720   3.712   5.808 -0.3497  0.1586  0.1916
  283MOL    F8834492   5.886   3.766   5.934  0.6789 -0.5461  0.6580
  283MOL    C8934493   5.670   3.794   6.020 -0.2692 -0.0389 -0.2136
  283MOL    H9034494   5.714   3.853   6.100  0.1452  1.4063 -1.4742
  283MOL    H9134495   5.669   3.691   6.056  1.0065  0.6101  1.7133
  283MOL    C9234496   5.520   3.833   6.017  0.4012  0.0672  0.7985
  283MOL    F9334497   5.461   3.793   6.131 -0.7803 -0.0431  0.0239
  283MOL    F9434498   5.499   3.964   6.019 -0.3994 -0.5844  0.3410
  283MOL    C9534499   5.437   3.778   5.894  0.0681  0.4317  0.5943
  283MOL    H9634500   5.431   3.670   5.908 -0.6987  0.2815 -0.8820
  283MOL    H9734501   5.491   3.796   5.801  0.4142  1.3542  0.9710
  283MOL    C9834502   5.288   3.815   5.890 -0.0210 -0.8344  0.1513
  283MOL    F9934503   5.230   3.733   5.800 -0.3815 -0.3509 -0.7738
  283MOL   F10034504   5.236   3.774   6.005 -0.2406  0.2157  0.3506
  283MOL   C10134505   5.243   3.964   5.870 -0.3084 -0.0790 -0.3468
  283MOL   H10234506   5.253   4.019   5.964 -0.4162 -2.0507  0.8362
  283MOL   H10334507   5.136   3.952   5.850 -0.4281 -3.3113  1.8185
  283MOL   C10434508   5.305   4.038   5.754 -0.2163 -0.1418 -0.5872
  283MOL   F10534509   5.269   4.161   5.760  0.1003 -0.4549 -0.3299
  283MOL   F10634510   5.436   4.034   5.769 -0.5916  0.5346 -0.3877
  283MOL   C10734511   5.262   3.991   5.614 -0.8388  0.8860 -0.4916
  283MOL   H10834512   5.268   3.883   5.602  0.7149  0.8306  0.7673
  283MOL   H10934513   5.341   4.036   5.554  1.2969 -1.5205  0.4447
  283MOL   C11034514   5.127   4.026   5.560  0.7993  0.4511  0.1104
  283MOL   F11134515   5.044   3.987   5.652  0.3296  0.7269  0.5496
  283MOL   F11234516   5.101   4.162   5.557  0.3350 -0.0001  0.0131
  283MOL   C11334517   5.093   3.963   5.419 -0.5906 -0.1924 -0.0453
  283MOL   H11434518   5.005   4.013   5.380  1.7102  0.7122 -4.4303
  283MOL   H11534519   5.058   3.860   5.420 -1.8401  0.2228 -0.4669
  283MOL   C11634520   5.195   3.973   5.313 -0.3570  0.0802  0.9025
  283MOL   F11734521   5.297   3.897   5.351  0.2698  0.3152  0.2728
  283MOL   F11834522   5.152   3.926   5.200  0.6938 -0.2890  0.0282
  283MOL   C11934523   5.246   4.114   5.277  0.4674  0.2286  0.2930
  283MOL   H12034524   5.321   4.112   5.198  0.3487  0.9316  0.1579
  283MOL   H12134525   5.294   4.166   5.360 -0.5973  2.4715 -0.4604
  283MOL   H12234526   5.163   4.178   5.248  1.3186  0.7890 -0.9558
  284MOL     C134527   0.662   3.591   6.862  0.1492  0.3619  0.4999
  284MOL     F234528   0.752   3.501   6.909 -0.0998  0.0075 -0.0682
  284MOL     F334529   0.546   3.563   6.906  0.2282  0.0834 -0.0882
  284MOL     C434530   0.664   3.561   6.705 -0.1115  0.0982 -0.5453
  284MOL     H534531   0.630   3.458   6.690 -1.8416  0.7262 -1.0545
  284MOL     H634532   0.765   3.562   6.664  0.6403  0.3433  1.2542
  284MOL     H734533   0.676   3.695   6.889  0.4283  0.8740 -1.5008
  284MOL     C834534   0.585   3.671   6.626  0.2219 -0.2813  0.4675
  284MOL     F934535   0.470   3.709   6.683  0.4483 -0.2320 -0.1775
  284MOL    F1034536   0.673   3.767   6.629 -0.0368 -0.0636  0.6191
  284MOL    C1134537   0.542   3.629   6.487  0.0114 -0.0305  0.2439
  284MOL    H1234538   0.500   3.721   6.446  0.3123 -1.0816 -2.5197
  284MOL    H1334539   0.455   3.566   6.503  1.1622 -1.8968 -0.7002
  284MOL    C1434540   0.649   3.582   6.387  0.2114 -0.3570 -0.6730
  284MOL    F1534541   0.718   3.473   6.433 -0.3574  0.3466 -0.1576
  284MOL    F1634542   0.583   3.543   6.280 -0.0958  0.3017 -0.3469
  284MOL    C1734543   0.755   3.687   6.339 -0.2760  0.1414 -0.0650
  284MOL    H1834544   0.802   3.716   6.433  0.0451 -2.3825  0.5759
  284MOL    H1934545   0.705   3.782   6.321  0.1849  0.2744 -0.6562
  284MOL    C2034546   0.856   3.650   6.230  0.3315 -0.1323 -0.3083
  284MOL    F2134547   0.948   3.739   6.221 -0.2166 -0.0392 -0.1032
  284MOL    F2234548   0.921   3.536   6.264 -0.3974 -0.2833  0.1297
  284MOL    C2334549   0.780   3.635   6.098  0.2346  0.3315  0.2272
  284MOL    H2434550   0.721   3.726   6.088 -1.3793 -0.7999 -0.8249
  284MOL    H2534551   0.709   3.553   6.107 -0.3600  0.8661  0.5165
  284MOL    C2634552   0.859   3.633   5.972  0.0978  0.0197 -0.6972
  284MOL    F2734553   0.929   3.743   5.952  0.1551 -0.3167  0.4114
  284MOL    F2834554   0.956   3.532   5.989  0.3512  0.0595  0.3971
  284MOL    C2934555   0.776   3.594   5.844  0.0082 -0.3630  0.1322
  284MOL    H3034556   0.716   3.507   5.869 -0.9066 -0.6544 -2.8360
  284MOL    H3134557   0.852   3.566   5.770  0.3903 -0.5453  0.5967
  284MOL    C3234558   0.668   3.699   5.785 -0.5301  1.2707 -0.9910
  284MOL    F3334559   0.593   3.724   5.891 -0.1571  0.1600  0.2551
  284MOL    F3434560   0.721   3.810   5.744 -0.4079 -0.0221 -0.4848
  284MOL    C3534561   0.575   3.636   5.678  0.2033 -0.0952  0.4403
  284MOL    H3634562   0.526   3.548   5.719 -1.0311 -0.8521 -2.5202
  284MOL    H3734563   0.631   3.586   5.599 -2.1303  0.4135 -1.6234
  284MOL    C3834564   0.474   3.737   5.614  0.1101 -0.2634  0.5566
  284MOL    F3934565   0.550   3.817   5.537  0.1288  0.2612  0.0610
  284MOL    F4034566   0.393   3.668   5.541 -0.5339 -0.4234  0.1925
  284MOL    C4134567   0.390   3.828   5.712 -0.5259  0.3378  0.4277
  284MOL    H4234568   0.466   3.882   5.769 -0.3223  0.4536  0.0470
  284MOL    H4334569   0.333   3.775   5.788 -0.9064 -0.8999 -0.7133
  284MOL    C4434570   0.290   3.934   5.651 -0.6169  0.7966  0.1949
  284MOL    F4534571   0.179   3.881   5.594 -0.1016  0.5880 -0.2476
  284MOL    F4634572   0.246   4.005   5.748 -0.7715  0.1785 -0.0005
  284MOL    C4734573   0.356   4.029   5.546 -0.2347 -0.0588  0.4743
  284MOL    H4834574   0.340   3.973   5.454  0.4014 -2.1706  1.6279
  284MOL    H4934575   0.461   4.029   5.574  0.7774  0.0392 -3.0176
  284MOL    C5034576   0.295   4.172   5.561  0.1108 -0.4041 -0.5762
  284MOL    F5134577   0.319   4.227   5.440 -0.3897 -0.4583 -0.3177
  284MOL    F5234578   0.159   4.171   5.574  0.5286 -0.1020  0.1050
  284MOL    C5334579   0.348   4.274   5.669  0.0602  0.0311  0.4040
  284MOL    H5434580   0.303   4.240   5.762 -1.3820 -2.3449 -1.1180
  284MOL    H5534581   0.303   4.371   5.650 -0.4687 -0.4027 -0.5537
  284MOL    C5634582   0.504   4.289   5.685 -1.0920  1.1466 -0.4501
  284MOL    F5734583   0.546   4.174   5.747  0.1694  0.0924  0.0957
  284MOL    F5834584   0.568   4.309   5.566  0.0387  0.0199  0.2876
  284MOL    C5934585   0.536   4.398   5.783 -0.4755 -0.0565 -0.2154
  284MOL    H6034586   0.495   4.382   5.883 -2.4416  0.6680 -0.8736
  284MOL    H6134587   0.508   4.494   5.740  1.3676  0.6924  0.2036
  284MOL    C6234588   0.691   4.406   5.809  0.3261 -0.0367 -0.7578
  284MOL    F6334589   0.749   4.287   5.830  0.2758 -0.5952 -0.3242
  284MOL    F6434590   0.757   4.452   5.710  0.0044  0.1394  0.2210
  284MOL    C6534591   0.739   4.491   5.925 -0.0032 -0.1100 -0.5426
  284MOL    H6634592   0.845   4.468   5.938  0.8202  3.2475 -0.7161
  284MOL    H6734593   0.695   4.468   6.022  1.6997 -2.5748 -0.3062
  284MOL    C6834594   0.729   4.650   5.907  0.1843 -0.7215 -0.1454
  284MOL    F6934595   0.805   4.675   5.802 -0.1913  0.8265 -0.0399
  284MOL    F7034596   0.601   4.676   5.881 -0.3389  0.3743 -0.2266
  284MOL    C7134597   0.774   4.733   6.025  0.1972 -0.3229  0.6050
  284MOL    H7234598   0.724   4.698   6.115  0.9184  0.0070  1.1423
  284MOL    H7334599   0.723   4.828   6.007 -1.8964 -1.0230  2.6258
  284MOL    C7434600   0.928   4.731   6.049  0.1822 -0.4561  0.0866
  284MOL    F7534601   0.969   4.610   6.098  0.3915 -0.2896 -0.4222
  284MOL    F7634602   1.001   4.752   5.947  0.2806 -0.3238  0.2797
  284MOL    C7734603   0.972   4.828   6.162  1.2979 -0.3905  0.1712
  284MOL    H7834604   1.075   4.813   6.193  0.7197 -0.2620  2.2076
  284MOL    H7934605   0.924   4.800   6.256 -1.3113  3.5641  0.1410
  284MOL    C8034606   0.950   4.974   6.136  0.4636 -0.2006 -0.0961
  284MOL    F8134607   0.825   5.016   6.127  0.1908  0.9880 -0.6626
  284MOL    F8234608   1.014   5.032   6.237 -0.0097 -0.2169 -0.1043
  284MOL    C8334609   1.032   5.027   6.011  0.2303  0.5129  0.0639
  284MOL    H8434610   0.990   4.990   5.917  2.4436 -3.5276  0.5486
  284MOL    H8534611   1.135   4.991   6.006 -0.5521 -1.7702 -0.0969
  284MOL    C8634612   1.039   5.179   5.976  0.3736  0.4901  0.3675
  284MOL    F8734613   0.917   5.221   5.937 -0.4149  0.1994  0.2259
  284MOL    F8834614   1.066   5.237   6.090 -0.0457 -0.1810  0.0316
  284MOL    C8934615   1.149   5.201   5.871 -0.3440 -0.2432  0.1930
  284MOL    H9034616   1.135   5.130   5.790  0.2109 -1.8397  1.4892
  284MOL    H9134617   1.248   5.189   5.915 -0.3671  0.2769  0.3960
  284MOL    C9234618   1.148   5.338   5.794  0.2149  0.3873 -0.1996
  284MOL    F9334619   1.153   5.439   5.878  0.1969  0.3012 -0.5922
  284MOL    F9434620   1.266   5.339   5.734  0.4462 -0.7736 -0.1485
  284MOL    C9534621   1.047   5.361   5.682 -0.1136  1.0591 -0.2008
  284MOL    H9634622   0.945   5.361   5.721  0.2086  1.8777  0.6442
  284MOL    H9734623   1.038   5.279   5.610 -3.1803  0.6958  0.5178
  284MOL    C9834624   1.068   5.491   5.606 -0.3568 -0.1772 -0.1019
  284MOL    F9934625   1.061   5.597   5.694 -0.8892  0.3909  0.7704
  284MOL   F10034626   1.180   5.481   5.541  0.5162 -0.7498  0.2842
  284MOL   C10134627   0.962   5.528   5.501  0.0798 -0.1704  0.2005
  284MOL   H10234628   0.961   5.460   5.415 -1.3531 -1.3741  1.1389
  284MOL   H10334629   1.005   5.626   5.482 -1.6102  0.8834  1.6615
  284MOL   C10434630   0.811   5.532   5.539 -0.5773  0.2274  0.0275
  284MOL   F10534631   0.772   5.407   5.553  0.2175 -0.1318  0.0953
  284MOL   F10634632   0.795   5.595   5.656 -0.1707  0.1533  0.1829
  284MOL   C10734633   0.729   5.607   5.421 -0.7321 -0.2700  0.0888
  284MOL   H10834634   0.730   5.554   5.326 -1.0649 -1.1297  0.5533
  284MOL   H10934635   0.774   5.705   5.408  1.0430 -1.2435 -1.2775
  284MOL   C11034636   0.584   5.643   5.457 -0.2490  0.4691 -0.0895
  284MOL   F11134637   0.578   5.720   5.569  0.1849 -0.4635 -0.0501
  284MOL   F11234638   0.534   5.710   5.352 -0.0331  0.5188 -0.0049
  284MOL   C11334639   0.491   5.515   5.480 -0.1611 -0.6855  0.6462
  284MOL   H11434640   0.505   5.475   5.580  0.9848 -0.5550  0.5372
  284MOL   H11534641   0.511   5.443   5.401  0.7909 -1.4117  1.5514
  284MOL   C11634642   0.341   5.535   5.466 -0.3821  0.4036  0.7080
  284MOL   F11734643   0.324   5.579   5.344 -0.0235  0.0288  0.2572
  284MOL   F11834644   0.279   5.414   5.472  0.1359 -0.1796  0.6906
  284MOL   C11934645   0.294   5.640   5.565  0.4633  0.3543  0.3326
  284MOL   H12034646   0.189   5.657   5.542  0.6711 -0.4629 -1.2760
  284MOL   H12134647   0.341   5.739   5.563 -0.0040  0.5936  0.8301
  284MOL   H12234648   0.305   5.613   5.670  1.6182 -0.3361  0.0358
  285MOL     C134649   5.426   5.970   3.820  0.0752  0.5080 -0.0653
  285MOL     F234650   5.397   5.845   3.864  0.3632 -0.3650  0.4125
  285MOL     F334651   5.518   6.025   3.898  0.4495  0.2854  0.1968
  285MOL     C434652   5.297   6.050   3.827  0.2049  0.7577  0.0741
  285MOL     H534653   5.335   6.149   3.802  2.1400 -0.4234 -1.7979
  285MOL     H634654   5.267   6.065   3.931 -0.8340 -1.4837  0.1468
  285MOL     H734655   5.468   5.961   3.720  2.8117  2.5980  0.8407
  285MOL     C834656   5.184   5.999   3.737  0.0438 -0.0861 -0.2488
  285MOL     F934657   5.221   6.005   3.607 -0.1678 -0.1695  0.1351
  285MOL    F1034658   5.155   5.873   3.763  0.1907 -0.1948  0.1722
  285MOL    C1134659   5.045   6.071   3.769  0.0495  0.1272  0.1259
  285MOL    H1234660   5.014   6.043   3.870  2.2302 -2.6228  0.0993
  285MOL    H1334661   4.971   6.026   3.704 -0.4524  0.9709  0.1067
  285MOL    C1434662   5.031   6.219   3.735  0.0589  0.3476 -0.1548
  285MOL    F1534663   5.124   6.292   3.803  0.3549 -0.2255 -0.2839
  285MOL    F1634664   5.058   6.233   3.606  0.0259  0.2472  0.6009
  285MOL    C1734665   4.891   6.272   3.770  0.5544  0.3446  0.2587
  285MOL    H1834666   4.886   6.280   3.879 -0.2296  1.5260  0.1338
  285MOL    H1934667   4.812   6.206   3.734  1.0102  0.4377 -0.9326
  285MOL    C2034668   4.853   6.413   3.722 -0.5620  0.0126  0.0955
  285MOL    F2134669   4.738   6.454   3.776  0.4638  0.1637  0.0062
  285MOL    F2234670   4.944   6.500   3.760 -0.0252  0.6347  0.7701
  285MOL    C2334671   4.837   6.417   3.567  0.4683  0.1492  0.5834
  285MOL    H2434672   4.783   6.333   3.525  1.6027  0.5582 -1.7657
  285MOL    H2534673   4.933   6.400   3.518  0.7221  1.3940  0.6285
  285MOL    C2634674   4.772   6.543   3.507 -0.1063  0.2383 -0.3335
  285MOL    F2734675   4.640   6.562   3.532  0.0939 -0.5571 -0.1068
  285MOL    F2834676   4.833   6.643   3.561 -0.1020 -0.0648 -0.6553
  285MOL    C2934677   4.801   6.534   3.363 -0.8144  0.3048 -0.0699
  285MOL    H3034678   4.776   6.438   3.320  1.1265  0.5278 -1.7822
  285MOL    H3134679   4.909   6.546   3.357 -0.3945 -2.7875  0.8924
  285MOL    C3234680   4.742   6.650   3.268 -0.6921 -0.0011 -0.2779
  285MOL    F3334681   4.777   6.626   3.142 -0.5952 -0.4655 -0.2163
  285MOL    F3434682   4.608   6.648   3.265  0.0588  1.1615 -0.2101
  285MOL    C3534683   4.784   6.788   3.312 -0.4640 -0.6012  0.3637
  285MOL    H3634684   4.750   6.806   3.414 -0.7377 -0.4203  0.2398
  285MOL    H3734685   4.726   6.848   3.242  0.6041  0.5690  0.4551
  285MOL    C3834686   4.942   6.824   3.314 -0.6965 -0.0586  0.4538
  285MOL    F3934687   4.946   6.953   3.351 -0.0518 -0.3485 -0.1709
  285MOL    F4034688   5.014   6.749   3.401 -0.2194 -0.2001 -0.3613
  285MOL    C4134689   5.014   6.804   3.185 -0.5318  0.5422 -0.1776
  285MOL    H4234690   4.958   6.853   3.104  2.1500  0.9804 -1.8398
  285MOL    H4334691   5.013   6.700   3.153 -0.2022  0.7113 -0.7362
  285MOL    C4434692   5.152   6.877   3.180 -0.0975  0.0338  0.7090
  285MOL    F4534693   5.126   7.005   3.176  0.3924 -0.4494  0.4288
  285MOL    F4634694   5.230   6.849   3.286 -0.2972 -0.4287 -0.5561
  285MOL    C4734695   5.227   6.842   3.053 -0.4786  0.4975 -0.0063
  285MOL    H4834696   5.171   6.850   2.960 -0.5052 -2.2464 -0.2551
  285MOL    H4934697   5.243   6.735   3.045 -0.9094  0.5912 -2.5552
  285MOL    C5034698   5.367   6.899   3.039  0.1559  0.1032  0.1158
  285MOL    F5134699   5.447   6.841   3.125 -0.0279 -0.5416  0.0818
  285MOL    F5234700   5.411   6.877   2.917  0.1606 -0.2868 -0.0314
  285MOL    C5334701   5.386   7.049   3.053 -0.1598  0.3280  0.0433
  285MOL    H5434702   5.381   7.074   3.159  0.2803  0.4736  0.0335
  285MOL    H5534703   5.300   7.098   3.008 -0.2154  0.6504  0.5081
  285MOL    C5634704   5.532   7.090   3.006 -0.1698 -0.3639 -0.5845
  285MOL    F5734705   5.612   7.015   3.082 -0.2894  0.2905 -0.6817
  285MOL    F5834706   5.540   7.066   2.873  0.6041  0.6830 -0.5078
  285MOL    C5934707   5.569   7.243   3.022  0.0372 -0.1490  0.2395
  285MOL    H6034708   5.540   7.285   3.118  0.5928  1.2444 -0.1823
  285MOL    H6134709   5.494   7.291   2.959  1.1092  2.2534  0.7485
  285MOL    C6234710   5.712   7.296   2.986  0.1389 -0.3193  0.4187
  285MOL    F6334711   5.752   7.254   2.867 -0.9516  0.0409  0.0744
  285MOL    F6434712   5.706   7.427   2.971  0.1732  0.3725 -0.1326
  285MOL    C6534713   5.819   7.259   3.084  0.0658  1.1525  0.3561
  285MOL    H6634714   5.864   7.167   3.045 -1.2001  1.4416 -1.8781
  285MOL    H6734715   5.775   7.231   3.179  0.8409 -2.8404 -0.3722
  285MOL    C6834716   5.932   7.360   3.093  0.5212  0.3606  0.5946
  285MOL    F6934717   5.974   7.397   2.974 -0.1015 -0.0285  0.1035
  285MOL    F7034718   5.889   7.467   3.148  0.4250  0.2713  0.2765
  285MOL    C7134719   6.061   7.316   3.176  0.3348 -0.0601  0.1199
  285MOL    H7234720   6.026   7.305   3.278 -0.9094 -0.0583 -0.3068
  285MOL    H7334721   6.143   7.389   3.169  2.0968 -1.9745  0.2038
  285MOL    C7434722   6.120   7.176   3.145  0.1838  0.7898  0.3437
  285MOL    F7534723   6.033   7.075   3.186  0.0828 -0.0213 -0.3579
  285MOL    F7634724   6.139   7.175   3.013  0.3723 -0.3198 -0.0752
  285MOL    C7734725   6.250   7.150   3.229  0.8528 -0.4668 -0.4481
  285MOL    H7834726   6.228   7.165   3.335  0.7907  0.1891 -0.5471
  285MOL    H7934727   6.316   7.235   3.206  0.5092  0.2868  1.2751
  285MOL    C8034728   6.326   7.020   3.207  0.5180 -0.0993  0.3326
  285MOL    F8134729   6.400   7.028   3.100 -0.0171  0.5622  0.5051
  285MOL    F8234730   6.403   7.013   3.313  0.1387  0.2292 -0.0838
  285MOL    C8334731   6.235   6.886   3.215  0.4655 -0.4214 -0.1041
  285MOL    H8434732   6.187   6.877   3.118  2.3980 -0.4213 -1.0908
  285MOL    H8534733   6.156   6.891   3.290  1.1798 -1.5593  0.7418
  285MOL    C8634734   6.311   6.754   3.245 -0.0286 -0.0120 -0.0005
  285MOL    F8734735   6.376   6.761   3.364  0.0506  0.2543 -0.3573
  285MOL    F8834736   6.223   6.658   3.255  0.0223 -0.3414 -0.4982
  285MOL    C8934737   6.406   6.728   3.122  0.2445  0.1712  0.4667
  285MOL    H9034738   6.475   6.812   3.115 -0.9058  0.9047 -2.8907
  285MOL    H9134739   6.349   6.727   3.029  1.2393 -2.4736 -0.1480
  285MOL    C9234740   6.463   6.586   3.122 -0.7753  1.1435  0.1459
  285MOL    F9334741   6.360   6.503   3.106 -0.1498  0.5546 -0.0289
  285MOL    F9434742   6.544   6.575   3.013 -0.6053  0.6795  0.2264
  285MOL    C9534743   6.555   6.550   3.241 -0.3283  0.6314  1.0259
  285MOL    H9634744   6.483   6.548   3.323  0.6938  2.7257  2.0255
  285MOL    H9734745   6.626   6.621   3.284 -2.8713  4.8431 -1.3421
  285MOL    C9834746   6.629   6.419   3.218 -0.1701  0.2555 -0.0357
  285MOL    F9934747   6.549   6.322   3.173 -0.1013 -0.1570 -0.3173
  285MOL   F10034748   6.729   6.441   3.134 -0.3346  0.3465 -0.9923
  285MOL   C10134749   6.688   6.350   3.346 -0.1860  0.0308 -0.1516
  285MOL   H10234750   6.742   6.257   3.328  0.7483  0.9518 -2.3220
  285MOL   H10334751   6.610   6.318   3.415  2.6400 -3.2455  1.6507
  285MOL   C10434752   6.780   6.436   3.443 -0.7933  0.3157 -0.0243
  285MOL   F10534753   6.880   6.488   3.370 -0.1006  0.3078  0.4136
  285MOL   F10634754   6.700   6.536   3.480  0.1586  0.1299  0.3053
  285MOL   C10734755   6.833   6.365   3.565 -0.2534  0.5000  0.2131
  285MOL   H10834756   6.751   6.306   3.608  0.6703 -1.0521 -0.1130
  285MOL   H10934757   6.854   6.446   3.634 -3.9131  2.1214 -0.4301
  285MOL   C11034758   6.966   6.274   3.543 -0.2894  0.2136 -0.9386
  285MOL   F11134759   6.925   6.197   3.445  0.5122  0.3731 -0.6883
  285MOL   F11234760   7.069   6.348   3.508 -0.2814 -0.0913 -0.3378
  285MOL   C11334761   7.016   6.193   3.663  0.4048  1.0752 -0.5102
  285MOL   H11434762   7.077   6.105   3.644 -1.5773 -0.4463 -0.0011
  285MOL   H11534763   6.926   6.143   3.696  1.0635  0.0803 -0.1963
  285MOL   C11634764   7.076   6.275   3.779 -0.4547  0.8792 -0.2375
  285MOL   F11734765   7.203   6.323   3.755  0.2494  0.2229 -0.1939
  285MOL   F11834766   7.000   6.382   3.792 -0.1009  0.4402  0.2017
  285MOL   C11934767   7.078   6.199   3.915 -0.2628 -0.0317  0.0805
  285MOL   H12034768   6.988   6.202   3.976 -0.6635  2.5981 -0.5690
  285MOL   H12134769   7.151   6.247   3.979  0.8669 -0.0755 -1.1472
  285MOL   H12234770   7.109   6.095   3.904 -2.8618 -0.9345  0.9592
  286MOL     C134771   0.210   4.235   7.616  0.7424 -0.3469  0.2343
  286MOL     F234772   0.103   4.200   7.537 -0.5098 -0.0952 -0.2796
  286MOL     F334773   0.163   4.311   7.714 -0.2485 -0.1234  0.1956
  286MOL     C434774   0.308   4.324   7.545 -0.9090 -0.0239 -0.4023
  286MOL     H534775   0.351   4.399   7.611 -0.9010  0.4387 -0.9251
  286MOL     H634776   0.249   4.388   7.480 -0.8577 -0.2323 -0.6531
  286MOL     H734777   0.259   4.155   7.672 -0.0530  0.3010  1.9063
  286MOL     C834778   0.415   4.242   7.466 -0.4214  0.5246  0.9640
  286MOL     F934779   0.504   4.190   7.553 -0.0749 -0.6258  0.4996
  286MOL    F1034780   0.357   4.146   7.405  0.2782  0.4624 -0.5662
  286MOL    C1134781   0.499   4.316   7.367  0.3941 -0.3943 -0.2098
  286MOL    H1234782   0.573   4.248   7.324  0.1999  1.4123 -3.6041
  286MOL    H1334783   0.562   4.388   7.419  1.5259 -1.1673 -0.4910
  286MOL    C1434784   0.430   4.374   7.242 -0.1028  0.8070  0.2296
  286MOL    F1534785   0.360   4.273   7.177  0.6104  0.3637  0.3810
  286MOL    F1634786   0.352   4.476   7.272 -0.1808 -0.0561  0.4226
  286MOL    C1734787   0.530   4.432   7.141 -0.5605 -0.8654  0.0148
  286MOL    H1834788   0.607   4.358   7.119 -2.1494 -2.0591 -1.5693
  286MOL    H1934789   0.578   4.522   7.179  0.6470 -0.3541 -2.6270
  286MOL    C2034790   0.480   4.489   7.002 -0.4602 -0.2332 -0.2357
  286MOL    F2134791   0.449   4.380   6.939  0.0828  0.1522  0.2028
  286MOL    F2234792   0.370   4.575   7.011  0.0597  0.0305 -0.5655
  286MOL    C2334793   0.591   4.572   6.932  0.6523 -0.0615 -0.7409
  286MOL    H2434794   0.675   4.510   6.901  0.3160 -0.7041 -0.3805
  286MOL    H2534795   0.637   4.648   6.995  0.1538 -0.2494 -0.1424
  286MOL    C2634796   0.540   4.619   6.798 -0.3804  0.6939  0.7749
  286MOL    F2734797   0.485   4.507   6.737  0.1077  0.1913  0.0656
  286MOL    F2834798   0.444   4.716   6.812  0.4401  0.1700 -0.1363
  286MOL    C2934799   0.652   4.687   6.706  0.6430 -0.1826 -0.2804
  286MOL    H3034800   0.727   4.619   6.667  2.5867  1.2653  0.8826
  286MOL    H3134801   0.711   4.756   6.765  3.2492 -0.8396 -2.0191
  286MOL    C3234802   0.601   4.770   6.594  0.5061  0.3171 -0.0225
  286MOL    F3334803   0.544   4.884   6.638  0.0240 -0.4726  0.0949
  286MOL    F3434804   0.714   4.791   6.517 -0.5483  0.1738  0.4239
  286MOL    C3534805   0.494   4.702   6.512 -0.0806  0.8044 -0.5130
  286MOL    H3634806   0.410   4.672   6.574 -1.3145  4.9145 -0.0734
  286MOL    H3734807   0.539   4.608   6.480  1.6276  1.3974  0.0690
  286MOL    C3834808   0.439   4.777   6.391  1.1429 -0.5937 -0.2344
  286MOL    F3934809   0.378   4.882   6.439 -0.6668 -0.2888  0.7209
  286MOL    F4034810   0.532   4.823   6.307  0.1870  0.3994 -0.0202
  286MOL    C4134811   0.344   4.692   6.306  0.5531  0.1741 -0.2479
  286MOL    H4234812   0.262   4.660   6.370 -0.1537  0.9700 -0.7366
  286MOL    H4334813   0.402   4.603   6.282 -2.8327 -1.9370 -0.9173
  286MOL    C4434814   0.294   4.763   6.172  0.3350  0.0273  0.3166
  286MOL    F4534815   0.218   4.854   6.221 -0.0687  0.6030  0.1819
  286MOL    F4634816   0.402   4.809   6.110  0.0499 -0.1699 -0.3607
  286MOL    C4734817   0.216   4.662   6.085 -0.9426  0.1712 -0.2533
  286MOL    H4834818   0.282   4.576   6.071 -1.4912 -0.5896  1.5758
  286MOL    H4934819   0.209   4.701   5.983 -0.0753  1.6133  0.2302
  286MOL    C5034820   0.091   4.597   6.141  0.9127  0.1303  0.1733
  286MOL    F5134821   0.103   4.510   6.237 -0.0983  0.6826 -0.1110
  286MOL    F5234822   0.003   4.689   6.181 -0.1961 -0.0950  0.3142
  286MOL    C5334823   0.018   4.522   6.026 -0.6170  0.4351 -0.5339
  286MOL    H5434824   8.334   4.591   5.949  0.1744  0.5612 -0.7685
  286MOL    H5534825   8.272   4.482   6.058  0.5243 -2.4552 -0.5917
  286MOL    C5634826   0.096   4.413   5.951 -0.0937 -0.0653  0.3164
  286MOL    F5734827   0.190   4.470   5.875 -0.2641 -0.2330 -0.1263
  286MOL    F5834828   0.166   4.345   6.043 -0.2568  0.5386 -0.2317
  286MOL    C5934829   0.020   4.320   5.863  0.5172  0.0070  0.4337
  286MOL    H6034830   0.090   4.273   5.794  0.4485  1.5989 -0.7476
  286MOL    H6134831   8.301   4.374   5.798 -2.0968 -0.3477  2.7987
  286MOL    C6234832   8.287   4.206   5.936 -0.9226 -0.9190 -0.3041
  286MOL    F6334833   0.029   4.129   6.003  0.2570  0.1320 -0.2239
  286MOL    F6434834   8.201   4.252   6.029  0.2268  0.2998 -0.2448
  286MOL    C6534835   8.195   4.117   5.846 -0.4364 -0.4459 -0.5663
  286MOL    H6634836   8.158   4.039   5.912  1.2305 -1.6834 -1.0633
  286MOL    H6734837   8.254   4.068   5.769  1.1174  2.4941 -1.3487
  286MOL    C6834838   8.074   4.187   5.785  0.1915 -0.0701  0.3380
  286MOL    F6934839   8.107   4.293   5.708 -0.1304 -0.7850  0.0655
  286MOL    F7034840   8.013   4.094   5.709  0.0262 -0.5897 -0.4298
  286MOL    C7134841   7.973   4.241   5.894 -0.3258 -0.2794  0.3468
  286MOL    H7234842   8.013   4.322   5.955  0.0767 -0.9053  0.9274
  286MOL    H7334843   7.951   4.157   5.960 -0.1766 -1.5613 -1.2007
  286MOL    C7434844   7.842   4.304   5.835  0.0083  0.2461  0.5308
  286MOL    F7534845   7.790   4.217   5.748 -0.5038  0.2642  0.2500
  286MOL    F7634846   7.755   4.307   5.933 -0.0701 -0.0502 -0.3046
  286MOL    C7734847   7.847   4.440   5.759 -0.3325 -0.0037  0.4003
  286MOL    H7834848   7.749   4.466   5.720  0.2594  0.3096 -0.9213
  286MOL    H7934849   7.917   4.421   5.677 -0.7032 -0.0627  0.0967
  286MOL    C8034850   7.893   4.560   5.841  0.3364  0.6909  0.4408
  286MOL    F8134851   7.807   4.586   5.943 -0.4189 -0.2191  0.4744
  286MOL    F8234852   8.014   4.539   5.892  0.0065  0.3533  0.1688
  286MOL    C8334853   7.895   4.692   5.750 -0.0043  0.5819  0.1788
  286MOL    H8434854   7.896   4.778   5.817 -2.2633 -0.2932  1.3694
  286MOL    H8534855   7.795   4.700   5.707  0.4036  0.7594 -0.7600
  286MOL    C8634856   7.992   4.707   5.628  0.3427  0.1835  0.2794
  286MOL    F8734857   7.955   4.605   5.546  0.6514 -0.2121 -0.0014
  286MOL    F8834858   7.969   4.818   5.559  0.0466 -0.0638 -0.5145
  286MOL    C8934859   8.141   4.704   5.650 -0.2619  0.1701 -0.1005
  286MOL    H9034860   8.205   4.696   5.562 -1.0759 -2.5080 -0.5002
  286MOL    H9134861   8.150   4.608   5.701 -0.0423  1.1816  1.8062
  286MOL    C9234862   8.200   4.812   5.736 -0.7008  0.1322 -0.7945
  286MOL    F9334863   8.129   4.810   5.850 -0.8710  0.1108 -0.6068
  286MOL    F9434864   8.328   4.777   5.768 -0.4666 -0.1021 -0.1880
  286MOL    C9534865   8.197   4.956   5.675  0.3268 -0.4236 -0.1309
  286MOL    H9634866   8.241   5.025   5.748 -0.7969  0.5836 -0.3901
  286MOL    H9734867   8.098   5.001   5.665 -0.2134 -1.7362 -0.7745
  286MOL    C9834868   8.258   4.980   5.539 -0.3518  0.0537 -0.2824
  286MOL    F9934869   0.039   4.947   5.544 -0.0150 -0.7611 -0.2609
  286MOL   F10034870   8.211   4.898   5.442 -0.4258  0.7544  0.0504
  286MOL   C10134871   8.259   5.128   5.496 -0.0738 -1.2149  0.7560
  286MOL   H10234872   8.291   5.125   5.392 -0.8393 -0.7158  0.5028
  286MOL   H10334873   8.340   5.176   5.551 -0.0325  0.8574 -1.0490
  286MOL   C10434874   8.122   5.218   5.503 -0.3302 -0.0750  0.3543
  286MOL   F10534875   8.030   5.143   5.431 -0.4126  0.0552  0.2189
  286MOL   F10634876   8.084   5.231   5.633 -0.1929  0.8179  0.5338
  286MOL   C10734877   8.134   5.352   5.423 -0.6529  0.3617 -0.0781
  286MOL   H10834878   8.033   5.391   5.411 -0.5005  1.0640  0.8258
  286MOL   H10934879   8.166   5.327   5.322 -1.8547 -0.3596 -0.2913
  286MOL   C11034880   8.222   5.459   5.488  0.3914 -0.5788  0.7901
  286MOL   F11134881   8.182   5.485   5.615 -0.0879  0.4621 -0.9411
  286MOL   F11234882   8.342   5.407   5.483  0.2404  0.3357 -0.8108
  286MOL   C11334883   8.197   5.595   5.422 -0.4354  0.0582  0.0091
  286MOL   H11434884   8.241   5.672   5.485 -2.9877  1.8839 -0.3646
  286MOL   H11534885   8.089   5.612   5.428 -0.6606 -0.6977 -1.7447
  286MOL   C11634886   8.238   5.609   5.277 -0.1572 -0.1963 -0.3118
  286MOL   F11734887   8.198   5.515   5.193 -0.1191 -0.3484  0.4344
  286MOL   F11834888   8.183   5.725   5.243 -0.1372  0.3686 -0.6413
  286MOL   C11934889   0.036   5.633   5.259 -0.1373 -0.5158  0.6727
  286MOL   H12034890   0.083   5.539   5.285  0.7423 -0.7714 -1.7438
  286MOL   H12134891   0.064   5.719   5.320  1.6039 -0.4832 -0.1433
  286MOL   H12234892   0.063   5.663   5.158 -1.5029 -1.4913  0.0162
  287MOL     C134893   1.378   2.549   7.779 -0.1682  0.3571  0.2481
  287MOL     F234894   1.395   2.496   7.897 -0.1775 -0.0373  0.6358
  287MOL     F334895   1.258   2.516   7.732  0.1161  0.1950 -0.2323
  287MOL     C434896   1.480   2.498   7.678 -0.2330 -0.9181  0.1128
  287MOL     H534897   1.476   2.390   7.669  1.1742 -1.1598  2.0659
  287MOL     H634898   1.578   2.516   7.723  0.6600  1.7253 -2.7063
  287MOL     H734899   1.381   2.658   7.783 -0.3081  0.3613  0.2308
  287MOL     C834900   1.485   2.568   7.536  0.5724  0.2335  0.0869
  287MOL     F934901   1.588   2.532   7.460  0.2141  0.3384 -0.2447
  287MOL    F1034902   1.379   2.533   7.472  0.2988 -0.1912  0.2771
  287MOL    C1134903   1.494   2.723   7.546 -0.3550  0.0320 -0.3560
  287MOL    H1234904   1.403   2.770   7.582 -0.5887 -0.7593  0.1116
  287MOL    H1334905   1.509   2.745   7.441  1.0654  1.1154  0.0542
  287MOL    C1434906   1.619   2.771   7.622 -0.5313 -0.1973  0.8292
  287MOL    F1534907   1.593   2.741   7.746 -0.5541  0.0785 -0.0222
  287MOL    F1634908   1.732   2.709   7.579  0.4353 -0.0738 -0.6921
  287MOL    C1734909   1.619   2.926   7.597 -0.2632 -0.1604  0.2339
  287MOL    H1834910   1.533   2.985   7.630  2.1448  1.4079  3.9664
  287MOL    H1934911   1.633   2.941   7.490 -1.3264 -0.2075  0.0764
  287MOL    C2034912   1.731   3.006   7.674 -0.5014 -0.0161  0.0513
  287MOL    F2134913   1.853   2.959   7.641 -0.1602  0.4528  0.2935
  287MOL    F2234914   1.716   3.133   7.637 -0.1318  0.1221  0.1991
  287MOL    C2334915   1.707   3.012   7.830  0.2130 -0.0618 -0.0078
  287MOL    H2434916   1.727   2.909   7.859  0.0575 -0.1970 -0.3764
  287MOL    H2534917   1.601   3.031   7.844 -0.2757 -0.8166 -2.4364
  287MOL    C2634918   1.801   3.119   7.904 -0.1212 -0.2504  0.2799
  287MOL    F2734919   1.932   3.100   7.866 -0.2543  0.4796  0.1450
  287MOL    F2834920   1.769   3.243   7.883 -0.0055  0.1120  0.0494
  287MOL    C2934921   1.799   3.092   8.056 -0.1587  0.6555 -0.5961
  287MOL    H3034922   1.841   2.993   8.069  0.1345  0.8428 -0.1180
  287MOL    H3134923   1.695   3.082   8.089  1.2660 -1.7552  3.4629
  287MOL    C3234924   1.875   3.185   8.151 -0.0589 -0.1375  0.1788
  287MOL    F3334925   1.816   3.301   8.157  0.0499  0.6955 -0.6600
  287MOL    F3434926   1.865   3.127   8.267 -0.2921 -0.2852  0.1136
  287MOL    C3534927   2.026   3.211   8.135  0.1739 -0.1217  0.1851
  287MOL    H3634928   2.043   3.264   8.042 -0.0392  1.2912  0.9250
  287MOL    H3734929   2.069   3.113   8.120 -0.0276 -0.0038 -1.2128
  287MOL    C3834930   2.100   3.285   8.255  0.3411  0.0315  0.8932
  287MOL    F3934931   2.038   3.399   8.270  0.2733  0.2273  0.4590
  287MOL    F4034932   2.087   3.214   0.019 -0.2665 -0.1333 -0.3553
  287MOL    C4134933   2.247   3.304   8.219  0.3227  0.1679  0.3690
  287MOL    H4234934   2.259   3.352   8.122 -0.0714  0.7533  0.6096
  287MOL    H4334935   2.291   3.205   8.212 -0.8372 -0.3855  0.7072
  287MOL    C4434936   2.329   3.379   8.325  0.1278  0.0097 -0.0108
  287MOL    F4534937   2.267   3.487   0.013 -0.2738  0.0820  0.4945
  287MOL    F4634938   2.338   3.303   0.081 -0.5808  0.5071  0.1992
  287MOL    C4734939   2.472   3.405   8.277 -0.0747 -0.0537 -0.0281
  287MOL    H4834940   2.472   3.440   8.174 -0.6171 -3.4924 -1.2770
  287MOL    H4934941   2.512   3.303   8.271 -0.0261 -0.0532  0.2509
  287MOL    C5034942   2.569   3.482   0.030  0.3505 -0.4789  0.9539
  287MOL    F5134943   2.511   3.601   0.067 -0.4680  0.5074  0.0644
  287MOL    F5234944   2.580   3.401   0.136 -0.4302 -0.1802 -0.0101
  287MOL    C5334945   2.716   3.508   8.332  0.2332 -0.3278 -0.2819
  287MOL    H5434946   2.775   3.547   0.064  0.8568 -0.0840 -0.8439
  287MOL    H5534947   2.719   3.593   8.264 -0.6120  0.1414  0.2591
  287MOL    C5634948   2.783   3.382   8.274 -0.1702  0.7729  0.3021
  287MOL    F5734949   2.732   3.374   8.151  0.6187 -0.1168 -1.1877
  287MOL    F5834950   2.914   3.405   8.254  0.1198 -0.3367  0.0279
  287MOL    C5934951   2.761   3.250   0.005  0.3674  0.2404  0.2471
  287MOL    H6034952   2.656   3.224   0.020  0.4846  0.1065  0.8314
  287MOL    H6134953   2.793   3.279   0.105  0.7129  0.3415  0.1072
  287MOL    C6234954   2.827   3.122   8.307 -0.3555 -0.5858 -0.4796
  287MOL    F6334955   2.766   3.078   8.199  0.2466 -0.2054 -0.3738
  287MOL    F6434956   2.955   3.147   8.279  0.5962 -0.2663 -0.0517
  287MOL    C6534957   2.823   3.013   0.060 -0.7039  0.2085  0.4778
  287MOL    H6634958   2.719   3.004   0.093  0.1227 -1.3085  2.8238
  287MOL    H6734959   2.878   3.051   0.146  1.1594  0.2494 -0.7126
  287MOL    C6834960   2.868   2.867   0.013  0.2173 -0.5547 -0.3187
  287MOL    F6934961   2.770   2.795   8.312  0.2504 -0.4427  0.5827
  287MOL    F7034962   2.966   2.880   8.274  0.0678  0.2867  0.2965
  287MOL    C7134963   2.933   2.785   0.126  0.0024  0.0202  0.3936
  287MOL    H7234964   3.027   2.834   0.155 -0.0607 -0.9500  2.3223
  287MOL    H7334965   2.960   2.696   0.070 -0.1903 -0.2553  0.7356
  287MOL    C7434966   2.836   2.749   0.248  0.2222 -0.1444  0.1366
  287MOL    F7534967   2.800   2.861   0.312  0.0244 -0.3121  0.1450
  287MOL    F7634968   2.723   2.688   0.209 -0.2082  0.0614  0.0592
  287MOL    C7734969   2.910   2.658   0.354 -0.0635 -0.3763 -0.2749
  287MOL    H7834970   3.000   2.714   0.378 -0.3695  1.1424 -2.4843
  287MOL    H7934971   2.944   2.567   0.306 -0.2168 -0.4848 -0.1791
  287MOL    C8034972   2.817   2.614   0.464 -0.2511 -0.4670  0.2374
  287MOL    F8134973   2.765   2.730   0.524 -0.5366 -0.3058  0.0883
  287MOL    F8234974   2.713   2.558   0.415  0.4855  0.2957 -0.1662
  287MOL    C8334975   2.884   2.546   0.585  0.5919 -0.1532 -0.5493
  287MOL    H8434976   2.889   2.438   0.567 -1.0779 -0.2978 -0.1808
  287MOL    H8534977   2.812   2.545   0.667 -0.1548 -1.8364 -1.1874
  287MOL    C8634978   3.026   2.590   0.628  0.6126 -0.0156  0.1329
  287MOL    F8734979   3.112   2.545   0.535  0.1846  0.4536  0.4905
  287MOL    F8834980   3.024   2.722   0.630 -0.0958 -0.4832  0.4698
  287MOL    C8934981   3.071   2.543   0.765  0.0638  0.2958 -0.7030
  287MOL    H9034982   3.023   2.593   0.848  1.0518  2.1247 -1.1967
  287MOL    H9134983   3.176   2.571   0.752  0.4156 -0.9855 -0.6476
  287MOL    C9234984   3.087   2.386   0.786 -0.5215 -0.2530  0.2375
  287MOL    F9334985   2.960   2.340   0.775 -0.3871 -0.0572 -0.0506
  287MOL    F9434986   3.153   2.322   0.686 -0.7323  0.1825  0.2698
  287MOL    C9534987   3.143   2.346   0.924  0.1115  0.2925  0.0704
  287MOL    H9634988   3.070   2.379   0.998  0.6298  2.4145 -0.3451
  287MOL    H9734989   3.237   2.397   0.937  0.5106 -0.6019  0.7270
  287MOL    C9834990   3.159   2.196   0.959  0.6555  0.0768 -0.4632
  287MOL    F9934991   3.246   2.148   0.873  0.5837  0.3350  0.0174
  287MOL   F10034992   3.209   2.178   1.087  0.3627  0.3709  0.0194
  287MOL   C10134993   3.033   2.111   0.951 -0.1442 -0.0394 -1.0433
  287MOL   H10234994   3.002   2.121   0.847  0.8581  1.3035 -1.2455
  287MOL   H10334995   2.957   2.156   1.015  0.6430 -3.6673  2.6390
  287MOL   C10434996   3.036   1.962   0.976 -0.2564  0.4484  0.4924
  287MOL   F10534997   3.105   1.901   0.885  0.3602 -0.1627 -0.4736
  287MOL   F10634998   3.084   1.939   1.099  0.0808  0.5701  0.0401
  287MOL   C10734999   2.897   1.903   0.964  0.4161 -0.1223 -0.2837
  287MOL   H10835000   2.853   1.913   0.864  0.7292  2.3011 -0.2202
  287MOL   H10935001   2.828   1.947   1.036  0.7207  0.9370 -0.6317
  287MOL   C11035002   2.896   1.749   0.985 -0.0566 -0.4757  0.3325
  287MOL   F11135003   2.968   1.681   0.890  0.0795 -0.6454 -0.4727
  287MOL   F11235004   2.947   1.713   1.105  0.0427  0.4554 -0.1387
  287MOL   C11335005   2.756   1.676   0.978 -0.0333  0.1527  0.2480
  287MOL   H11435006   2.709   1.697   1.074  0.2279  1.1079  0.1777
  287MOL   H11535007   2.778   1.570   0.973  1.9188  0.5997 -1.0828
  287MOL   C11635008   2.659   1.712   0.869  0.0841  0.4695 -0.2354
  287MOL   F11735009   2.613   1.839   0.858 -0.3200  0.9002 -0.3165
  287MOL   F11835010   2.699   1.671   0.750 -0.0519 -0.1875  0.3008
  287MOL   C11935011   2.534   1.629   0.871 -0.2981 -0.1675 -0.3867
  287MOL   H12035012   2.478   1.650   0.780  1.9051 -2.1214 -2.2538
  287MOL   H12135013   2.472   1.660   0.955  1.7478 -0.4565  1.2805
  287MOL   H12235014   2.545   1.522   0.888  0.7411 -0.4440 -2.5942
  288MOL     C135015   8.243   6.336   2.109 -0.1059  0.2851 -0.8873
  288MOL     F235016   8.297   6.316   1.993  0.2859 -0.3362  0.2653
  288MOL     F335017   8.259   6.237   2.187 -0.3898  0.1799 -0.2131
  288MOL     C435018   8.090   6.361   2.089 -0.0399  0.7305 -0.2836
  288MOL     H535019   8.058   6.262   2.057  1.6430  0.4678 -1.2447
  288MOL     H635020   8.065   6.441   2.018  2.4634  3.7725  2.0944
  288MOL     H735021   8.288   6.422   2.159 -4.0006  0.8342  1.9626
  288MOL     C835022   8.001   6.386   2.216 -0.0023 -0.4769 -0.3181
  288MOL     F935023   8.022   6.295   2.313  0.2271  0.4590 -0.2570
  288MOL    F1035024   8.044   6.495   2.281 -0.0614  0.0015 -0.2064
  288MOL    C1135025   7.854   6.399   2.191  0.1420  0.2095 -0.0910
  288MOL    H1235026   7.853   6.486   2.125 -0.9624  0.9884  0.9277
  288MOL    H1335027   7.812   6.422   2.289  0.4027 -2.4191  0.6670
  288MOL    C1435028   7.778   6.278   2.135  0.1115 -0.5300 -0.6046
  288MOL    F1535029   7.823   6.266   2.006 -0.7499 -0.3244  0.0858
  288MOL    F1635030   7.815   6.167   2.201 -0.0102  0.0627  0.1653
  288MOL    C1735031   7.631   6.282   2.129 -0.0919 -0.1629 -0.0714
  288MOL    H1835032   7.582   6.249   2.221  1.3502 -1.2007  0.3261
  288MOL    H1935033   7.600   6.210   2.054 -2.0392  2.3771 -1.8164
  288MOL    C2035034   7.566   6.418   2.097 -0.2850 -0.0695  0.2444
  288MOL    F2135035   7.600   6.517   2.177 -0.2098  0.0264  0.1615
  288MOL    F2235036   7.602   6.444   1.978  0.6261 -0.0980 -0.2988
  288MOL    C2335037   7.416   6.408   2.097 -0.4748 -0.1787 -0.7018
  288MOL    H2435038   7.375   6.402   2.198  2.1660  0.1329  0.4316
  288MOL    H2535039   7.385   6.317   2.046 -1.9132 -0.7562  1.1350
  288MOL    C2635040   7.340   6.518   2.032 -0.1758 -0.7288 -0.9003
  288MOL    F2735041   7.356   6.517   1.902 -0.3535 -0.0351  0.2673
  288MOL    F2835042   7.213   6.494   2.060  0.0448 -0.2307 -0.3458
  288MOL    C2935043   7.361   6.657   2.092 -0.5685 -0.3432 -0.5252
  288MOL    H3035044   7.460   6.690   2.063 -0.5729  0.6594  0.5613
  288MOL    H3135045   7.358   6.660   2.201 -2.0288 -0.2054 -0.5559
  288MOL    C3235046   7.264   6.768   2.038 -0.1848  0.3412 -0.1202
  288MOL    F3335047   7.139   6.741   2.091 -0.2899  0.6245 -0.1723
  288MOL    F3435048   7.312   6.879   2.093  0.0239 -0.1480 -0.8508
  288MOL    C3535049   7.245   6.779   1.882  0.0710  0.2265  0.2511
  288MOL    H3635050   7.174   6.699   1.866 -0.6744  0.2346  3.1681
  288MOL    H3735051   7.335   6.746   1.829  0.8942  2.7797  0.0059
  288MOL    C3835052   7.207   6.909   1.810 -0.5935 -0.1009  0.3808
  288MOL    F3935053   7.268   7.016   1.853 -0.4079  0.5917  0.4553
  288MOL    F4035054   7.241   6.896   1.680 -0.1484  0.7518  0.1641
  288MOL    C4135055   7.053   6.944   1.828  0.6283  0.2321  0.3054
  288MOL    H4235056   7.035   6.957   1.935  0.8702 -1.6939  0.5962
  288MOL    H4335057   6.994   6.858   1.796  1.1423 -1.5032  3.8280
  288MOL    C4435058   7.003   7.068   1.746  0.1891  0.7245 -0.2194
  288MOL    F4535059   7.092   7.165   1.750  0.0494 -0.0291 -0.5043
  288MOL    F4635060   6.990   7.036   1.617  0.3734  0.1121 -0.6391
  288MOL    C4735061   6.865   7.125   1.791 -0.0392 -0.3122  0.0705
  288MOL    H4835062   6.789   7.053   1.763  0.0399  0.1179 -1.2933
  288MOL    H4935063   6.850   7.210   1.724  0.1410 -0.0703  0.3321
  288MOL    C5035064   6.840   7.181   1.933  0.0493 -0.3568  0.0271
  288MOL    F5135065   6.851   7.074   2.017 -0.4906  0.4330  0.3424
  288MOL    F5235066   6.938   7.258   1.963  0.5645  0.4959  0.6243
  288MOL    C5335067   6.702   7.246   1.937 -0.1654 -0.0089  0.0146
  288MOL    H5435068   6.625   7.185   1.891 -1.0631  1.2329 -0.1583
  288MOL    H5535069   6.691   7.339   1.881 -3.1629 -0.0004  0.5064
  288MOL    C5635070   6.662   7.287   2.082 -0.1228 -0.0798 -0.5728
  288MOL    F5735071   6.648   7.174   2.149 -0.0701  0.0057 -0.1209
  288MOL    F5835072   6.759   7.355   2.143  0.3411  0.1564 -0.0547
  288MOL    C5935073   6.527   7.361   2.094  0.2613 -0.2080  0.4457
  288MOL    H6035074   6.494   7.368   2.198  2.7176 -4.0818  1.5959
  288MOL    H6135075   6.451   7.296   2.050  0.3682  0.1004 -0.1865
  288MOL    C6235076   6.527   7.500   2.031  0.4300  0.4405  0.1705
  288MOL    F6335077   6.654   7.547   2.048  0.4192 -0.1670  0.1225
  288MOL    F6435078   6.518   7.480   1.897 -0.1249 -0.1494  0.2534
  288MOL    C6535079   6.420   7.597   2.079  0.0954 -0.3188  0.1658
  288MOL    H6635080   6.416   7.596   2.188 -4.6310 -1.3551  0.0856
  288MOL    H6735081   6.321   7.567   2.044  0.5526  0.1577 -1.6013
  288MOL    C6835082   6.441   7.731   2.013 -0.2584  0.2158 -0.6703
  288MOL    F6935083   6.560   7.778   2.046 -0.1454 -0.1656  0.1652
  288MOL    F7035084   6.436   7.711   1.884 -0.1038  0.4814  0.3644
  288MOL    C7135085   6.334   7.838   2.051  0.9236 -0.6860 -0.0614
  288MOL    H7235086   6.237   7.809   2.011  0.8622 -2.8714  1.5425
  288MOL    H7335087   6.367   7.931   2.005  1.0528 -1.2418 -1.1153
  288MOL    C7435088   6.319   7.864   2.201  0.7056  0.6254  0.5410
  288MOL    F7535089   6.261   7.754   2.257 -0.2331 -0.0619 -0.5986
  288MOL    F7635090   6.441   7.880   2.258 -0.2740 -1.1971 -0.3799
  288MOL    C7735091   6.227   7.987   2.226 -0.2817  0.1454 -0.1164
  288MOL    H7835092   6.128   7.973   2.181 -0.3583 -0.8433  0.3511
  288MOL    H7935093   6.263   8.080   2.183 -2.0874  0.9877  0.1388
  288MOL    C8035094   6.194   8.011   2.374  0.3728  0.2633  0.2834
  288MOL    F8135095   6.125   7.913   2.424  0.5656  0.5844  0.3055
  288MOL    F8235096   6.316   8.016   2.431  0.0517 -0.2442 -0.2169
  288MOL    C8335097   6.125   8.151   2.406 -0.6952  0.3031  0.2916
  288MOL    H8435098   6.201   8.218   2.364 -1.6479  0.3696 -1.3639
  288MOL    H8535099   6.132   8.182   2.510  0.1978  3.7722 -0.7261
  288MOL    C8635100   5.985   8.178   2.361 -0.3181  0.2299 -0.2715
  288MOL    F8735101   5.983   8.166   2.232  0.1348 -0.0907 -0.8410
  288MOL    F8835102   5.901   8.081   2.405  0.0004  0.2170 -0.3039
  288MOL    C8935103   5.932   8.317   2.397  0.1925 -0.0306 -0.1581
  288MOL    H9035104   5.914   8.326   2.504  2.2903 -0.2178  0.2387
  288MOL    H9135105   5.834   8.330   2.352 -0.9394  0.8019  2.4145
  288MOL    C9235106   6.029   0.086   2.358 -0.1476  0.1587 -0.6244
  288MOL    F9335107   6.137   0.085   2.438  0.3539 -0.0933 -0.0172
  288MOL    F9435108   6.084   0.058   2.237 -0.2987  0.4173  0.6590
  288MOL    C9535109   5.954   0.226   2.362 -0.2828  0.0719  0.3081
  288MOL    H9635110   5.903   0.235   2.458 -0.1603  0.2770  0.3564
  288MOL    H9735111   5.875   0.230   2.288  0.1257  2.6830 -0.0401
  288MOL    C9835112   6.047   0.347   2.362  0.8143 -0.3801  0.2420
  288MOL    F9935113   5.970   0.453   2.351 -0.1301 -0.0565 -0.3708
  288MOL   F10035114   6.109   0.350   2.482  0.1171 -0.5696  0.4058
  288MOL   C10135115   6.160   0.345   2.244 -0.0481 -0.2095 -0.2569
  288MOL   H10235116   6.129   0.290   2.154  0.8981 -2.1996  0.5927
  288MOL   H10335117   6.246   0.284   2.273  0.2742 -0.2151 -1.1977
  288MOL   C10435118   6.217   0.486   2.203  0.5100  0.1810 -0.3842
  288MOL   F10535119   6.306   0.470   2.114 -0.5347  0.2156  0.3876
  288MOL   F10635120   6.118   0.560   2.148 -0.2969  0.3206  0.5658
  288MOL   C10735121   6.270   0.567   2.321 -0.4502  0.3630  0.1366
  288MOL   H10835122   6.330   0.511   2.393 -2.6557  0.0233  1.7730
  288MOL   H10935123   6.194   0.598   2.393  0.1649  2.5060 -0.1049
  288MOL   C11035124   6.348   0.701   2.301 -0.3243  0.4661 -0.5438
  288MOL   F11135125   6.359   0.758   2.425  0.3555  0.0531 -0.1889
  288MOL   F11235126   6.472   0.667   2.262 -0.3140  0.4321  0.7348
  288MOL   C11335127   6.280   0.801   2.210  0.8077  0.3382  0.2564
  288MOL   H11435128   6.176   0.807   2.242  1.0068  0.0091  0.9883
  288MOL   H11535129   6.269   0.748   2.116  0.1387  0.6237  0.1700
  288MOL   C11635130   6.347   0.940   2.195  0.2147  0.2152  0.4703
  288MOL   F11735131   6.362   1.013   2.305  0.9290  0.1935  0.1018
  288MOL   F11835132   6.474   0.932   2.130  0.1742  0.7494  0.0073
  288MOL   C11935133   6.248   1.021   2.104 -0.4900  0.7917 -0.2715
  288MOL   H12035134   6.270   1.128   2.106  1.0789  0.4849  0.3381
  288MOL   H12135135   6.146   0.996   2.134 -0.1548  2.0452  2.0756
  288MOL   H12235136   6.264   0.987   2.002  0.2573 -2.3798  0.8415
  289MOL     C135137   5.792   2.179   6.732  0.0204 -0.6578  0.2384
  289MOL     F235138   5.921   2.155   6.735  0.0364 -0.0969 -0.0565
  289MOL     F335139   5.742   2.185   6.606 -0.5824  0.2212  0.3337
  289MOL     C435140   5.759   2.309   6.814  0.0946 -0.3088  0.4065
  289MOL     H535141   5.806   2.397   6.770 -1.2280  0.0206 -0.3479
  289MOL     H635142   5.789   2.295   6.918 -4.0302 -0.4353  1.6524
  289MOL     H735143   5.749   2.098   6.791 -0.3948 -0.9630 -0.4903
  289MOL     C835144   5.610   2.345   6.821 -0.8663  0.5867  0.2514
  289MOL     F935145   5.561   2.224   6.851  0.5312 -0.1317  0.1168
  289MOL    F1035146   5.596   2.423   6.924  0.0731  0.1590  0.2695
  289MOL    C1135147   5.548   2.403   6.691 -0.8743  0.5675  0.7204
  289MOL    H1235148   5.570   2.339   6.605  0.1625  0.8124  0.7956
  289MOL    H1335149   5.603   2.493   6.665 -2.4595  0.8993 -1.6065
  289MOL    C1435150   5.397   2.448   6.687 -0.2946 -1.2253 -0.5773
  289MOL    F1535151   5.329   2.336   6.714  0.1247  0.0217  0.0004
  289MOL    F1635152   5.363   2.541   6.773 -0.5823  0.6228 -0.4179
  289MOL    C1735153   5.364   2.504   6.548  0.1127 -0.4699  0.4289
  289MOL    H1835154   5.393   2.434   6.469 -1.0890 -0.2594 -0.2224
  289MOL    H1935155   5.422   2.594   6.529  1.3831 -1.8536 -2.4909
  289MOL    C2035156   5.219   2.537   6.510  0.2105  0.0720  0.1570
  289MOL    F2135157   5.182   2.641   6.581  0.7836  0.1168 -0.0748
  289MOL    F2235158   5.235   2.585   6.383 -0.4479  0.2821  0.4416
  289MOL    C2335159   5.122   2.410   6.517 -0.2754  0.2902 -0.3407
  289MOL    H2435160   5.121   2.366   6.617 -1.1960  0.0089 -0.4761
  289MOL    H2535161   5.161   2.335   6.449 -2.8761 -0.9913 -0.4764
  289MOL    C2635162   4.983   2.451   6.479  0.4178 -0.1369  0.0903
  289MOL    F2735163   4.945   2.552   6.562 -0.1924 -0.0891  0.2927
  289MOL    F2835164   4.981   2.492   6.352 -0.0988  0.0954  0.0161
  289MOL    C2935165   4.889   2.327   6.501  0.2545  1.0190  0.0979
  289MOL    H3035166   4.873   2.297   6.605  1.8592  2.3452  0.7590
  289MOL    H3135167   4.933   2.245   6.444 -0.7730 -0.1662  0.9814
  289MOL    C3235168   4.751   2.333   6.426  0.0371 -0.7637  0.1339
  289MOL    F3335169   4.771   2.350   6.292 -0.0535 -0.2674 -0.3964
  289MOL    F3435170   4.693   2.213   6.443  0.4591 -0.2471 -0.2996
  289MOL    C3535171   4.661   2.445   6.482 -0.1341  0.1071 -0.6129
  289MOL    H3635172   4.707   2.542   6.466  0.7781  0.0038  1.3386
  289MOL    H3735173   4.659   2.436   6.590 -0.5157  2.5311 -0.3904
  289MOL    C3835174   4.516   2.454   6.414 -0.7152 -0.4644 -0.2282
  289MOL    F3935175   4.457   2.561   6.467 -0.3323 -0.1249  0.0352
  289MOL    F4035176   4.529   2.468   6.288  0.5369  0.1402  0.0747
  289MOL    C4135177   4.429   2.335   6.446  0.1440 -0.4179  0.4305
  289MOL    H4235178   4.435   2.311   6.552  1.7173  1.4430  0.7965
  289MOL    H4335179   4.469   2.247   6.397  0.7109  1.1119 -1.9128
  289MOL    C4435180   4.283   2.340   6.403 -0.1252 -0.3616  0.1635
  289MOL    F4535181   4.279   2.349   6.270  0.2639 -0.0642 -0.1049
  289MOL    F4635182   4.232   2.225   6.432  0.4089  0.2973 -0.4620
  289MOL    C4735183   4.197   2.463   6.451  0.4279 -0.1044  0.0741
  289MOL    H4835184   4.099   2.449   6.404  0.8730  0.5933 -1.0936
  289MOL    H4935185   4.233   2.558   6.411 -0.8244 -0.5272 -2.1810
  289MOL    C5035186   4.164   2.473   6.606  0.4386  0.0612 -0.0964
  289MOL    F5135187   4.124   2.347   6.633  0.1838  0.9628 -0.4957
  289MOL    F5235188   4.269   2.509   6.678  0.2174 -0.1883 -0.2884
  289MOL    C5335189   4.042   2.559   6.638  0.2462  0.2199 -0.2959
  289MOL    H5435190   3.964   2.528   6.569  0.2468  0.4702 -0.4101
  289MOL    H5535191   4.056   2.664   6.614 -0.5212  0.0168 -1.6636
  289MOL    C5635192   3.997   2.554   6.781  0.4647 -0.1413 -0.8184
  289MOL    F5735193   3.958   2.431   6.817  0.1134 -0.1614  0.0999
  289MOL    F5835194   4.095   2.581   6.869 -0.0320  0.0872 -0.3070
  289MOL    C5935195   3.873   2.652   6.802 -0.1732  0.3645  0.1264
  289MOL    H6035196   3.805   2.630   6.720  1.0745  0.4444 -0.9434
  289MOL    H6135197   3.908   2.754   6.785  1.9289 -0.5522 -1.1757
  289MOL    C6235198   3.803   2.654   6.938 -0.4444  0.1703  0.1964
  289MOL    F6335199   3.895   2.690   7.037  0.2759 -0.2805 -0.1853
  289MOL    F6435200   3.721   2.769   6.922 -0.5122  0.4464  0.2003
  289MOL    C6535201   3.719   2.524   6.979 -0.1919 -0.5830 -0.2921
  289MOL    H6635202   3.792   2.446   7.000  0.8019  0.5099  0.4015
  289MOL    H6735203   3.665   2.501   6.887 -1.4841 -0.9456  0.5444
  289MOL    C6835204   3.631   2.529   7.106 -0.8264 -0.5562 -0.4388
  289MOL    F6935205   3.701   2.562   7.214 -0.3760  0.1343 -0.0397
  289MOL    F7035206   3.550   2.635   7.098  0.8090  0.4965  0.0876
  289MOL    C7135207   3.554   2.397   7.129 -0.2526  0.2619  0.2539
  289MOL    H7235208   3.610   2.305   7.141  0.8563  0.9003  0.0154
  289MOL    H7335209   3.489   2.379   7.043  1.9573 -1.6035 -1.0596
  289MOL    C7435210   3.463   2.398   7.250 -0.7461  0.8324 -0.3284
  289MOL    F7535211   3.548   2.379   7.353 -0.0724  0.3348 -0.2837
  289MOL    F7635212   3.394   2.506   7.268  0.2433 -0.0393 -0.1208
  289MOL    C7735213   3.360   2.285   7.261  0.0864  0.2178 -0.1406
  289MOL    H7835214   3.410   2.190   7.239  1.1042  0.3439  1.4921
  289MOL    H7935215   3.296   2.302   7.175 -0.6493 -0.0457  0.3487
  289MOL    C8035216   3.266   2.268   7.385 -0.5297  0.1777  0.1327
  289MOL    F8135217   3.202   2.384   7.409 -0.3616  0.2037  0.2355
  289MOL    F8235218   3.171   2.179   7.356  0.1347 -0.5331 -0.0134
  289MOL    C8335219   3.334   2.218   7.511  0.4862 -0.1981  0.3117
  289MOL    H8435220   3.434   2.261   7.510  1.4914 -2.4250  0.3207
  289MOL    H8535221   3.350   2.110   7.501 -1.8240 -0.6063  0.8926
  289MOL    C8635222   3.263   2.254   7.638  0.1112 -0.4431 -0.4500
  289MOL    F8735223   3.275   2.387   7.668 -0.7340  0.3211 -0.6637
  289MOL    F8835224   3.128   2.220   7.632 -0.0952 -0.1594 -0.8574
  289MOL    C8935225   3.317   2.170   7.762 -0.1233  0.1425 -0.0447
  289MOL    H9035226   3.320   2.063   7.742  0.8588 -0.0979  1.3078
  289MOL    H9135227   3.250   2.188   7.845 -1.3036  1.1258 -1.1903
  289MOL    C9235228   3.457   2.202   7.816  0.4344  0.4713 -0.4973
  289MOL    F9335229   3.561   2.158   7.733  0.1594 -0.0824 -0.1297
  289MOL    F9435230   3.465   2.335   7.836 -0.1965  0.8138 -0.0301
  289MOL    C9535231   3.496   2.133   7.954  0.4387 -0.1840  1.0086
  289MOL    H9635232   3.427   2.169   8.031 -1.1900  1.5245 -1.1680
  289MOL    H9735233   3.593   2.179   7.974  0.9922 -1.3274  0.9790
  289MOL    C9835234   3.501   1.980   7.973 -0.2044  0.0945  0.6171
  289MOL    F9935235   3.379   1.941   7.934 -0.0180 -0.0109  0.0290
  289MOL   F10035236   3.586   1.926   7.885 -0.3560  0.2887 -0.1554
  289MOL   C10135237   3.517   1.924   8.115  0.8585  0.8415  0.2755
  289MOL   H10235238   3.516   1.815   8.116  1.6549  0.8260  2.3684
  289MOL   H10335239   3.432   1.958   8.175 -0.0337 -0.2493 -0.3362
  289MOL   C10435240   3.641   1.980   8.182  0.0878 -0.5585  0.4003
  289MOL   F10535241   3.741   1.977   8.096 -0.2965  0.5342  0.5411
  289MOL   F10635242   3.605   2.106   8.206 -0.7338 -0.4191 -0.3813
  289MOL   C10735243   3.695   1.911   8.310 -0.3807  0.6912 -0.3699
  289MOL   H10835244   3.605   1.891   0.018  0.5991  0.6695  1.1820
  289MOL   H10935245   3.759   1.981   0.013 -1.6477  0.9330  0.8651
  289MOL   C11035246   3.777   1.777   8.286  0.3347  0.8374 -0.1707
  289MOL   F11135247   3.704   1.693   8.209 -0.0827  0.1192 -0.0909
  289MOL   F11235248   3.892   1.798   8.220 -0.3381 -0.0442 -0.3159
  289MOL   C11335249   3.811   1.702   0.061  0.8795  0.7157  0.6220
  289MOL   H11435250   3.880   1.760   0.122  0.1793  0.2930  1.8318
  289MOL   H11535251   3.864   1.614   0.022 -0.1956  0.0387  0.6647
  289MOL   C11635252   3.693   1.651   0.144  0.1603  0.6872  0.2088
  289MOL   F11735253   3.765   1.578   0.228  0.2502  0.1653  0.2703
  289MOL   F11835254   3.619   1.739   0.215  0.0293  0.3791  0.1998
  289MOL   C11935255   3.602   1.543   0.079  0.4000 -0.5668 -0.4381
  289MOL   H12035256   3.525   1.590   0.018  1.0211  0.9518 -0.0857
  289MOL   H12135257   3.547   1.493   0.159  1.9685  0.2024  1.1367
  289MOL   H12235258   3.662   1.483   0.010 -0.6380 -2.2677  0.0916
  290MOL     C135259   0.708   5.984   2.448  0.1069  0.1283 -0.0867
  290MOL     F235260   0.681   6.023   2.322  0.4797 -0.3601 -0.8119
  290MOL     F335261   0.753   5.867   2.435  0.1461  0.4021  0.1400
  290MOL     C435262   0.576   5.983   2.533 -0.5291  0.6216 -1.0450
  290MOL     H535263   0.505   5.909   2.496  0.2544 -1.3582  1.3685
  290MOL     H635264   0.519   6.074   2.510 -2.2925 -0.9584 -3.1381
  290MOL     H735265   0.783   6.056   2.482 -0.6070 -0.0824  2.0290
  290MOL     C835266   0.584   5.959   2.690  0.0557 -0.1269 -0.2691
  290MOL     F935267   0.643   5.842   2.718 -0.0674 -0.5608 -0.6498
  290MOL    F1035268   0.665   6.059   2.731 -0.2881 -0.4854  0.0096
  290MOL    C1135269   0.435   5.964   2.744  0.3162  0.0659  0.1962
  290MOL    H1235270   0.368   5.920   2.671 -1.3661  0.8901  1.2250
  290MOL    H1335271   0.396   6.066   2.743 -1.2208 -0.5268 -1.0805
  290MOL    C1435272   0.419   5.908   2.884 -0.1092 -0.0224  0.0620
  290MOL    F1535273   0.289   5.903   2.925  0.4568 -0.2573 -0.2084
  290MOL    F1635274   0.446   5.782   2.883  0.2331  0.3082 -0.1859
  290MOL    C1735275   0.506   5.984   2.996  0.7110  0.3863 -0.6166
  290MOL    H1835276   0.610   5.980   2.965  1.5420 -0.6742  2.1347
  290MOL    H1935277   0.502   5.922   3.085 -1.5844  0.5503 -0.5841
  290MOL    C2035278   0.458   6.133   3.035  0.3852 -0.0349 -0.1854
  290MOL    F2135279   0.450   6.206   2.922 -0.4495 -0.8393 -0.4544
  290MOL    F2235280   0.339   6.115   3.085 -0.0991 -0.2122  0.1077
  290MOL    C2335281   0.549   6.207   3.138  0.0273  0.1522  0.2953
  290MOL    H2435282   0.549   6.138   3.222 -2.6453  0.2113  0.3877
  290MOL    H2535283   0.501   6.297   3.176  0.2763  1.6837 -2.8588
  290MOL    C2635284   0.689   6.246   3.093 -0.5365 -0.5972  0.1775
  290MOL    F2735285   0.748   6.314   3.190  0.4922  0.1334  0.3585
  290MOL    F2835286   0.757   6.132   3.083  0.0027 -0.2634  0.3047
  290MOL    C2935287   0.691   6.329   2.955  0.2561 -0.6150 -0.0060
  290MOL    H3035288   0.642   6.425   2.971  1.0187  0.0564 -1.6593
  290MOL    H3135289   0.650   6.268   2.875 -0.4941 -1.0429  0.6943
  290MOL    C3235290   0.830   6.380   2.912 -0.0259 -0.3418 -0.0658
  290MOL    F3335291   0.815   6.439   2.785 -0.0470  0.0788  0.4424
  290MOL    F3435292   0.861   6.480   2.996  0.4287 -0.0444  0.1546
  290MOL    C3535293   0.934   6.266   2.914  0.2027  0.4480 -0.0676
  290MOL    H3635294   0.898   6.181   2.857 -0.5338 -0.4688  1.7094
  290MOL    H3735295   0.946   6.233   3.018 -1.1549  0.1158 -0.0134
  290MOL    C3835296   1.075   6.306   2.866  0.4566 -0.4358  0.1152
  290MOL    F3935297   1.061   6.311   2.730 -0.3367  0.0824  0.2427
  290MOL    F4035298   1.114   6.425   2.915  0.5722  0.0569 -0.1268
  290MOL    C4135299   1.188   6.205   2.891  0.9892 -0.5249  0.5434
  290MOL    H4235300   1.213   6.202   2.997  0.5966  1.6919  0.7230
  290MOL    H4335301   1.279   6.253   2.853  1.2526  1.4098  3.4019
  290MOL    C4435302   1.156   6.062   2.829 -0.1870  0.0819 -0.7781
  290MOL    F4535303   1.063   5.998   2.905 -0.0162 -0.1987  0.0017
  290MOL    F4635304   1.118   6.080   2.697 -0.1411 -0.0519 -0.0373
  290MOL    C4735305   1.296   5.986   2.823  0.2271 -0.1482  0.5078
  290MOL    H4835306   1.338   5.973   2.922  0.2733  1.3518  0.6902
  290MOL    H4935307   1.376   6.040   2.772 -1.3172  0.9258 -0.8463
  290MOL    C5035308   1.296   5.844   2.758  0.4114  0.9895  0.4173
  290MOL    F5135309   1.235   5.845   2.633  0.0580 -0.2875  0.0654
  290MOL    F5235310   1.419   5.802   2.733 -0.3620 -0.3276  0.2758
  290MOL    C5335311   1.222   5.731   2.836 -0.1925 -0.3603 -0.3766
  290MOL    H5435312   1.244   5.644   2.775  3.8551 -1.7391  2.8460
  290MOL    H5535313   1.114   5.747   2.841 -0.0077  0.7848  0.2452
  290MOL    C5635314   1.269   5.709   2.976  0.1808 -0.6317  0.8015
  290MOL    F5735315   1.397   5.708   2.985  0.5331 -0.1601 -0.2374
  290MOL    F5835316   1.231   5.812   3.044 -0.5140  0.4866 -0.7298
  290MOL    C5935317   1.220   5.583   3.047  0.8927  0.3850  0.1460
  290MOL    H6035318   1.281   5.568   3.136  2.0426  0.9332 -0.5405
  290MOL    H6135319   1.250   5.494   2.991 -1.7330  0.0907 -0.8444
  290MOL    C6235320   1.076   5.572   3.093 -0.4950 -0.1982  0.1264
  290MOL    F6335321   1.068   5.663   3.189  0.0121  0.1398  0.8488
  290MOL    F6435322   0.988   5.604   2.989 -0.2269  0.4860 -0.1034
  290MOL    C6535323   1.044   5.431   3.148  0.3746 -0.2900 -1.2639
  290MOL    H6635324   1.120   5.414   3.225 -0.4193 -1.1493 -0.6570
  290MOL    H6735325   1.067   5.375   3.058  0.0842  0.4840 -1.8200
  290MOL    C6835326   0.900   5.406   3.201 -0.1685  0.3395  0.3590
  290MOL    F6935327   0.873   5.501   3.291  0.6272  0.2550 -0.5173
  290MOL    F7035328   0.815   5.410   3.107 -0.2336 -0.4037  0.2233
  290MOL    C7135329   0.896   5.267   3.266  0.2353 -0.1590 -1.2510
  290MOL    H7235330   0.973   5.273   3.343  0.4130 -0.5235 -1.3968
  290MOL    H7335331   0.921   5.182   3.202 -1.4148 -1.4001 -0.2689
  290MOL    C7435332   0.765   5.236   3.342  0.0456 -0.4932  0.4748
  290MOL    F7535333   0.749   5.331   3.434  0.1261  0.1207 -0.0990
  290MOL    F7635334   0.668   5.258   3.257 -0.1631  0.1206  0.2195
  290MOL    C7735335   0.759   5.093   3.405  0.0751 -0.0845 -0.1444
  290MOL    H7835336   0.839   5.085   3.479 -0.2301  0.7835  0.2830
  290MOL    H7935337   0.777   5.034   3.315  0.1579 -0.5297  0.1595
  290MOL    C8035338   0.631   5.056   3.486  0.3152 -0.1338  0.5647
  290MOL    F8135339   0.659   4.928   3.512  0.2910  0.2741 -0.1540
  290MOL    F8235340   0.634   5.132   3.597 -0.0263  0.4127  0.1847
  290MOL    C8335341   0.499   5.044   3.410 -0.9238 -0.3788  0.0581
  290MOL    H8435342   0.525   4.981   3.325  3.5756  1.9041 -0.4292
  290MOL    H8535343   0.478   5.144   3.371  1.3206 -0.2917 -1.0370
  290MOL    C8635344   0.383   4.981   3.480 -0.0459  0.5429  0.5827
  290MOL    F8735345   0.420   4.851   3.501 -0.7350 -0.3366 -0.6732
  290MOL    F8835346   0.369   5.047   3.595  0.4835  0.1057  0.0230
  290MOL    C8935347   0.249   4.992   3.409  0.3446  0.3284 -0.5359
  290MOL    H9035348   0.205   5.088   3.437  0.0377  0.4761 -1.5061
  290MOL    H9135349   0.183   4.919   3.457  0.7989  1.0913  1.2903
  290MOL    C9235350   0.249   4.972   3.258 -0.0240  1.1345  0.2133
  290MOL    F9335351   0.336   5.049   3.199 -0.0678 -0.0350 -0.2060
  290MOL    F9435352   0.290   4.842   3.243 -0.5982  0.3364  0.2421
  290MOL    C9535353   0.112   4.977   3.193  0.9005 -0.3154  0.2465
  290MOL    H9635354   0.056   4.893   3.235  1.2898  0.4224  2.3120
  290MOL    H9735355   0.139   4.956   3.090 -0.1255  1.0242 -0.3088
  290MOL    C9835356   0.042   5.112   3.193 -0.3469 -0.2493 -0.0328
  290MOL    F9935357   8.312   5.127   3.307 -0.4078 -0.7337  0.0972
  290MOL   F10035358   0.130   5.213   3.190 -0.2423 -0.1873  0.0567
  290MOL   C10135359   8.294   5.121   3.076 -0.3659  0.2301  0.2991
  290MOL   H10235360   8.217   5.043   3.078  1.8774 -2.1476 -2.0501
  290MOL   H10335361   8.344   5.090   2.984  0.6719  0.9446  0.6167
  290MOL   C10435362   8.221   5.250   3.063 -0.0550  0.5360  0.1404
  290MOL   F10535363   8.137   5.239   2.955  0.9436  0.2837 -0.1660
  290MOL   F10635364   8.141   5.258   3.174  0.1388 -0.1189  0.2141
  290MOL   C10735365   8.297   5.376   3.060  0.1354 -0.5218 -0.9421
  290MOL   H10835366   0.002   5.380   2.965  0.0416  2.2393 -0.9006
  290MOL   H10935367   0.030   5.386   3.130 -1.6363 -1.1643  1.3070
  290MOL   C11035368   8.206   5.501   3.072 -0.2359  0.3747  0.9683
  290MOL   F11135369   8.082   5.485   3.017  0.3486  0.4980  0.5362
  290MOL   F11235370   8.184   5.510   3.201 -0.6966  0.2697  0.0091
  290MOL   C11335371   8.272   5.630   3.021 -0.0295 -0.7404  0.0746
  290MOL   H11435372   0.020   5.647   3.067  0.9403 -1.5692 -1.6093
  290MOL   H11535373   8.212   5.716   3.048  1.1141  0.4182 -1.0097
  290MOL   C11635374   8.301   5.637   2.873  0.6403  0.3288  0.3253
  290MOL   F11735375   0.054   5.568   2.828 -0.3755  0.1186 -0.0234
  290MOL   F11835376   8.191   5.598   2.809  0.3244 -0.1796 -0.7555
  290MOL   C11935377   8.329   5.779   2.829 -0.0958  0.4722 -0.2256
  290MOL   H12035378   8.251   5.854   2.843 -1.3846 -0.9292  0.2476
  290MOL   H12135379   0.017   5.788   2.728  0.0594  2.1034 -0.0330
  290MOL   H12235380   0.060   5.830   2.883 -1.5928  3.6726 -0.9063
  291MOL     C135381   8.263   0.028   6.964  0.0850  0.3432 -0.1139
  291MOL     F235382   8.226   0.009   7.093  0.2461 -0.2921 -0.0002
  291MOL     F335383   0.051   0.011   6.951 -0.1154  0.1239 -0.5554
  291MOL     C435384   8.228   0.177   6.936  0.0344 -0.4215 -0.3939
  291MOL     H535385   8.281   0.211   6.846 -0.8793  0.9786 -0.4115
  291MOL     H635386   8.263   0.233   7.023 -0.0540 -1.3182  0.2194
  291MOL     H735387   8.217   8.305   6.898  1.3539 -0.5203 -0.0549
  291MOL     C835388   8.077   0.198   6.932  0.4951 -0.1239 -0.2608
  291MOL     F935389   8.031   0.196   7.056 -0.4043  0.1799 -0.5411
  291MOL    F1035390   8.066   0.325   6.892 -0.2522  0.1865  0.2217
  291MOL    C1135391   7.982   0.119   6.841  0.4591 -0.0415  0.1770
  291MOL    H1235392   7.887   0.172   6.845 -0.3673 -1.1863 -2.8869
  291MOL    H1335393   7.958   0.017   6.873 -3.6314  0.2079 -1.7886
  291MOL    C1435394   8.028   0.105   6.691  0.8616  0.0383 -0.2232
  291MOL    F1535395   8.046   0.217   6.627 -0.0008  0.6837 -0.0771
  291MOL    F1635396   8.140   0.031   6.685 -0.4099  0.0824 -0.7316
  291MOL    C1735397   7.907   0.048   6.617  0.6523 -0.2688 -0.5148
  291MOL    H1835398   7.813   0.098   6.636  0.1521  0.2138 -3.8969
  291MOL    H1935399   7.891   8.296   6.653  1.5195 -0.9278 -1.9583
  291MOL    C2035400   7.930   0.034   6.461  0.5040 -1.0365 -1.1932
  291MOL    F2135401   7.931   0.156   6.409 -0.1463  0.2404 -0.4719
  291MOL    F2235402   8.045   8.325   6.439 -0.4665 -0.1186 -0.3156
  291MOL    C2335403   7.825   8.283   6.395  0.5096 -0.5899  0.1097
  291MOL    H2435404   7.725   8.302   6.433  0.7881 -0.9301  1.0486
  291MOL    H2535405   7.849   8.185   6.435 -0.2372 -0.6969  0.2902
  291MOL    C2635406   7.825   8.277   6.241  0.1909 -0.4226  0.5102
  291MOL    F2735407   7.799   0.046   6.198  0.5771  0.2121  0.1227
  291MOL    F2835408   7.949   8.257   6.195  0.6731  0.0571 -0.2768
  291MOL    C2935409   7.730   8.176   6.174 -0.2506 -0.2386  0.5579
  291MOL    H3035410   7.775   8.077   6.164  0.8703  0.2531  0.6022
  291MOL    H3135411   7.735   8.216   6.073 -2.0378 -0.7180  0.2732
  291MOL    C3235412   7.588   8.156   6.222  0.1478  0.4413 -1.2520
  291MOL    F3335413   7.527   8.082   6.132 -0.3065 -0.4008 -0.0075
  291MOL    F3435414   7.597   8.085   6.336  0.3165  0.0783  0.0084
  291MOL    C3535415   7.498   8.280   6.254 -0.1826 -0.1190 -0.3110
  291MOL    H3635416   7.553   8.345   6.323 -0.8336 -0.5351  0.6139
  291MOL    H3735417   7.410   8.242   6.306  0.6115 -0.7818  0.5758
  291MOL    C3835418   7.458   0.030   6.133  0.1389 -0.0383 -0.8070
  291MOL    F3935419   7.570   0.064   6.074 -0.4012  0.0149  0.3123
  291MOL    F4035420   7.388   8.320   6.034  0.4922 -0.0276  0.3439
  291MOL    C4135421   7.386   0.158   6.175 -0.2368 -0.2845  0.2154
  291MOL    H4235422   7.427   0.195   6.269  0.9314 -2.4057  0.5604
  291MOL    H4335423   7.295   0.123   6.222 -0.0353 -0.6308  0.3461
  291MOL    C4435424   7.355   0.263   6.064 -0.1497 -0.7611  0.6892
  291MOL    F4535425   7.311   0.214   5.944  0.1432  0.2255 -0.6565
  291MOL    F4635426   7.266   0.347   6.107 -0.0331 -0.3996 -0.2330
  291MOL    C4735427   7.473   0.349   6.023  0.3082  0.8447 -0.8125
  291MOL    H4835428   7.448   0.420   5.944  1.3941  0.4077 -1.5639
  291MOL    H4935429   7.539   0.276   5.976  0.6199  0.2740  0.4913
  291MOL    C5035430   7.538   0.422   6.140 -0.3126 -0.6940  0.2066
  291MOL    F5135431   7.447   0.492   6.211 -1.0116 -0.1195 -0.0066
  291MOL    F5235432   7.592   0.336   6.219  0.0112 -0.6281 -0.4408
  291MOL    C5335433   7.651   0.517   6.100  0.0194  0.1528  0.6739
  291MOL    H5435434   7.704   0.536   6.193 -0.1788 -2.3849  1.3364
  291MOL    H5535435   7.614   0.612   6.062 -2.6940 -0.5945  1.3397
  291MOL    C5635436   7.764   0.461   6.006  0.3654 -0.1808 -0.0771
  291MOL    F5735437   7.710   0.416   5.897  0.3948 -0.5450 -0.1029
  291MOL    F5835438   7.840   0.571   5.971  0.4273 -0.0782 -0.0512
  291MOL    C5935439   7.865   0.364   6.075 -0.0483  0.0896 -0.2513
  291MOL    H6035440   7.811   0.291   6.135 -1.4403  1.7801  0.6156
  291MOL    H6135441   7.911   0.427   6.151  0.5433  0.6651 -1.0798
  291MOL    C6235442   7.974   0.298   5.981  0.1585  0.1585 -0.0909
  291MOL    F6335443   7.918   0.232   5.882 -0.1579  0.1975  0.2304
  291MOL    F6435444   8.047   0.397   5.923 -0.6990 -0.2450 -0.2072
  291MOL    C6535445   8.071   0.206   6.050 -0.2472  0.2298  0.6509
  291MOL    H6635446   8.127   0.147   5.978 -0.4515 -0.5445  1.1118
  291MOL    H6735447   8.000   0.137   6.096  2.4515 -1.7454  1.9600
  291MOL    C6835448   8.170   0.280   6.136 -0.0584  0.7570 -0.4288
  291MOL    F6935449   8.254   0.348   6.069  0.0146 -0.1689  0.0094
  291MOL    F7035450   8.110   0.363   6.215 -0.2046  0.0563 -0.5865
  291MOL    C7135451   8.246   0.178   6.217  0.4571  0.0302 -0.2687
  291MOL    H7235452   8.297   0.109   6.149  2.9932  1.3371  0.2332
  291MOL    H7335453   8.173   0.114   6.267 -0.0198  1.5893  1.1073
  291MOL    C7435454   8.345   0.230   6.323 -0.7303 -0.5239  0.3869
  291MOL    F7535455   8.273   0.293   6.416 -0.0115  0.0957 -0.2817
  291MOL    F7635456   0.050   0.112   6.364  0.3628 -0.1965  0.0200
  291MOL    C7735457   0.105   0.313   6.262  0.4102 -0.4839 -0.0883
  291MOL    H7835458   0.071   0.417   6.259  1.2453 -0.2070 -0.1424
  291MOL    H7935459   0.126   0.271   6.164 -0.7381  2.4919 -1.6935
  291MOL    C8035460   0.244   0.309   6.331 -0.2054 -0.0941 -0.0588
  291MOL    F8135461   0.295   0.182   6.327  0.1357 -0.5642 -0.7988
  291MOL    F8235462   0.335   0.390   6.260  0.3989 -0.0969  0.2611
  291MOL    C8335463   0.234   0.354   6.478  0.2506 -0.2980  0.1962
  291MOL    H8435464   0.176   0.279   6.531 -0.2930  0.3454  0.5175
  291MOL    H8535465   0.178   0.447   6.486 -0.0724 -0.5486  0.8614
  291MOL    C8635466   0.370   0.367   6.554  0.0974 -0.4520 -0.4367
  291MOL    F8735467   0.441   0.465   6.502 -0.0288 -0.0461 -0.1504
  291MOL    F8835468   0.346   0.401   6.682 -0.2349 -0.5622  0.1885
  291MOL    C8935469   0.468   0.252   6.550  0.2168 -0.5955  0.4888
  291MOL    H9035470   0.562   0.275   6.601  0.4925  0.0315 -0.2958
  291MOL    H9135471   0.493   0.236   6.445  0.1816  0.3461  0.3361
  291MOL    C9235472   0.431   0.123   6.628  0.2222  0.3366 -0.4433
  291MOL    F9335473   0.373   0.143   6.749 -0.1442 -0.0375 -0.2129
  291MOL    F9435474   0.344   0.051   6.556 -0.3738 -0.0871  0.6391
  291MOL    C9535475   0.550   0.033   6.660 -0.8056 -0.8554  0.4866
  291MOL    H9635476   0.512   8.283   6.682  1.5193 -1.9643 -0.3331
  291MOL    H9735477   0.605   0.055   6.751 -1.3131  1.8895  0.1638
  291MOL    C9835478   0.665   0.010   6.554 -0.2744  0.0936  1.2962
  291MOL    F9935479   0.602   8.327   6.443 -0.3520 -0.2282 -0.2444
  291MOL   F10035480   0.738   0.125   6.537 -0.1730  0.3756  0.3561
  291MOL   C10135481   0.751   8.238   6.590  0.2245 -0.1936  0.5794
  291MOL   H10235482   0.695   8.145   6.584 -0.1850  0.0239  1.0353
  291MOL   H10335483   0.784   8.239   6.694 -0.7807  0.7245  0.8976
  291MOL   C10435484   0.878   8.222   6.501  0.2363  0.4153  0.5120
  291MOL   F10535485   0.911   8.100   6.497 -0.1178  0.4016 -0.4043
  291MOL   F10635486   0.852   8.265   6.374  0.1731 -0.0703 -0.4979
  291MOL   C10735487   1.010   8.303   6.534  0.0301 -0.3786  0.2360
  291MOL   H10835488   1.046   8.268   6.631  2.8197 -0.5650 -0.8033
  291MOL   H10935489   0.985   0.058   6.550  3.0016  0.4967 -0.4791
  291MOL   C11035490   1.133   8.287   6.437  0.0749  0.3541  0.4937
  291MOL   F11135491   1.169   8.158   6.424 -0.1318 -0.2371  0.3982
  291MOL   F11235492   1.102   8.336   6.314  0.1566 -0.0308  0.0486
  291MOL   C11335493   1.264   0.004   6.482 -0.6255  0.0514  0.5376
  291MOL   H11435494   1.330   0.003   6.394 -2.0008  0.8693 -0.5204
  291MOL   H11535495   1.314   8.298   6.561  0.0386  1.1918  0.9214
  291MOL   C11635496   1.272   0.151   6.524 -0.7177  0.6120  0.1531
  291MOL   F11735497   1.174   0.173   6.617  0.9505 -0.2989  0.0969
  291MOL   F11835498   1.389   0.171   6.592  0.0641  0.1000  0.5536
  291MOL   C11935499   1.261   0.256   6.414 -0.0493 -0.3214  0.4541
  291MOL   H12035500   1.248   0.356   6.456 -1.7954 -0.5290  0.4647
  291MOL   H12135501   1.177   0.244   6.346 -0.6404  0.7782  0.9693
  291MOL   H12235502   1.356   0.261   6.362  0.7147  0.1284  1.8693
  292MOL     C135503   6.572   3.600   1.227 -0.0096 -0.0193 -0.4753
  292MOL     F235504   6.656   3.700   1.249  0.2620  0.4534  0.0718
  292MOL     F335505   6.586   3.559   1.106 -0.5080 -0.0227 -0.3086
  292MOL     C435506   6.426   3.616   1.265 -0.1859 -0.0664  0.3427
  292MOL     H535507   6.425   3.639   1.371  0.8730 -0.4491  0.4434
  292MOL     H635508   6.368   3.524   1.250 -2.0132  1.1313 -0.0500
  292MOL     H735509   6.618   3.517   1.281 -0.3362  0.0902 -0.0245
  292MOL     C835510   6.347   3.725   1.184 -1.0918 -0.7051  0.0648
  292MOL     F935511   6.401   3.841   1.215  0.0140  0.1667 -0.4294
  292MOL    F1035512   6.352   3.716   1.052  0.2132  0.3127  0.0259
  292MOL    C1135513   6.203   3.743   1.234 -0.1503  0.1642 -0.4023
  292MOL    H1235514   6.218   3.769   1.339 -2.7933  0.6454 -0.0843
  292MOL    H1335515   6.155   3.646   1.240  2.1917 -0.9362  1.0591
  292MOL    C1435516   6.105   3.840   1.165 -0.3190 -0.2249 -0.0307
  292MOL    F1535517   6.167   3.960   1.171 -0.5699 -0.1588 -0.1015
  292MOL    F1635518   6.084   3.800   1.037  0.4150 -0.1750 -0.1456
  292MOL    C1735519   5.976   3.840   1.237  0.1179  0.0584 -0.3174
  292MOL    H1835520   6.009   3.840   1.341  2.7575  1.7082 -1.0854
  292MOL    H1935521   5.916   3.750   1.226  1.2533 -0.9512  1.5052
  292MOL    C2035522   5.871   3.943   1.206 -0.2055  0.0191 -0.3935
  292MOL    F2135523   5.908   4.068   1.235  0.1899  0.3476 -0.5230
  292MOL    F2235524   5.841   3.941   1.081  0.4311 -0.4056  0.0346
  292MOL    C2335525   5.741   3.913   1.290 -0.7974 -0.1888 -0.1322
  292MOL    H2435526   5.759   3.903   1.397 -1.8037  2.2828  0.3049
  292MOL    H2535527   5.703   3.822   1.244  2.6682 -1.8822  0.1931
  292MOL    C2635528   5.627   4.005   1.264  0.1365  0.0304  0.4188
  292MOL    F2735529   5.603   4.013   1.132  0.2691 -0.4650  0.0185
  292MOL    F2835530   5.523   3.947   1.316 -0.1170  0.1853 -0.0631
  292MOL    C2935531   5.638   4.147   1.324 -0.0762  0.6619  0.1789
  292MOL    H3035532   5.546   4.204   1.308 -0.4987  0.3856  1.5779
  292MOL    H3135533   5.708   4.213   1.271 -1.5587  2.2352  0.1242
  292MOL    C3235534   5.669   4.161   1.476  0.6132 -0.5290  0.2195
  292MOL    F3335535   5.574   4.096   1.540  0.1224 -0.1422 -0.3541
  292MOL    F3435536   5.785   4.097   1.508  0.1045 -0.2624  0.2370
  292MOL    C3535537   5.694   4.308   1.523 -0.1473  0.2292 -0.4001
  292MOL    H3635538   5.745   4.356   1.440  0.0677 -0.8958 -0.9137
  292MOL    H3735539   5.757   4.317   1.612  1.2640 -3.1849 -0.9928
  292MOL    C3835540   5.566   4.388   1.567 -0.4321  0.2859  0.0465
  292MOL    F3935541   5.488   4.401   1.457  0.7086 -0.3883  0.5281
  292MOL    F4035542   5.508   4.313   1.662 -0.0654  0.2530 -0.1938
  292MOL    C4135543   5.610   4.523   1.613 -0.5759  0.5802 -0.0294
  292MOL    H4235544   5.677   4.564   1.537  0.5093 -0.1224  0.5394
  292MOL    H4335545   5.655   4.506   1.710  0.5532 -2.9974 -1.0942
  292MOL    C4435546   5.505   4.636   1.626 -0.3487 -0.4677  0.2119
  292MOL    F4535547   5.564   4.743   1.680 -0.2374 -0.1058 -0.2901
  292MOL    F4635548   5.444   4.660   1.512 -0.9909 -0.3488 -0.2987
  292MOL    C4735549   5.389   4.594   1.722 -0.0911 -0.1251 -0.5827
  292MOL    H4835550   5.432   4.535   1.803  0.5579 -0.6008 -1.2697
  292MOL    H4935551   5.333   4.516   1.669 -0.2740 -0.7427  0.5155
  292MOL    C5035552   5.300   4.706   1.777 -0.1706 -0.0052 -0.2995
  292MOL    F5135553   5.370   4.778   1.862 -0.4696  0.4954  0.0367
  292MOL    F5235554   5.266   4.789   1.680  0.0732  0.0814 -0.1315
  292MOL    C5335555   5.174   4.645   1.833  0.7024 -0.7067  0.3315
  292MOL    H5435556   5.206   4.559   1.892  1.0365 -2.3218 -2.1697
  292MOL    H5535557   5.114   4.613   1.748  0.1421 -0.5603  0.6690
  292MOL    C5635558   5.087   4.742   1.917  0.0501 -0.2611 -0.2555
  292MOL    F5735559   4.986   4.665   1.951  0.3162  0.3379 -0.4380
  292MOL    F5835560   5.167   4.759   2.023  0.1151 -0.2600  0.1308
  292MOL    C5935561   5.039   4.865   1.851 -0.3579 -0.1550 -0.9495
  292MOL    H6035562   4.971   4.827   1.775  1.1145 -1.8678 -1.4496
  292MOL    H6135563   5.115   4.915   1.790  0.7122 -2.6178 -1.6701
  292MOL    C6235564   4.970   4.975   1.927  0.6522 -0.2369  0.3341
  292MOL    F6335565   4.942   5.073   1.838 -0.1960 -1.0110  0.0763
  292MOL    F6435566   4.857   4.924   1.972  0.2692  0.0727 -0.4200
  292MOL    C6535567   5.031   5.031   2.060  0.0463  0.1522 -0.2212
  292MOL    H6635568   5.137   5.033   2.037 -0.2479  0.5325 -1.5963
  292MOL    H6735569   5.015   4.957   2.138 -1.6643 -0.0154 -0.7106
  292MOL    C6835570   4.976   5.177   2.106  0.0474 -0.0733 -0.1344
  292MOL    F6935571   4.842   5.181   2.096  0.6365 -0.1020 -1.0551
  292MOL    F7035572   5.009   5.185   2.228 -0.8759 -0.3022 -0.6300
  292MOL    C7135573   5.045   5.293   2.032  0.0904  0.7523  0.0233
  292MOL    H7235574   5.001   5.307   1.933 -1.0461  1.3603  0.6008
  292MOL    H7335575   5.151   5.284   2.011 -0.0988  0.2632 -0.7465
  292MOL    C7435576   5.031   5.437   2.097  1.3405  0.3416  0.2116
  292MOL    F7535577   5.079   5.441   2.219  0.5181 -0.5040 -0.2180
  292MOL    F7635578   5.101   5.519   2.012  0.2427 -0.2940 -0.3309
  292MOL    C7735579   4.881   5.479   2.112 -0.7910  0.9155 -0.2939
  292MOL    H7835580   4.830   5.427   2.193  2.0073 -0.2519  0.7878
  292MOL    H7935581   4.816   5.452   2.029  1.0289  0.5815 -1.6444
  292MOL    C8035582   4.865   5.633   2.145 -0.3362 -0.3611  0.2306
  292MOL    F8135583   4.929   5.673   2.250 -0.2992 -0.4572  0.3957
  292MOL    F8235584   4.917   5.693   2.032 -0.2748 -0.1672  0.4310
  292MOL    C8335585   4.720   5.673   2.160 -0.0649  0.6143  0.1169
  292MOL    H8435586   4.702   5.613   2.249  2.1701  0.9382  0.8131
  292MOL    H8535587   4.648   5.639   2.085  0.6078 -0.8802  0.1351
  292MOL    C8635588   4.685   5.824   2.175  0.1209  0.6254 -0.2821
  292MOL    F8735589   4.762   5.875   2.267  0.3453  0.0254  0.1577
  292MOL    F8835590   4.711   5.895   2.060  0.0008 -0.2574  0.8198
  292MOL    C8935591   4.543   5.847   2.229  0.1660  0.6568  0.1648
  292MOL    H9035592   4.539   5.955   2.237 -0.0693  0.5534  1.5532
  292MOL    H9135593   4.520   5.799   2.324  1.9923 -1.6898 -0.5306
  292MOL    C9235594   4.426   5.797   2.144  0.0242  0.1131  0.0712
  292MOL    F9335595   4.448   5.818   2.013  0.2290 -0.2960 -0.4402
  292MOL    F9435596   4.427   5.665   2.175  0.2488  0.1714  0.0345
  292MOL    C9535597   4.286   5.853   2.193 -0.5432  0.8135 -0.8834
  292MOL    H9635598   4.275   5.956   2.160  1.6666  1.1827 -0.5286
  292MOL    H9735599   4.284   5.852   2.302 -1.1047  1.0058 -0.8914
  292MOL    C9835600   4.159   5.779   2.138  0.5095 -0.5000 -0.5408
  292MOL    F9935601   4.146   5.662   2.206 -0.3099 -0.2337  0.2193
  292MOL   F10035602   4.060   5.861   2.170  0.1728 -0.2607  0.1282
  292MOL   C10135603   4.165   5.765   1.980  0.0971 -0.8552 -0.5275
  292MOL   H10235604   4.254   5.709   1.952  1.6160  1.4116 -0.3803
  292MOL   H10335605   4.167   5.864   1.935  1.8865 -0.4308  0.4452
  292MOL   C10435606   4.045   5.701   1.915 -0.3721  0.2051  0.1985
  292MOL   F10535607   4.036   5.581   1.965 -0.4406 -0.3071  0.3407
  292MOL   F10635608   3.934   5.771   1.939  0.4571  0.7621 -0.0477
  292MOL   C10735609   4.058   5.705   1.763  0.4805  0.1812 -0.5353
  292MOL   H10835610   4.060   5.808   1.727 -2.5979  0.2398 -0.7102
  292MOL   H10935611   3.966   5.671   1.715  0.7848  0.2272 -1.1447
  292MOL   C11035612   4.174   5.619   1.697 -0.1970 -0.7435 -0.0893
  292MOL   F11135613   4.153   5.623   1.564 -0.2123 -0.3132 -0.0460
  292MOL   F11235614   4.299   5.671   1.722  0.0452 -0.0905 -0.3966
  292MOL   C11335615   4.177   5.470   1.726  0.1727  0.0739 -0.2211
  292MOL   H11435616   4.202   5.453   1.831 -0.6175 -0.9501 -0.1945
  292MOL   H11535617   4.262   5.431   1.670  0.9107 -0.5855  1.3307
  292MOL   C11635618   4.054   5.391   1.688 -0.3137 -0.1743  0.8621
  292MOL   F11735619   3.954   5.413   1.770 -0.1834 -0.5242 -0.0823
  292MOL   F11835620   4.023   5.420   1.560 -0.1330 -0.1089 -0.1512
  292MOL   C11935621   4.081   5.245   1.697 -0.2766 -0.1084  0.5874
  292MOL   H12035622   4.159   5.214   1.629  0.1917 -1.2707  1.6331
  292MOL   H12135623   3.999   5.179   1.670 -1.7373 -0.4191  5.3000
  292MOL   H12235624   4.108   5.225   1.801 -0.0130  2.5027  1.0585
  293MOL     C135625   0.659   0.010   1.011 -0.3587 -0.4382  0.7842
  293MOL     F235626   0.780   0.063   1.017  0.9060  0.1154  0.0273
  293MOL     F335627   0.652   8.288   0.897 -0.0540 -0.1331 -0.5865
  293MOL     C435628   0.549   0.118   1.006  0.3738  0.7411  0.0085
  293MOL     H535629   0.458   0.061   1.017  0.6615  0.1089 -0.9048
  293MOL     H635630   0.555   0.169   0.910 -1.2671 -1.2514 -1.1790
  293MOL     H735631   0.641   8.300   1.101 -0.8270 -0.3493  0.7533
  293MOL     C835632   0.558   0.219   1.119  0.3485 -0.0459 -0.3017
  293MOL     F935633   0.568   0.148   1.229  0.6890  0.1034  0.2033
  293MOL    F1035634   0.670   0.296   1.102  0.3194 -0.1048  0.1136
  293MOL    C1135635   0.432   0.310   1.137  0.8427 -0.2164  0.5025
  293MOL    H1235636   0.336   0.259   1.143  1.4612 -1.2017  2.3643
  293MOL    H1335637   0.427   0.368   1.045 -1.0042 -2.9369 -1.1738
  293MOL    C1435638   0.454   0.414   1.248 -0.1940  0.2889 -0.6330
  293MOL    F1535639   0.500   0.357   1.358 -0.6718  0.9759  0.2831
  293MOL    F1635640   0.538   0.509   1.206  0.1562  0.4703 -0.1931
  293MOL    C1735641   0.319   0.481   1.278 -0.2710  0.1134 -0.3513
  293MOL    H1835642   0.244   0.408   1.308 -0.0118 -0.5143 -1.2281
  293MOL    H1935643   0.273   0.520   1.188 -0.9322 -0.6363 -0.3429
  293MOL    C2035644   0.323   0.597   1.378  0.4920 -0.5976 -0.1272
  293MOL    F2135645   0.342   0.559   1.504 -0.2443 -0.4712 -0.1519
  293MOL    F2235646   0.423   0.682   1.355 -0.4270 -0.1898 -0.3646
  293MOL    C2335647   0.192   0.683   1.379 -0.2693  0.8460  0.6784
  293MOL    H2435648   0.179   0.723   1.279 -4.4351 -1.1013  0.3600
  293MOL    H2535649   0.213   0.758   1.456 -0.7263  1.7160 -0.0290
  293MOL    C2635650   0.055   0.607   1.391 -0.2274 -0.0026 -0.3157
  293MOL    F2735651   0.028   0.540   1.278  0.0692 -0.0541 -0.1275
  293MOL    F2835652   0.074   0.513   1.487  0.0137  0.5481  0.0883
  293MOL    C2935653   8.279   0.691   1.442  0.1901  0.3957 -0.0673
  293MOL    H3035654   8.291   0.720   1.547  0.6621 -4.7438  1.4315
  293MOL    H3135655   8.192   0.625   1.450 -0.5822  1.2180 -1.4625
  293MOL    C3235656   8.241   0.812   1.352 -0.2355 -0.3895  0.5474
  293MOL    F3335657   8.335   0.909   1.365  0.2065 -0.5534 -0.2643
  293MOL    F3435658   8.214   0.781   1.218  0.0325 -0.2711 -0.4084
  293MOL    C3535659   8.115   0.881   1.404 -0.2039  1.0303 -0.0551
  293MOL    H3635660   8.116   0.988   1.386 -0.1042  0.9383 -0.6130
  293MOL    H3735661   8.117   0.862   1.512 -0.1931  0.1748 -0.2022
  293MOL    C3835662   7.984   0.838   1.342 -0.7921 -0.3337 -0.7465
  293MOL    F3935663   7.952   0.715   1.365  0.3463  0.2020  0.4688
  293MOL    F4035664   7.884   0.907   1.404  0.1876 -0.6586 -0.1519
  293MOL    C4135665   7.965   0.858   1.194  0.2638  0.4813 -0.2760
  293MOL    H4235666   8.006   0.770   1.144 -1.3554  0.6178 -1.8706
  293MOL    H4335667   8.025   0.945   1.165 -1.6504  1.5775 -1.0086
  293MOL    C4435668   7.814   0.873   1.142  0.4688 -0.2513 -0.1470
  293MOL    F4535669   7.738   0.770   1.177  0.2384  0.1500 -0.0187
  293MOL    F4635670   7.759   0.983   1.198 -0.0399 -0.0098  0.2279
  293MOL    C4735671   7.807   0.883   0.987 -0.0673 -0.7262 -0.2651
  293MOL    H4835672   7.702   0.861   0.969 -0.8104  1.2217  1.4140
  293MOL    H4935673   7.862   0.802   0.939 -0.7734 -1.6658  0.4880
  293MOL    C5035674   7.838   1.029   0.931 -0.4344  0.1816 -0.3872
  293MOL    F5135675   7.749   1.118   0.984  0.1258 -0.3958 -0.1843
  293MOL    F5235676   7.963   1.062   0.974 -0.2140 -0.2189 -0.0378
  293MOL    C5335677   7.815   1.040   0.781  0.3098 -0.1610  0.2084
  293MOL    H5435678   7.821   1.146   0.756 -0.9154 -0.4594 -1.4631
  293MOL    H5535679   7.711   1.014   0.757  1.2437 -4.4445  0.4147
  293MOL    C5635680   7.908   0.967   0.690  0.4147  0.1340 -0.6719
  293MOL    F5735681   8.032   0.991   0.727 -0.5605 -0.4896  0.2832
  293MOL    F5835682   7.879   0.832   0.709 -0.1086  0.1161  0.0862
  293MOL    C5935683   7.891   0.992   0.542  0.0049  0.0311  0.1391
  293MOL    H6035684   7.790   0.956   0.520  0.1883 -1.9953  2.4847
  293MOL    H6135685   7.942   0.903   0.506 -0.0543 -1.0031  2.5672
  293MOL    C6235686   7.930   1.119   0.467  0.3058 -0.0140  0.3290
  293MOL    F6335687   7.868   1.211   0.543 -0.5721 -0.7684  0.2692
  293MOL    F6435688   8.060   1.155   0.469  0.2561  0.1140  0.1153
  293MOL    C6535689   7.861   1.143   0.332 -0.6013 -0.1687  0.3789
  293MOL    H6635690   7.834   1.247   0.313 -0.0225  0.2468  1.7303
  293MOL    H6735691   7.765   1.093   0.337 -0.4573 -0.4213  0.6442
  293MOL    C6835692   7.938   1.098   0.209  0.1791 -0.6329 -0.9867
  293MOL    F6935693   8.034   1.179   0.172  0.2191  0.1607 -0.6777
  293MOL    F7035694   7.988   0.977   0.230 -0.3792  0.3430  0.2196
  293MOL    C7135695   7.847   1.090   0.084  0.6233 -0.2547 -0.5837
  293MOL    H7235696   7.914   1.056   0.005 -0.4329 -2.0439 -0.7390
  293MOL    H7335697   7.826   1.191   0.049  0.9384  0.4013  1.0685
  293MOL    C7435698   7.720   1.007   0.078 -0.2298  0.1640 -1.0366
  293MOL    F7535699   7.625   1.071   0.139  0.2894 -0.4375  0.0844
  293MOL    F7635700   7.700   1.002   8.293  0.6463 -0.1055 -0.4883
  293MOL    C7735701   7.735   0.861   0.139 -0.0329  0.6972  0.1265
  293MOL    H7835702   7.755   0.871   0.246 -2.7130 -0.5073  0.7749
  293MOL    H7935703   7.819   0.812   0.090  1.2150  1.7913  1.1232
  293MOL    C8035704   7.611   0.776   0.143  0.3300  0.1728  0.5973
  293MOL    F8135705   7.519   0.839   0.218  0.4957  0.0393 -0.8135
  293MOL    F8235706   7.561   0.783   0.019  0.9980  0.0626 -0.5811
  293MOL    C8335707   7.643   0.634   0.179  0.0756 -0.0979 -0.3750
  293MOL    H8435708   7.710   0.585   0.109 -0.1705 -3.1072  1.4348
  293MOL    H8535709   7.547   0.583   0.187 -0.2950  0.5808 -0.4080
  293MOL    C8635710   7.707   0.613   0.320  0.0015 -0.2604  0.0735
  293MOL    F8735711   7.829   0.667   0.305  0.2417  0.6904  0.2065
  293MOL    F8835712   7.628   0.664   0.417  0.0637 -0.2357 -0.1194
  293MOL    C8935713   7.736   0.468   0.359  0.0366  0.5236 -0.0654
  293MOL    H9035714   7.755   0.400   0.276  2.1193 -2.0800  2.4411
  293MOL    H9135715   7.651   0.417   0.404  0.0541  1.1899  0.7271
  293MOL    C9235716   7.848   0.438   0.458  0.0507 -0.7408 -0.2646
  293MOL    F9335717   7.834   0.307   0.464 -0.0633 -0.2355 -0.4927
  293MOL    F9435718   7.968   0.478   0.414  0.1386  0.4286 -0.7612
  293MOL    C9535719   7.835   0.497   0.601  0.3459 -0.7794  0.1709
  293MOL    H9635720   7.767   0.444   0.668 -2.0862  1.1606 -0.6613
  293MOL    H9735721   7.795   0.599   0.597  1.4391 -0.3833 -1.0014
  293MOL    C9835722   7.975   0.505   0.680  0.2715 -0.4142 -0.0246
  293MOL    F9935723   8.041   0.607   0.628  0.4440 -0.2859 -0.0440
  293MOL   F10035724   7.947   0.527   0.810 -0.5706  0.7605  0.4565
  293MOL   C10135725   8.052   0.370   0.678  0.3042 -0.1520  0.2005
  293MOL   H10235726   8.037   0.319   0.583  1.3326 -1.5627  0.7803
  293MOL   H10335727   8.013   0.306   0.757  0.8782 -1.0886 -0.2628
  293MOL   C10435728   8.201   0.390   0.710 -0.0691  0.0682 -0.2153
  293MOL   F10535729   8.254   0.267   0.699 -0.1769  0.3283  0.2407
  293MOL   F10635730   8.261   0.466   0.620  0.1107  0.2398  0.0602
  293MOL   C10735731   8.229   0.448   0.852 -0.0102  0.0400  0.1722
  293MOL   H10835732   8.166   0.392   0.922 -1.7838  1.7184 -0.0522
  293MOL   H10935733   8.189   0.547   0.871  0.2492  0.3870 -1.0638
  293MOL   C11035734   0.014   0.420   0.903 -0.4240 -0.5858 -0.1024
  293MOL   F11135735   0.015   0.475   1.020 -0.2435  0.2710 -0.1763
  293MOL   F11235736   0.036   0.290   0.924  0.1521 -0.5120  0.2494
  293MOL   C11335737   0.127   0.475   0.818  0.0593 -0.3258 -0.1053
  293MOL   H11435738   0.131   0.433   0.717  1.9386 -0.2293 -0.0854
  293MOL   H11535739   0.218   0.443   0.870  0.4675  1.1299  0.0928
  293MOL   C11635740   0.136   0.626   0.805 -0.1915  0.4143  0.0497
  293MOL   F11735741   0.031   0.682   0.749  0.8250  0.2206  0.5682
  293MOL   F11835742   0.151   0.687   0.919 -0.3283 -0.1494 -0.0661
  293MOL   C11935743   0.240   0.680   0.703  0.0523  0.1290  0.0130
  293MOL   H12035744   0.212   0.642   0.604 -0.7035  3.1688 -0.9675
  293MOL   H12135745   0.344   0.648   0.715  0.7797  3.0329  1.9475
  293MOL   H12235746   0.240   0.788   0.691  1.2319  0.2700  1.1525
  294MOL     C135747   5.386   2.003   0.447  0.2509 -0.7733 -0.2277
  294MOL     F235748   5.327   1.961   0.563 -0.0778 -0.4252 -0.5061
  294MOL     F335749   5.320   1.951   0.339 -0.0390 -0.0472 -0.2290
  294MOL     C435750   5.540   1.981   0.440  0.4379  0.3883 -0.0857
  294MOL     H535751   5.585   2.009   0.535  0.6550  1.6676 -0.5565
  294MOL     H635752   5.580   2.047   0.364  0.0436 -0.3338 -0.9263
  294MOL     H735753   5.369   2.110   0.458 -0.7596 -0.9487 -0.0565
  294MOL     C835754   5.587   1.840   0.406 -0.5819 -0.4088  0.0881
  294MOL     F935755   5.554   1.825   0.275  0.2056 -0.2107 -0.4494
  294MOL    F1035756   5.720   1.842   0.420 -0.5701 -0.1622 -0.3157
  294MOL    C1135757   5.520   1.727   0.486  0.2686  0.5716  0.8554
  294MOL    H1235758   5.412   1.742   0.482  0.4662  1.7429 -1.3833
  294MOL    H1335759   5.554   1.730   0.589  0.6776  0.6653  0.7172
  294MOL    C1435760   5.550   1.584   0.436 -1.0154 -0.6778  0.6528
  294MOL    F1535761   5.474   1.499   0.505 -0.2190 -0.0757  0.1889
  294MOL    F1635762   5.510   1.585   0.315  0.0111 -0.0688  0.3763
  294MOL    C1735763   5.699   1.547   0.462 -0.5550 -0.4353 -0.4677
  294MOL    H1835764   5.728   1.564   0.566 -0.0217  1.8268 -0.9671
  294MOL    H1935765   5.759   1.618   0.404 -1.0245  2.2052  2.1723
  294MOL    C2035766   5.740   1.399   0.429 -0.5041 -0.3083 -0.7487
  294MOL    F2135767   5.667   1.310   0.495 -0.3876 -0.0878  0.4283
  294MOL    F2235768   5.732   1.373   0.297  0.2884  0.0803 -0.2381
  294MOL    C2335769   5.889   1.371   0.454 -0.7029  0.5874  0.6621
  294MOL    H2435770   5.946   1.455   0.414 -0.5622  0.1691 -0.0230
  294MOL    H2535771   5.916   1.288   0.389 -1.0966  0.2228  0.9586
  294MOL    C2635772   5.935   1.358   0.606 -0.5074  0.5805  0.3528
  294MOL    F2735773   5.906   1.468   0.677 -0.2750  0.5749  0.4966
  294MOL    F2835774   5.857   1.262   0.656  0.3371 -0.1481 -0.1673
  294MOL    C2935775   6.080   1.311   0.631  0.1341 -0.0330 -0.6760
  294MOL    H3035776   6.094   1.291   0.737 -1.2787  0.6916 -0.3283
  294MOL    H3135777   6.141   1.400   0.620  1.1221 -0.9196 -2.5210
  294MOL    C3235778   6.140   1.201   0.540 -0.1572 -0.8629  0.0410
  294MOL    F3335779   6.042   1.107   0.501 -0.7890 -0.2025 -0.1035
  294MOL    F3435780   6.185   1.255   0.426 -0.2158 -0.0154 -0.1809
  294MOL    C3535781   6.242   1.123   0.629 -0.1240 -0.1543  0.0134
  294MOL    H3635782   6.294   1.047   0.569  0.6184 -0.4064  0.9670
  294MOL    H3735783   6.174   1.080   0.703 -1.7206  1.3076 -0.5755
  294MOL    C3835784   6.356   1.216   0.678 -0.3972  1.4652  0.2218
  294MOL    F3935785   6.415   1.274   0.569  0.1208 -0.1002  0.1994
  294MOL    F4035786   6.322   1.310   0.766  0.6644  0.3058 -0.6138
  294MOL    C4135787   6.479   1.154   0.756 -0.1685 -0.4447  0.3236
  294MOL    H4235788   6.448   1.123   0.856 -0.3021  0.1580  0.4676
  294MOL    H4335789   6.548   1.235   0.780  2.5508 -2.3972 -0.6019
  294MOL    C4435790   6.558   1.039   0.688  0.6394  0.0875  0.2048
  294MOL    F4535791   6.482   0.928   0.670 -0.3205 -0.0817 -0.3106
  294MOL    F4635792   6.606   1.078   0.572 -0.5961 -0.2438 -0.3858
  294MOL    C4735793   6.686   0.981   0.769  0.1517  0.5009  0.0417
  294MOL    H4835794   6.717   0.889   0.718 -0.3044 -0.6642  1.8399
  294MOL    H4935795   6.639   0.957   0.864  1.1791  0.6696  0.6026
  294MOL    C5035796   6.811   1.074   0.791  0.0985 -0.0501 -0.4687
  294MOL    F5135797   6.872   1.116   0.680 -0.2235 -0.6233 -0.6016
  294MOL    F5235798   6.773   1.182   0.862 -0.3210 -0.2784 -0.3630
  294MOL    C5335799   6.920   1.005   0.875  0.1429 -0.5303  0.1033
  294MOL    H5435800   6.930   0.900   0.849  0.0260 -0.7638  0.9744
  294MOL    H5535801   6.898   0.974   0.977 -0.7890 -1.3939 -0.3619
  294MOL    C5635802   7.059   1.075   0.882  0.2646  0.4995  0.1694
  294MOL    F5735803   7.041   1.204   0.914 -0.5513 -0.1382  0.1504
  294MOL    F5835804   7.120   1.011   0.985  0.4307 -0.0077 -0.0386
  294MOL    C5935805   7.159   1.072   0.769  0.0482 -0.1671  0.7560
  294MOL    H6035806   7.111   1.104   0.676  2.1768 -3.3118 -1.5221
  294MOL    H6135807   7.188   0.969   0.749 -0.8080  0.1637 -2.4690
  294MOL    C6235808   7.283   1.157   0.783 -0.8003 -0.6301  0.2789
  294MOL    F6335809   7.258   1.287   0.801  0.3001  0.3346  0.5700
  294MOL    F6435810   7.333   1.113   0.905 -0.4582 -0.1709  0.5455
  294MOL    C6535811   7.400   1.135   0.682 -0.3253  0.3982 -0.1092
  294MOL    H6635812   7.355   1.130   0.583 -1.8999 -1.4479  0.6598
  294MOL    H6735813   7.434   1.034   0.705 -1.7568  0.5122  2.8065
  294MOL    C6835814   7.508   1.237   0.689 -0.0678  0.7348  0.4012
  294MOL    F6935815   7.544   1.264   0.814 -0.4067  0.2805  0.4888
  294MOL    F7035816   7.612   1.184   0.628 -0.5676 -0.1000  0.5615
  294MOL    C7135817   7.473   1.354   0.595 -0.1198  0.0499 -0.0090
  294MOL    H7235818   7.380   1.402   0.623  0.4689  0.2429  1.6818
  294MOL    H7335819   7.476   1.320   0.492 -0.7538 -2.1276  0.6681
  294MOL    C7435820   7.574   1.468   0.590 -0.3640 -0.8998 -0.3669
  294MOL    F7535821   7.696   1.417   0.563  0.2606 -0.6108  0.1250
  294MOL    F7635822   7.532   1.545   0.489  0.1888 -0.3181 -0.0085
  294MOL    C7735823   7.572   1.546   0.731  0.4640  0.1101  0.1469
  294MOL    H7835824   7.624   1.489   0.808  1.5944  0.5184 -0.2927
  294MOL    H7935825   7.471   1.565   0.768  0.1911  1.3390 -1.1730
  294MOL    C8035826   7.631   1.688   0.728  0.1411 -0.0781  0.5535
  294MOL    F8135827   7.564   1.769   0.646 -0.2901  0.2597 -0.2392
  294MOL    F8235828   7.623   1.730   0.857 -0.3575 -0.0176 -0.0860
  294MOL    C8335829   7.782   1.672   0.686 -0.2033 -0.3395 -0.2528
  294MOL    H8435830   7.781   1.644   0.581  0.0763  1.7617 -0.8250
  294MOL    H8535831   7.830   1.588   0.736  0.4065  1.2253  1.8795
  294MOL    C8635832   7.866   1.809   0.698  0.5132  0.2244 -1.2709
  294MOL    F8735833   7.883   1.822   0.827 -0.0121  0.7766  0.3838
  294MOL    F8835834   7.992   1.779   0.656 -0.1160 -0.4147 -0.4830
  294MOL    C8935835   7.813   1.943   0.643 -0.0368  0.3114 -0.9500
  294MOL    H9035836   7.866   2.024   0.693 -1.0770 -0.6730  1.8581
  294MOL    H9135837   7.712   1.964   0.678 -0.5877  0.1022 -2.3816
  294MOL    C9235838   7.817   1.959   0.494  0.1003 -0.4772  0.0567
  294MOL    F9335839   7.938   1.949   0.451  0.5180 -0.1154  0.0603
  294MOL    F9435840   7.744   1.872   0.437  0.5621  0.7105 -0.9500
  294MOL    C9535841   7.757   2.096   0.454 -0.1011  0.4409  0.0502
  294MOL    H9635842   7.803   2.167   0.523 -3.3188  0.0645  2.6796
  294MOL    H9735843   7.652   2.092   0.481  0.6570  0.8905  3.2152
  294MOL    C9835844   7.751   2.142   0.307  0.0262  0.3307  0.0515
  294MOL    F9935845   7.734   2.030   0.236  0.1252 -0.5876 -0.2921
  294MOL   F10035846   7.650   2.224   0.296 -0.6214 -0.3673 -0.4696
  294MOL   C10135847   7.886   2.205   0.264  0.6941  0.4445  0.4903
  294MOL   H10235848   7.968   2.133   0.269  0.6755  0.2673 -1.6497
  294MOL   H10335849   7.911   2.284   0.335 -1.9957 -0.2579  2.3396
  294MOL   C10435850   7.889   2.257   0.123  0.3060 -0.5234 -0.0425
  294MOL   F10535851   7.848   2.167   0.032  0.1794 -0.3722 -0.4000
  294MOL   F10635852   7.800   2.357   0.126 -0.3365  0.1955 -0.2248
  294MOL   C10735853   8.024   2.318   0.092  0.2886  0.0790  0.4955
  294MOL   H10835854   8.059   2.378   0.176 -0.4250  1.8340 -0.4308
  294MOL   H10935855   8.001   2.395   0.019 -0.9088 -0.9809 -0.2474
  294MOL   C11035856   8.135   2.222   0.035  0.3133  0.2059  1.1029
  294MOL   F11135857   8.161   2.123   0.123 -0.4397  0.0051 -0.0933
  294MOL   F11235858   8.078   2.174   8.272 -0.4394 -0.0218  0.0730
  294MOL   C11335859   8.263   2.297   8.339  0.3514  0.5656  0.0156
  294MOL   H11435860   8.241   2.348   8.245 -0.2180 -0.5099 -0.4538
  294MOL   H11535861   8.340   2.223   8.316 -0.4476  0.2837 -1.9092
  294MOL   C11635862   8.312   2.407   0.085 -0.0461 -0.1587 -0.1489
  294MOL   F11735863   8.225   2.511   0.083 -0.1819  0.3480  0.3761
  294MOL   F11835864   8.324   2.361   0.211 -0.2401 -0.5853  0.1625
  294MOL   C11935865   0.088   2.472   0.039  0.2620 -0.0466  0.2235
  294MOL   H12035866   0.102   2.561   0.102  0.8547 -0.7488  1.0965
  294MOL   H12135867   0.093   2.500   8.284  0.8689  0.4121  0.3695
  294MOL   H12235868   0.175   2.409   0.057 -0.3870 -1.1519 -0.4347
  295MOL     C135869   1.598   4.863   1.522  0.1822 -0.2327 -0.2601
  295MOL     F235870   1.658   4.784   1.432 -0.4120  0.8655 -0.0075
  295MOL     F335871   1.681   4.912   1.617  0.2376  0.3815  0.1682
  295MOL     C435872   1.466   4.812   1.581 -0.4095 -0.6581 -0.1460
  295MOL     H535873   1.403   4.779   1.499  1.3435 -0.2605 -1.6897
  295MOL     H635874   1.415   4.893   1.633 -0.6482 -1.6994  1.2808
  295MOL     H735875   1.572   4.950   1.462 -0.8129  1.1193  2.0605
  295MOL     C835876   1.469   4.699   1.684  0.1595 -0.3864  0.7695
  295MOL     F935877   1.341   4.664   1.715 -0.7330 -0.4860  0.0864
  295MOL    F1035878   1.534   4.592   1.639 -1.2056 -0.0151 -0.0060
  295MOL    C1135879   1.532   4.737   1.814  0.3443 -0.6497 -0.4469
  295MOL    H1235880   1.478   4.829   1.837  1.6482  1.0479 -3.8204
  295MOL    H1335881   1.636   4.759   1.793  0.9329 -0.9594  1.9978
  295MOL    C1435882   1.533   4.637   1.936 -0.2985  0.1249  0.5441
  295MOL    F1535883   1.409   4.597   1.978  0.0262  0.0125  0.2164
  295MOL    F1635884   1.601   4.523   1.901  0.7858  0.4915 -0.2235
  295MOL    C1735885   1.604   4.700   2.054 -0.0371  0.2466 -0.4756
  295MOL    H1835886   1.533   4.779   2.077  0.6341 -0.0237  2.6463
  295MOL    H1935887   1.692   4.754   2.020  0.9238 -1.8876 -1.4871
  295MOL    C2035888   1.622   4.626   2.185 -0.6527 -0.4508  0.0239
  295MOL    F2135889   1.654   4.722   2.277  0.3487 -0.4026 -0.0521
  295MOL    F2235890   1.500   4.584   2.226  0.3285 -0.4736 -0.1448
  295MOL    C2335891   1.737   4.523   2.194  0.1662  0.0368 -0.5461
  295MOL    H2435892   1.831   4.570   2.163 -0.2903  1.3673  0.0512
  295MOL    H2535893   1.711   4.449   2.118 -1.0431 -1.0883  0.9534
  295MOL    C2635894   1.747   4.454   2.334 -0.3367 -0.0467  0.3382
  295MOL    F2735895   1.776   4.544   2.425  0.0815  0.5686 -0.2822
  295MOL    F2835896   1.633   4.403   2.373  0.3898 -0.3252  0.2536
  295MOL    C2935897   1.870   4.358   2.330  0.1261 -0.2423 -0.0804
  295MOL    H3035898   1.904   4.340   2.433 -1.6503 -0.4579  0.4715
  295MOL    H3135899   1.956   4.415   2.292  0.4887 -0.3030  0.6254
  295MOL    C3235900   1.853   4.232   2.256 -0.1808  0.1275  0.0208
  295MOL    F3335901   1.757   4.175   2.324  0.8204 -0.3769  0.5111
  295MOL    F3435902   1.801   4.245   2.133 -0.2128 -0.2281  0.1369
  295MOL    C3535903   1.983   4.150   2.262  0.3491  0.6955  0.1426
  295MOL    H3635904   1.947   4.047   2.258 -2.2253  1.6413 -1.9480
  295MOL    H3735905   2.039   4.169   2.354 -0.7889  0.8884  0.8088
  295MOL    C3835906   2.075   4.166   2.141  0.0712 -0.8611 -0.1821
  295MOL    F3935907   2.005   4.132   2.028  0.5142 -0.7031  0.5802
  295MOL    F4035908   2.108   4.295   2.145 -0.1119 -0.2893  0.1383
  295MOL    C4135909   2.207   4.088   2.163  0.1204  0.3978 -0.5841
  295MOL    H4235910   2.263   4.117   2.252 -2.5690  1.0308  0.9668
  295MOL    H4335911   2.271   4.136   2.089 -0.3730  2.1553  0.1015
  295MOL    C4435912   2.206   3.932   2.158  0.0301 -0.9332 -0.4317
  295MOL    F4535913   2.139   3.880   2.263 -0.4837 -0.4593 -0.2119
  295MOL    F4635914   2.156   3.894   2.038 -0.1807 -0.3358  0.2253
  295MOL    C4735915   2.351   3.875   2.165 -0.0010  0.1679  0.3931
  295MOL    H4835916   2.406   3.928   2.243 -0.5478  0.4779  0.5730
  295MOL    H4935917   2.399   3.891   2.069  0.2094  1.1389  0.6488
  295MOL    C5035918   2.371   3.719   2.169  0.2362 -0.2275  1.4777
  295MOL    F5135919   2.505   3.686   2.155 -0.3159  0.3371 -0.5465
  295MOL    F5235920   2.322   3.688   2.290  0.2071 -0.0823  0.3553
  295MOL    C5335921   2.293   3.652   2.049  0.3182  0.6154 -0.1852
  295MOL    H5435922   2.328   3.713   1.965  1.9279  2.7080  1.9267
  295MOL    H5535923   2.187   3.673   2.055  0.0452 -0.5462 -0.7352
  295MOL    C5635924   2.319   3.502   2.034 -0.0670  0.5666 -0.4909
  295MOL    F5735925   2.439   3.458   2.004 -0.3124  0.4525  0.2061
  295MOL    F5835926   2.285   3.440   2.146 -0.3253  0.3662 -0.3624
  295MOL    C5935927   2.238   3.447   1.917  0.3818  0.3043  0.7566
  295MOL    H6035928   2.274   3.499   1.828 -0.0747 -0.7082 -0.0318
  295MOL    H6135929   2.133   3.479   1.919  0.2629  0.2623 -2.5290
  295MOL    C6235930   2.250   3.302   1.881 -0.3442  0.1093 -0.1295
  295MOL    F6335931   2.167   3.274   1.779  0.0441  0.2724  0.2699
  295MOL    F6435932   2.373   3.274   1.839  0.0468 -0.2429  0.0511
  295MOL    C6535933   2.218   3.204   1.995 -0.1879  0.2809 -0.2245
  295MOL    H6635934   2.137   3.238   2.059 -1.3664 -2.1845 -0.3423
  295MOL    H6735935   2.295   3.219   2.071 -1.8180  0.8866  1.3422
  295MOL    C6835936   2.198   3.057   1.962  0.4071 -0.6157 -0.1537
  295MOL    F6935937   2.149   2.994   2.074  0.6039  0.2274 -0.0897
  295MOL    F7035938   2.109   3.047   1.863  0.6539  0.3832 -0.5859
  295MOL    C7135939   2.322   2.988   1.899  0.3521 -0.5024  0.6603
  295MOL    H7235940   2.397   2.987   1.978  2.2910 -1.8998 -1.1437
  295MOL    H7335941   2.358   3.046   1.815 -0.7816 -0.5766  0.1128
  295MOL    C7435942   2.322   2.843   1.837  0.0159  0.0397  0.1991
  295MOL    F7535943   2.266   2.851   1.717  0.6571 -0.3100  0.1976
  295MOL    F7635944   2.447   2.809   1.823 -0.3165 -0.2594 -0.4700
  295MOL    C7735945   2.244   2.742   1.935 -0.8504 -0.5632  0.3694
  295MOL    H7835946   2.139   2.769   1.943 -1.1317 -1.1615 -1.1221
  295MOL    H7935947   2.277   2.761   2.037  3.1100  0.9417 -1.0846
  295MOL    C8035948   2.277   2.595   1.890 -0.2951 -0.1496  0.2506
  295MOL    F8135949   2.407   2.574   1.884 -0.0317  0.2346 -0.1299
  295MOL    F8235950   2.230   2.515   1.985 -0.2590  0.2902 -0.4500
  295MOL    C8335951   2.227   2.545   1.758 -0.2651 -1.0688  0.2966
  295MOL    H8435952   2.261   2.442   1.746 -1.5565 -1.6646  1.6101
  295MOL    H8535953   2.273   2.603   1.678 -1.7975  0.3071  0.3760
  295MOL    C8635954   2.069   2.551   1.743 -0.2552 -0.1650 -0.3956
  295MOL    F8735955   2.024   2.673   1.762  0.6025  0.0443  0.1096
  295MOL    F8835956   2.046   2.522   1.620  0.0047  0.2021  0.8641
  295MOL    C8935957   2.000   2.452   1.836 -0.7300  0.0549 -0.1696
  295MOL    H9035958   1.996   2.490   1.938 -0.8840 -0.4589  0.0187
  295MOL    H9135959   2.059   2.360   1.839 -1.1120 -0.1918 -0.1207
  295MOL    C9235960   1.859   2.424   1.794 -0.0147 -0.6792 -0.4620
  295MOL    F9335961   1.790   2.533   1.772 -0.3104  0.2124  0.4997
  295MOL    F9435962   1.864   2.347   1.682 -0.0454  0.2422  0.3030
  295MOL    C9535963   1.779   2.350   1.901  0.7353  0.2100 -0.4923
  295MOL    H9635964   1.828   2.256   1.926 -2.1526 -1.1019  0.4255
  295MOL    H9735965   1.682   2.321   1.860  0.1261  2.7669 -0.9703
  295MOL    C9835966   1.743   2.420   2.034  0.0658  0.2331 -0.3603
  295MOL    F9935967   1.854   2.438   2.103 -0.0353 -0.2123 -0.3553
  295MOL   F10035968   1.699   2.544   2.014  0.4257  0.0233  0.0552
  295MOL   C10135969   1.647   2.334   2.121 -0.4659  0.2864  0.2809
  295MOL   H10235970   1.693   2.239   2.147  1.3117  0.8977 -0.5155
  295MOL   H10335971   1.562   2.307   2.059 -0.4416  1.0911 -0.1094
  295MOL   C10435972   1.581   2.383   2.251 -0.3194  0.0332  0.0984
  295MOL   F10535973   1.672   2.428   2.337 -0.3302 -0.2587  0.1214
  295MOL   F10635974   1.502   2.491   2.220 -0.2253  0.0871  0.1045
  295MOL   C10735975   1.501   2.278   2.330 -0.1410  0.0012  0.0232
  295MOL   H10835976   1.570   2.198   2.358  1.6104  1.4061 -0.2114
  295MOL   H10935977   1.427   2.226   2.268  0.5649 -0.7218 -0.2179
  295MOL   C11035978   1.436   2.332   2.462 -1.1238 -0.2002  0.5864
  295MOL   F11135979   1.360   2.233   2.490  0.3566  0.1944 -0.5600
  295MOL   F11235980   1.532   2.352   2.551  0.8444  0.8223  0.4555
  295MOL   C11335981   1.335   2.449   2.443 -1.0124 -0.3124 -0.5740
  295MOL   H11435982   1.298   2.444   2.340  2.4581 -2.7272 -1.7954
  295MOL   H11535983   1.391   2.543   2.439  0.5551 -1.1112  1.7407
  295MOL   C11635984   1.236   2.461   2.557  0.9067 -0.3892  0.4221
  295MOL   F11735985   1.172   2.578   2.556 -0.4246  0.0679  0.0021
  295MOL   F11835986   1.155   2.354   2.551  0.1137  0.1592 -0.0356
  295MOL   C11935987   1.313   2.473   2.689 -0.2994  0.0660 -0.0435
  295MOL   H12035988   1.362   2.379   2.717  0.3157 -0.8412 -3.8845
  295MOL   H12135989   1.236   2.487   2.765  0.7211 -0.5773  1.1357
  295MOL   H12235990   1.372   2.564   2.702  1.6061 -1.0325 -0.8612
  296MOL     C135991   6.872   5.834   1.319  0.5021  0.8176 -0.0282
  296MOL     F235992   6.838   5.730   1.233  0.4414 -0.2747 -0.4326
  296MOL     F335993   6.782   5.932   1.307  0.0860 -0.6134  0.9420
  296MOL     C435994   7.005   5.899   1.304 -0.1980  0.6529 -0.2196
  296MOL     H535995   7.094   5.837   1.319 -0.7556  0.2055  1.2980
  296MOL     H635996   7.016   5.977   1.380 -1.4907 -0.2649  0.9273
  296MOL     H735997   6.868   5.792   1.420 -0.7980  1.4302  0.1824
  296MOL     C835998   7.024   5.961   1.162 -0.0368 -0.0499  1.0849
  296MOL     F935999   7.149   5.991   1.155 -0.4006 -0.2538  0.2408
  296MOL    F1036000   6.995   5.871   1.070  0.4514  0.4013  0.5178
  296MOL    C1136001   6.939   6.086   1.126  0.6696 -0.2603 -0.4708
  296MOL    H1236002   6.834   6.056   1.121  0.3068  0.6466  1.2903
  296MOL    H1336003   6.959   6.123   1.026  1.1166 -0.7576 -0.5645
  296MOL    C1436004   6.957   6.209   1.221  0.2087  0.9015  0.1099
  296MOL    F1536005   6.905   6.175   1.338 -0.6324 -0.2946  0.1476
  296MOL    F1636006   7.090   6.224   1.235  0.5864  0.2479  0.2184
  296MOL    C1736007   6.889   6.335   1.171 -0.2268 -0.3620 -0.3401
  296MOL    H1836008   6.900   6.405   1.255 -0.4700 -0.3454 -0.3207
  296MOL    H1936009   6.781   6.322   1.165 -0.3789  0.3920  0.5459
  296MOL    C2036010   6.960   6.403   1.049 -0.8362 -0.8604  0.3140
  296MOL    F2136011   7.094   6.399   1.060  0.4934 -0.2107  0.1783
  296MOL    F2236012   6.923   6.338   0.939  0.2815 -0.0198  0.1486
  296MOL    C2336013   6.923   6.554   1.022 -0.6976 -0.0183 -0.1395
  296MOL    H2436014   6.988   6.609   0.953 -2.3692  1.1344 -0.8256
  296MOL    H2536015   6.953   6.609   1.111  0.6282 -0.3392 -0.3705
  296MOL    C2636016   6.780   6.585   0.987  0.7939  0.2671  0.2281
  296MOL    F2736017   6.737   6.527   0.871  0.1382 -0.2932  0.1686
  296MOL    F2836018   6.709   6.545   1.095  0.3764  0.0223 -0.2680
  296MOL    C2936019   6.765   6.738   0.971  0.2381 -0.1501 -0.0274
  296MOL    H3036020   6.839   6.778   0.901 -0.6842  1.9504  0.1567
  296MOL    H3136021   6.810   6.789   1.056 -1.9816 -2.1246  2.4256
  296MOL    C3236022   6.625   6.787   0.922  0.6859 -0.5711 -0.1517
  296MOL    F3336023   6.635   6.914   0.882  0.1012  0.8386 -0.1426
  296MOL    F3436024   6.586   6.721   0.817 -0.0865  0.4190 -0.6414
  296MOL    C3536025   6.518   6.768   1.032  0.2366 -0.2217  0.3349
  296MOL    H3636026   6.537   6.842   1.109 -0.7129  0.0290  0.3377
  296MOL    H3736027   6.518   6.670   1.080 -1.3620  0.4888  1.8559
  296MOL    C3836028   6.373   6.797   0.992 -0.7395  0.0751 -0.2580
  296MOL    F3936029   6.375   6.923   0.950  0.2776  0.1678  0.1038
  296MOL    F4036030   6.351   6.721   0.889  0.2057  0.0068 -0.4988
  296MOL    C4136031   6.270   6.763   1.095  0.1953 -0.5068 -0.0170
  296MOL    H4236032   6.303   6.833   1.172  0.0958  0.0552 -0.4864
  296MOL    H4336033   6.290   6.664   1.135  0.3898 -0.0674  0.9989
  296MOL    C4436034   6.125   6.780   1.054  0.0128 -0.0318 -1.3296
  296MOL    F4536035   6.096   6.719   0.939  0.3692  0.3146 -0.1247
  296MOL    F4636036   6.046   6.728   1.153  0.2802 -0.5328  0.5765
  296MOL    C4736037   6.090   6.929   1.036 -0.5333 -0.1658  0.0854
  296MOL    H4836038   5.983   6.927   1.013 -0.5011  1.6077 -0.2432
  296MOL    H4936039   6.140   6.963   0.946 -1.0013 -0.8529 -0.4364
  296MOL    C5036040   6.105   7.022   1.157 -0.4110  0.4829  0.0560
  296MOL    F5136041   6.058   6.962   1.263  0.3819 -0.2870 -0.4640
  296MOL    F5236042   6.231   7.047   1.170 -0.4012 -0.1019 -0.4527
  296MOL    C5336043   6.047   7.167   1.137  0.0006  0.4948 -0.4628
  296MOL    H5436044   6.076   7.218   1.228  0.8486 -1.7447  0.5655
  296MOL    H5536045   5.938   7.163   1.137 -0.0059  0.6443 -1.2442
  296MOL    C5636046   6.095   7.252   1.018  0.2240 -0.2177  0.5088
  296MOL    F5736047   6.226   7.279   1.037  0.0343  0.4655 -0.0688
  296MOL    F5836048   6.080   7.183   0.903  0.0648  0.0237 -0.3311
  296MOL    C5936049   6.011   7.383   1.004 -0.6485 -0.2683  0.4175
  296MOL    H6036050   5.992   7.422   1.104 -0.0204  1.6668 -0.2030
  296MOL    H6136051   5.914   7.348   0.968  0.5033 -0.7277 -2.3409
  296MOL    C6236052   6.065   7.490   0.910 -0.1429 -0.0575  0.6909
  296MOL    F6336053   5.960   7.566   0.892  0.2472 -0.0807  0.4134
  296MOL    F6436054   6.155   7.560   0.988  0.1792  0.9905  0.6083
  296MOL    C6536055   6.113   7.436   0.772 -0.3450  0.3837  0.3072
  296MOL    H6636056   6.039   7.372   0.725 -2.3011  2.4202  0.5017
  296MOL    H6736057   6.194   7.363   0.774  0.6559  1.3610 -2.2545
  296MOL    C6836058   6.165   7.540   0.678 -0.0313  0.2973  0.0110
  296MOL    F6936059   6.272   7.587   0.737 -0.4387  0.0756 -0.1709
  296MOL    F7036060   6.198   7.490   0.562  0.4537 -0.0239  0.1208
  296MOL    C7136061   6.073   7.661   0.657 -0.1489  0.3413 -0.5068
  296MOL    H7236062   6.128   7.731   0.594 -1.6452  2.2802  0.2980
  296MOL    H7336063   6.044   7.701   0.754  0.8600 -1.2722  0.4959
  296MOL    C7436064   5.952   7.625   0.571 -0.3674 -0.2764  0.0783
  296MOL    F7536065   5.990   7.576   0.452  0.2220 -0.0031  0.4281
  296MOL    F7636066   5.878   7.534   0.637 -0.2028  0.1164 -0.2771
  296MOL    C7736067   5.873   7.753   0.530  0.3880  1.0128  0.1674
  296MOL    H7836068   5.934   7.804   0.455  1.5390 -0.6856 -0.0567
  296MOL    H7936069   5.870   7.824   0.613  0.9761  2.1352 -0.7558
  296MOL    C8036070   5.723   7.727   0.484 -0.6646 -1.0578  0.9650
  296MOL    F8136071   5.723   7.616   0.414  0.2252 -0.0368 -0.3616
  296MOL    F8236072   5.652   7.709   0.595 -0.1728 -0.3158 -0.3183
  296MOL    C8336073   5.680   7.840   0.383  0.5970  0.3008 -0.2740
  296MOL    H8436074   5.753   7.845   0.302  1.1170  0.6249  0.2130
  296MOL    H8536075   5.688   7.938   0.428 -1.0194  0.3741 -0.1132
  296MOL    C8636076   5.544   7.818   0.315 -0.6195 -0.1596  0.5155
  296MOL    F8736077   5.531   7.920   0.236 -0.3631  0.2136 -0.6008
  296MOL    F8836078   5.561   7.701   0.242 -0.8775  0.5445  0.0046
  296MOL    C8936079   5.427   7.807   0.404 -1.2110 -0.7110  0.2464
  296MOL    H9036080   5.422   7.894   0.470 -0.6676 -0.8121  0.4261
  296MOL    H9136081   5.434   7.716   0.463  1.6015 -0.4986  0.2982
  296MOL    C9236082   5.291   7.791   0.325  0.5501 -0.8263 -0.0446
  296MOL    F9336083   5.299   7.695   0.234 -0.6163 -0.5791  0.1453
  296MOL    F9436084   5.195   7.759   0.413  0.0504 -0.3093 -0.3886
  296MOL    C9536085   5.239   7.915   0.251 -0.1431 -0.5600  0.3552
  296MOL    H9636086   5.141   7.900   0.205 -0.0494 -0.6702  0.1895
  296MOL    H9736087   5.309   7.916   0.167  0.2409  0.9718  0.6807
  296MOL    C9836088   5.232   8.055   0.317  0.4176  0.0096  0.1120
  296MOL    F9936089   5.171   8.042   0.435 -0.4430 -0.3040 -0.4305
  296MOL   F10036090   5.355   8.101   0.333  0.0652  0.1406 -0.0100
  296MOL   C10136091   5.155   8.170   0.242 -0.0526  0.4299  0.3995
  296MOL   H10236092   5.152   8.264   0.296  0.3972  1.4137 -1.2566
  296MOL   H10336093   5.055   8.134   0.264  0.8464 -0.4134  3.3588
  296MOL   C10436094   5.180   8.197   0.096 -0.1452  0.3069 -0.5811
  296MOL   F10536095   5.311   8.219   0.084  0.5000 -0.4669 -0.0522
  296MOL   F10636096   5.141   8.091   0.029 -0.0424  0.1838  0.7520
  296MOL   C10736097   5.100   8.325   0.048 -0.2477  0.5474 -0.5286
  296MOL   H10836098   5.110   0.063   0.111  1.1823  0.1434 -0.1643
  296MOL   H10936099   4.996   8.294   0.057 -0.1020 -0.7557 -2.9181
  296MOL   C11036100   5.098   0.004   8.245  0.0566  0.7577  0.0699
  296MOL   F11136101   5.223   8.341   8.199 -0.1658  0.3630  0.1845
  296MOL   F11236102   5.027   8.263   8.183  0.1630 -0.1727  0.1222
  296MOL   C11336103   5.037   0.142   8.211 -0.4017 -0.9180  0.1762
  296MOL   H11436104   5.042   0.155   8.102 -3.7920 -1.3394 -0.0853
  296MOL   H11536105   5.103   0.214   8.259  1.5396 -2.6699  0.1879
  296MOL   C11636106   4.894   0.165   8.267  0.1959 -0.6229 -0.1949
  296MOL   F11736107   4.815   0.062   8.223  0.1858  0.1630 -0.1189
  296MOL   F11836108   4.896   0.170   0.053  0.4347 -0.1077  0.3262
  296MOL   C11936109   4.841   0.296   8.208  0.2956  0.2131  0.2318
  296MOL   H12036110   4.908   0.380   8.227 -0.6061  1.1749 -0.8055
  296MOL   H12136111   4.735   0.316   8.224  0.4661  0.5133  1.0389
  296MOL   H12236112   4.852   0.277   8.101 -3.0154  0.4164 -0.1695
  297MOL     C136113   1.048   5.010   2.723  1.1328  0.6757 -0.6093
  297MOL     F236114   1.079   5.035   2.851  0.1207  0.4835  0.2708
  297MOL     F336115   0.927   5.056   2.687  0.0221 -0.0856  0.3528
  297MOL     C436116   1.062   4.868   2.675 -0.2307  0.1020  0.0074
  297MOL     H536117   1.005   4.868   2.582  0.4406 -0.2485 -0.4097
  297MOL     H636118   1.013   4.808   2.752  0.2360  1.2735  1.2383
  297MOL     H736119   1.102   5.083   2.663  2.4200  0.7420  0.6126
  297MOL     C836120   1.207   4.819   2.647  0.3917  0.0565 -0.1676
  297MOL     F936121   1.264   4.822   2.769  0.4929 -0.8124  0.2792
  297MOL    F1036122   1.201   4.685   2.620 -0.3219 -0.0606  0.4793
  297MOL    C1136123   1.296   4.906   2.546 -0.2296  0.1514 -0.3454
  297MOL    H1236124   1.395   4.861   2.543 -1.4629 -2.8221  1.2666
  297MOL    H1336125   1.310   5.006   2.589  1.8709  0.0875 -0.8439
  297MOL    C1436126   1.244   4.919   2.402  0.1769 -0.1499  0.0174
  297MOL    F1536127   1.207   4.799   2.352  0.2308  0.0774 -0.2595
  297MOL    F1636128   1.136   4.992   2.403 -0.2455  0.0934 -0.1067
  297MOL    C1736129   1.334   4.977   2.294  0.9745  0.8675 -0.0327
  297MOL    H1836130   1.277   4.987   2.202 -1.3984 -1.1785  1.1588
  297MOL    H1936131   1.410   4.901   2.279  1.8706  1.7519 -0.0059
  297MOL    C2036132   1.397   5.106   2.335  0.0978 -0.6410  0.4830
  297MOL    F2136133   1.315   5.198   2.372 -0.1862  0.2680 -0.6343
  297MOL    F2236134   1.483   5.094   2.439 -0.1755  0.0644  0.8162
  297MOL    C2336135   1.479   5.163   2.220 -0.5716 -0.1298  0.3898
  297MOL    H2436136   1.528   5.253   2.257  0.3970 -0.4919 -0.0132
  297MOL    H2536137   1.397   5.194   2.155 -0.9862  1.7169  1.7436
  297MOL    C2636138   1.581   5.076   2.148  0.2322  0.3673  0.5742
  297MOL    F2736139   1.644   4.997   2.236  0.0222 -0.3989  0.2330
  297MOL    F2836140   1.518   5.011   2.058 -0.4091  0.5288 -0.2552
  297MOL    C2936141   1.687   5.163   2.070  0.6833 -0.3753  0.3349
  297MOL    H3036142   1.740   5.088   2.011  0.2151 -2.8619  2.9548
  297MOL    H3136143   1.759   5.197   2.144 -0.3731  0.7349  0.8731
  297MOL    C3236144   1.646   5.284   1.983  0.1293  0.1489 -0.2047
  297MOL    F3336145   1.592   5.245   1.870 -0.0329  0.0391 -0.0540
  297MOL    F3436146   1.556   5.357   2.048 -0.2003  0.7371  0.3108
  297MOL    C3536147   1.764   5.370   1.950  0.5995  0.2231 -0.3308
  297MOL    H3636148   1.824   5.310   1.882 -0.7042 -2.6702  0.9840
  297MOL    H3736149   1.822   5.395   2.039 -0.7283  2.7008 -0.1260
  297MOL    C3836150   1.723   5.505   1.873 -0.5185  0.1078  0.9562
  297MOL    F3936151   1.650   5.480   1.763  0.2418 -0.0981 -0.0586
  297MOL    F4036152   1.666   5.594   1.959  0.0937 -0.0682 -0.5717
  297MOL    C4136153   1.842   5.584   1.808 -0.3964  0.0342  0.5940
  297MOL    H4236154   1.803   5.657   1.737  1.2928  2.3975  2.0283
  297MOL    H4336155   1.903   5.531   1.734 -2.5135 -0.2080 -1.0272
  297MOL    C4436156   1.940   5.675   1.896  0.7861  0.5414 -0.4019
  297MOL    F4536157   1.983   5.596   1.993 -0.1341  0.2290  0.3878
  297MOL    F4636158   2.047   5.709   1.820  0.0100 -0.9644 -0.1754
  297MOL    C4736159   1.869   5.804   1.947 -0.2520  0.0792  0.1870
  297MOL    H4836160   1.782   5.779   2.009 -0.6098  1.0426  0.0873
  297MOL    H4936161   1.837   5.868   1.865  1.2497 -0.0846 -0.5324
  297MOL    C5036162   1.960   5.891   2.044  0.1777  0.6991 -0.4310
  297MOL    F5136163   1.969   5.837   2.166  0.0048 -0.1796  0.4349
  297MOL    F5236164   2.090   5.896   1.997  0.2761 -0.5490  0.1314
  297MOL    C5336165   1.903   6.031   2.054  0.0837 -0.4222  0.0256
  297MOL    H5436166   1.799   6.017   2.085  0.2357  0.2466  0.8762
  297MOL    H5536167   1.904   6.070   1.952  1.9946 -0.6499 -0.0612
  297MOL    C5636168   1.985   6.137   2.137 -0.6511  1.0861  0.4808
  297MOL    F5736169   2.015   6.075   2.250 -0.5979 -0.1020  0.0746
  297MOL    F5836170   2.099   6.166   2.075  0.4915 -0.2404  0.4975
  297MOL    C5936171   1.923   6.271   2.174 -0.3159  0.8787  0.7493
  297MOL    H6036172   1.999   6.330   2.227  0.0735  2.7143 -1.7650
  297MOL    H6136173   1.835   6.255   2.236  0.1738 -0.9644  0.9993
  297MOL    C6236174   1.871   6.357   2.063  0.4446 -0.1132 -0.2717
  297MOL    F6336175   1.785   6.280   2.001  0.7279 -0.1023  0.5019
  297MOL    F6436176   1.810   6.461   2.111 -0.0710 -0.3557 -0.3072
  297MOL    C6536177   1.965   6.402   1.947  0.3731 -0.7115  0.1042
  297MOL    H6636178   2.004   6.316   1.894  1.2426  0.0650 -0.5374
  297MOL    H6736179   2.036   6.464   2.001  0.5821  0.4160 -1.4422
  297MOL    C6836180   1.904   6.494   1.845  1.0222 -0.6604 -0.1011
  297MOL    F6936181   1.866   6.612   1.897  0.3267 -0.2635 -0.2754
  297MOL    F7036182   2.002   6.519   1.763 -1.3076 -0.4731 -0.2193
  297MOL    C7136183   1.784   6.424   1.767  0.0732 -0.1310 -0.1213
  297MOL    H7236184   1.692   6.419   1.824 -2.0699  0.4925 -3.4024
  297MOL    H7336185   1.834   6.332   1.737  1.0477  0.8515 -1.5774
  297MOL    C7436186   1.729   6.498   1.642 -0.3052  0.1144  0.8362
  297MOL    F7536187   1.649   6.412   1.582  0.3036  0.5238 -0.2304
  297MOL    F7636188   1.663   6.611   1.672 -0.0293 -0.1106  0.0423
  297MOL    C7736189   1.842   6.537   1.533  0.3127 -0.0074 -0.0826
  297MOL    H7836190   1.917   6.460   1.513  0.1872 -0.5088  1.3200
  297MOL    H7936191   1.893   6.616   1.588  0.3159  0.9614 -1.4552
  297MOL    C8036192   1.792   6.587   1.399  0.3262 -0.3604  0.5200
  297MOL    F8136193   1.784   6.486   1.315  0.3191 -0.7727 -0.2427
  297MOL    F8236194   1.669   6.642   1.408  0.1762  0.0714  0.3846
  297MOL    C8336195   1.876   6.694   1.327  0.4476  0.0805  0.6566
  297MOL    H8436196   1.813   6.726   1.244 -0.0334 -2.4953  0.0118
  297MOL    H8536197   1.964   6.645   1.287  1.7622  2.0607  1.0657
  297MOL    C8636198   1.916   6.826   1.399 -0.0502 -0.5162 -0.0286
  297MOL    F8736199   1.814   6.886   1.456  0.6347  0.4027  0.3143
  297MOL    F8836200   2.003   6.793   1.490  0.2955  0.0792  0.0291
  297MOL    C8936201   1.983   6.922   1.296 -0.7912  0.7578 -0.0097
  297MOL    H9036202   1.920   6.954   1.214 -0.4729  0.1003 -0.5202
  297MOL    H9136203   2.066   6.873   1.245  0.3743  1.7414  0.9202
  297MOL    C9236204   2.050   7.047   1.354  0.5842  0.4932  0.0736
  297MOL    F9336205   1.961   7.107   1.434  0.0870 -0.3362  0.3314
  297MOL    F9436206   2.162   7.014   1.423  0.4265 -0.2001  0.0014
  297MOL    C9536207   2.094   7.154   1.247 -0.3497  0.5642 -0.3768
  297MOL    H9636208   2.005   7.197   1.202 -0.8502 -0.6399 -0.5518
  297MOL    H9736209   2.139   7.109   1.159 -2.1463  2.6825 -2.4342
  297MOL    C9836210   2.181   7.266   1.302 -0.7053  0.7402  0.4473
  297MOL    F9936211   2.127   7.328   1.406  0.1508  0.3290  0.4101
  297MOL   F10036212   2.292   7.200   1.340  0.4720  0.0760  0.3527
  297MOL   C10136213   2.211   7.371   1.190 -0.2363 -0.3757  1.2013
  297MOL   H10236214   2.118   7.404   1.143 -0.5294  1.2628  2.8864
  297MOL   H10336215   2.264   7.312   1.115 -1.5516  1.3275 -1.1586
  297MOL   C10436216   2.298   7.493   1.225 -0.4105 -0.1580 -0.0376
  297MOL   F10536217   2.227   7.561   1.315  0.4335  0.2175 -0.0862
  297MOL   F10636218   2.410   7.445   1.282 -0.6013 -0.1466 -0.4281
  297MOL   C10736219   2.327   7.596   1.115 -0.2922  0.9003 -0.4241
  297MOL   H10836220   2.234   7.614   1.060 -0.6587 -1.2254 -0.5559
  297MOL   H10936221   2.390   7.546   1.043 -2.3301  0.5026 -1.9787
  297MOL   C11036222   2.400   7.722   1.166 -0.4472 -0.2431  0.1746
  297MOL   F11136223   2.503   7.695   1.250 -0.5757 -0.5194  0.2849
  297MOL   F11236224   2.450   7.787   1.062 -0.2996 -0.6460  0.0277
  297MOL   C11336225   2.308   7.832   1.218  0.2792 -0.3724  0.0597
  297MOL   H11436226   2.369   7.918   1.245 -1.4506  1.1369 -0.7440
  297MOL   H11536227   2.263   7.805   1.313  0.4974 -2.8788 -0.5201
  297MOL   C11636228   2.198   7.889   1.137 -0.4086 -0.5372 -0.3067
  297MOL   F11736229   2.234   7.923   1.010  0.0304 -0.7852  0.2676
  297MOL   F11836230   2.102   7.800   1.139 -0.3513 -0.4762 -0.0298
  297MOL   C11936231   2.141   8.006   1.212 -0.5428 -0.4398 -0.6491
  297MOL   H12036232   2.053   8.047   1.162 -1.3293 -1.6054 -0.2425
  297MOL   H12136233   2.207   8.092   1.226  0.3216 -1.3676  1.1343
  297MOL   H12236234   2.102   7.982   1.311 -0.7744 -0.2624 -0.6979
  298MOL     C136235   1.591   6.386   5.746 -0.1476 -0.2828  0.4335
  298MOL     F236236   1.700   6.342   5.814 -0.3301  0.3088 -0.1077
  298MOL     F336237   1.569   6.299   5.642 -0.3835  0.0882 -0.4830
  298MOL     C436238   1.577   6.530   5.710 -0.2626  0.0950 -0.3801
  298MOL     H536239   1.477   6.543   5.669 -0.3851  0.8544  0.1331
  298MOL     H636240   1.650   6.552   5.632  0.1420  0.2613  0.0407
  298MOL     H736241   1.506   6.376   5.813  1.4435 -0.4566  2.4793
  298MOL     C836242   1.589   6.632   5.819 -0.6541  0.0692 -0.3603
  298MOL     F936243   1.560   6.746   5.755 -0.2141  0.5074 -0.1792
  298MOL    F1036244   1.512   6.604   5.923  0.2845  0.0172  0.4022
  298MOL    C1136245   1.731   6.644   5.874 -0.4681  0.0525 -0.1966
  298MOL    H1236246   1.800   6.634   5.790 -1.0990 -0.2061 -0.6843
  298MOL    H1336247   1.760   6.555   5.931  1.3513  0.9116  0.2758
  298MOL    C1436248   1.759   6.781   5.949  0.2429  0.5433  0.4736
  298MOL    F1536249   1.748   6.878   5.856 -0.4273 -0.3338  0.2633
  298MOL    F1636250   1.672   6.810   6.052  0.1961 -0.0863  0.4474
  298MOL    C1736251   1.898   6.783   6.011  0.1507  0.6328  0.4763
  298MOL    H1836252   1.913   6.890   6.026 -3.1593  1.3775 -1.2439
  298MOL    H1936253   1.974   6.752   5.940 -1.1889  0.3920 -0.8754
  298MOL    C2036254   1.934   6.709   6.149 -0.1820  0.0490  0.5374
  298MOL    F2136255   1.897   6.579   6.136  0.0720  0.0676 -0.3910
  298MOL    F2236256   2.064   6.710   6.151 -0.3623  0.0977 -0.0389
  298MOL    C2336257   1.882   6.759   6.283  0.2070  0.1812  0.4932
  298MOL    H2436258   1.784   6.711   6.291 -0.0650  0.4083 -1.2787
  298MOL    H2536259   1.858   6.865   6.284  0.1568  0.1670  1.9010
  298MOL    C2636260   1.969   6.728   6.404 -0.0051  0.5386  0.4120
  298MOL    F2736261   2.073   6.801   6.395 -0.5006  0.4806  0.0327
  298MOL    F2836262   1.899   6.777   6.506 -0.3983 -0.0333  0.2138
  298MOL    C2936263   2.006   6.577   6.422  0.3740 -0.5942  0.3271
  298MOL    H3036264   2.044   6.536   6.328  1.5451 -0.4171  0.7156
  298MOL    H3136265   1.910   6.528   6.438  1.0608 -1.7235  1.0676
  298MOL    C3236266   2.109   6.547   6.523 -0.4472  0.6167 -0.4754
  298MOL    F3336267   2.217   6.618   6.502 -0.2145  0.2139  0.0844
  298MOL    F3436268   2.061   6.592   6.639 -0.0241  0.3901 -0.3704
  298MOL    C3536269   2.155   6.400   6.535  0.0119  0.2217  0.2929
  298MOL    H3636270   2.202   6.394   6.634  1.1463  2.7478 -0.0532
  298MOL    H3736271   2.213   6.374   6.446 -0.4899  3.5795 -1.0929
  298MOL    C3836272   2.042   6.299   6.549  0.0987  0.4544 -0.0941
  298MOL    F3936273   1.954   6.346   6.631 -0.3907  0.1792  0.2059
  298MOL    F4036274   1.987   6.291   6.431  0.0666  0.1007  0.4599
  298MOL    C4136275   2.095   6.156   6.567  0.6625  0.1936  0.1432
  298MOL    H4236276   2.176   6.154   6.640  1.6743  0.6047 -0.9421
  298MOL    H4336277   2.142   6.121   6.475 -0.5328  1.0120 -0.8049
  298MOL    C4436278   1.981   6.071   6.618 -0.5501 -0.4026  0.1388
  298MOL    F4536279   1.955   6.122   6.735  0.5125  0.2803 -0.0367
  298MOL    F4636280   1.875   6.086   6.537 -0.1272  0.1156 -0.8124
  298MOL    C4736281   2.003   5.920   6.633  0.1270 -0.8751 -0.3335
  298MOL    H4836282   1.923   5.879   6.694  1.0591  0.0149  1.5273
  298MOL    H4936283   2.099   5.906   6.682  1.4188 -0.7549 -2.7134
  298MOL    C5036284   2.011   5.849   6.492 -0.2114  0.1251 -0.8552
  298MOL    F5136285   1.891   5.833   6.449  0.2682  0.1518  0.0720
  298MOL    F5236286   2.086   5.908   6.398  0.5012  0.5732 -0.1110
  298MOL    C5336287   2.064   5.701   6.504  0.3592  0.8493 -0.6198
  298MOL    H5436288   2.048   5.663   6.403 -2.3131  1.0897 -0.3153
  298MOL    H5536289   2.002   5.643   6.573  1.4634 -0.9805 -1.1315
  298MOL    C5636290   2.211   5.671   6.548 -0.8569  0.6419 -0.2323
  298MOL    F5736291   2.307   5.736   6.481  0.3380 -0.5014 -0.0838
  298MOL    F5836292   2.233   5.686   6.678  0.1146  0.1950  0.8121
  298MOL    C5936293   2.241   5.521   6.516  0.2051  1.2012 -0.0831
  298MOL    H6036294   2.217   5.485   6.416  0.1033  0.4219  0.2085
  298MOL    H6136295   2.162   5.471   6.572 -0.5030  0.3315 -1.8224
  298MOL    C6236296   2.370   5.454   6.562 -0.0432 -0.0918  0.3822
  298MOL    F6336297   2.377   5.439   6.694  0.3524 -0.2889  0.2760
  298MOL    F6436298   2.368   5.332   6.510  0.3120 -0.4629 -0.1952
  298MOL    C6536299   2.501   5.518   6.517 -0.0132 -0.1916  0.1759
  298MOL    H6636300   2.486   5.621   6.549  0.5109 -0.3837  1.0353
  298MOL    H6736301   2.512   5.516   6.409  2.7320 -0.3827  0.4356
  298MOL    C6836302   2.635   5.458   6.576 -0.2909 -0.2144  0.4359
  298MOL    F6936303   2.742   5.528   6.512  0.3556  0.2750 -0.0479
  298MOL    F7036304   2.634   5.491   6.705  0.0395  0.3665  0.2652
  298MOL    C7136305   2.647   5.305   6.565 -0.2354  0.3015  0.1215
  298MOL    H7236306   2.614   5.270   6.468 -0.2531  0.5625  0.0337
  298MOL    H7336307   2.582   5.259   6.640  1.4516 -1.2727  0.6689
  298MOL    C7436308   2.789   5.243   6.585  0.5335  0.0379  0.0302
  298MOL    F7536309   2.853   5.297   6.688 -0.1564 -0.1193 -0.0393
  298MOL    F7636310   2.784   5.112   6.600  0.1923  0.2196 -0.3799
  298MOL    C7736311   2.881   5.243   6.453 -0.3923  0.2858 -0.7884
  298MOL    H7836312   2.899   5.344   6.418  1.3900  0.9978  2.0016
  298MOL    H7936313   2.845   5.191   6.364  0.7774  1.8107 -2.1789
  298MOL    C8036314   3.029   5.197   6.492 -0.1634  0.7018  0.0006
  298MOL    F8136315   3.076   5.286   6.586 -0.0959 -0.3244  0.0029
  298MOL    F8236316   3.035   5.078   6.543 -0.1982 -0.2368 -0.2836
  298MOL    C8336317   3.134   5.188   6.375  0.6995  0.5511 -0.0701
  298MOL    H8436318   3.107   5.264   6.302 -2.0645  0.8480  1.1688
  298MOL    H8536319   3.114   5.092   6.326  1.0794 -0.2577  1.3275
  298MOL    C8636320   3.287   5.202   6.413 -0.3690  0.0188  0.7941
  298MOL    F8736321   3.364   5.209   6.302 -0.3104 -0.3730 -0.1296
  298MOL    F8836322   3.304   5.323   6.474  0.2121  0.6417 -0.0214
  298MOL    C8936323   3.328   5.089   6.517 -0.9952 -0.2462 -0.3723
  298MOL    H9036324   3.276   5.002   6.478  0.7788 -2.3161  1.7415
  298MOL    H9136325   3.293   5.116   6.617  0.9638 -0.0917  0.2987
  298MOL    C9236326   3.478   5.055   6.522  0.1368  0.1684 -0.3247
  298MOL    F9336327   3.522   4.992   6.412  0.0624  0.0851 -0.2376
  298MOL    F9436328   3.548   5.173   6.521 -0.2965  0.0192  0.2878
  298MOL    C9536329   3.524   4.985   6.650  0.2595 -0.0391  0.0244
  298MOL    H9636330   3.487   5.035   6.740  1.3702 -2.0713  1.6413
  298MOL    H9736331   3.632   4.979   6.661  0.1171 -1.8394  0.6882
  298MOL    C9836332   3.478   4.832   6.663 -0.9492 -0.2295 -0.6871
  298MOL    F9936333   3.345   4.839   6.668 -0.4504 -0.2995 -0.2344
  298MOL   F10036334   3.507   4.774   6.548 -0.8795  0.3422  0.2043
  298MOL   C10136335   3.540   4.760   6.786  0.1127  0.2107 -0.2481
  298MOL   H10236336   3.526   4.825   6.872 -0.0995  1.3760 -1.1468
  298MOL   H10336337   3.646   4.758   6.760 -0.5038 -1.7781 -2.9063
  298MOL   C10436338   3.492   4.616   6.801  0.2930  0.6231  0.0602
  298MOL   F10536339   3.362   4.615   6.806 -0.2330 -0.1225  0.0234
  298MOL   F10636340   3.522   4.547   6.695 -0.3458 -0.3875  0.3570
  298MOL   C10736341   3.542   4.529   6.914 -0.2721  0.3853 -0.5359
  298MOL   H10836342   3.648   4.510   6.895 -0.2962  0.7003 -0.9966
  298MOL   H10936343   3.489   4.434   6.928 -0.5635  0.2885 -2.1682
  298MOL   C11036344   3.521   4.579   7.058  0.4868 -0.3158 -0.0678
  298MOL   F11136345   3.580   4.484   7.135  0.3184 -0.0626 -0.1617
  298MOL   F11236346   3.595   4.691   7.067  0.3061  0.4221 -0.0253
  298MOL   C11336347   3.376   4.598   7.096  0.2054  0.1977 -0.0577
  298MOL   H11436348   3.327   4.503   7.072  0.2476  0.4337 -1.0922
  298MOL   H11536349   3.336   4.680   7.035  0.0580  1.4289  1.6555
  298MOL   C11636350   3.368   4.639   7.251 -0.5438 -0.0298 -0.1436
  298MOL   F11736351   3.409   4.534   7.325  0.4557 -0.2652  0.1441
  298MOL   F11836352   3.436   4.749   7.278  0.4640  0.1705 -0.1177
  298MOL   C11936353   3.218   4.682   7.283 -0.0414 -0.2463 -0.1427
  298MOL   H12036354   3.199   4.765   7.214 -3.8065 -1.0469 -0.1583
  298MOL   H12136355   3.211   4.714   7.387  0.0890  0.8015 -0.4486
  298MOL   H12236356   3.146   4.603   7.260 -0.6358 -0.1101  1.2010
  299MOL     C136357   4.288   0.145   0.434 -0.0383 -0.2792 -0.2271
  299MOL     F236358   4.318   0.018   0.473 -0.5126 -0.4299  0.4579
  299MOL     F336359   4.361   0.232   0.493 -0.4486  0.0494 -0.6875
  299MOL     C436360   4.144   0.183   0.475  0.7611  0.7249 -0.2192
  299MOL     H536361   4.140   0.291   0.457 -2.5046  0.5771 -0.5700
  299MOL     H636362   4.126   0.168   0.582 -0.9879  2.2272 -0.2815
  299MOL     H736363   4.305   0.147   0.326  1.3751 -1.3280 -0.0466
  299MOL     C836364   4.033   0.094   0.411 -0.4236  0.7566 -0.5577
  299MOL     F936365   4.053   8.324   0.461 -0.6903 -0.0309 -0.1460
  299MOL    F1036366   3.911   0.131   0.454 -0.0896 -0.1251  0.0425
  299MOL    C1136367   4.031   0.080   0.260 -0.0971 -0.5113  0.2238
  299MOL    H1236368   3.955   0.008   0.231 -0.0943 -0.7723  0.8743
  299MOL    H1336369   4.123   0.028   0.232 -0.2408 -0.6104 -0.0658
  299MOL    C1436370   4.016   0.215   0.177  0.0296  0.0591  0.2915
  299MOL    F1536371   3.903   0.277   0.219  0.0449  0.2901 -0.4184
  299MOL    F1636372   4.131   0.289   0.191  0.6214  0.1240 -1.1196
  299MOL    C1736373   4.000   0.195   0.030 -0.1482  0.4238 -0.2139
  299MOL    H1836374   3.919   0.123   0.018  0.5537 -0.5158  0.5293
  299MOL    H1936375   4.084   0.132   0.001 -0.4607 -0.6748  1.1858
  299MOL    C2036376   3.963   0.332   8.307 -0.6915 -1.1007 -0.4929
  299MOL    F2136377   3.842   0.362   8.343  0.9202  0.4927 -0.9110
  299MOL    F2236378   4.052   0.424   8.344 -0.2414 -0.3186  0.3004
  299MOL    C2336379   3.967   0.315   8.150 -0.4002 -0.1615 -0.4691
  299MOL    H2436380   3.904   0.228   8.134 -1.2624  0.2251  0.7821
  299MOL    H2536381   4.070   0.299   8.118 -0.3004 -1.6908  0.6014
  299MOL    C2636382   3.906   0.435   8.075 -0.3707 -0.5307  0.7369
  299MOL    F2736383   3.790   0.476   8.121 -0.3520  0.2111  0.2142
  299MOL    F2836384   3.990   0.537   8.102  0.2670  0.4473 -0.1524
  299MOL    C2936385   3.902   0.428   7.916 -0.1020  0.4389  0.3510
  299MOL    H3036386   4.004   0.410   7.883 -1.1638 -1.8569 -1.8339
  299MOL    H3136387   3.884   0.528   7.874  0.8798  0.8362  0.8531
  299MOL    C3236388   3.813   0.328   7.835 -0.3018  0.2076 -0.1978
  299MOL    F3336389   3.832   0.356   7.710 -0.2424  0.4774 -0.4152
  299MOL    F3436390   3.861   0.206   7.850  0.2941  0.1319 -0.2005
  299MOL    C3536391   3.664   0.326   7.869  0.2359 -0.4377 -0.4052
  299MOL    H3636392   3.619   0.426   7.866  2.3489  0.6124  1.4604
  299MOL    H3736393   3.648   0.300   7.974  0.7035 -0.9479 -0.4582
  299MOL    C3836394   3.570   0.237   7.791 -0.0521 -0.0220  0.4995
  299MOL    F3936395   3.456   0.247   7.855  0.4745  0.0466 -0.0931
  299MOL    F4036396   3.557   0.303   7.676  0.1258 -0.0435  0.5953
  299MOL    C4136397   3.609   0.092   7.771  0.3441 -0.6568 -0.3521
  299MOL    H4236398   3.614   0.039   7.866  0.5347 -1.1111 -0.6079
  299MOL    H4336399   3.710   0.082   7.730  0.5842  3.3642 -0.8693
  299MOL    C4436400   3.502   0.016   7.691 -0.2506 -0.2251  0.6259
  299MOL    F4536401   3.393   8.341   7.758 -0.4540  0.2478  0.0790
  299MOL    F4636402   3.464   0.090   7.582 -0.4207 -0.1229 -0.3158
  299MOL    C4736403   3.561   8.233   7.641 -0.3593  0.4793 -0.2797
  299MOL    H4836404   3.583   8.169   7.726  1.3095  1.4352  0.0223
  299MOL    H4936405   3.655   8.260   7.592  0.9232  0.9075  2.3441
  299MOL    C5036406   3.482   8.159   7.529 -0.2451 -0.3039 -0.1680
  299MOL    F5136407   3.452   8.236   7.428 -0.1249  0.3672  0.2370
  299MOL    F5236408   3.563   8.064   7.495 -0.0643 -0.0119  0.0639
  299MOL    C5336409   3.351   8.088   7.580 -0.3534  0.2328 -0.0604
  299MOL    H5436410   3.284   8.165   7.619  0.5372  0.6134  0.7390
  299MOL    H5536411   3.385   8.026   7.664 -0.9724  2.6043  1.9935
  299MOL    C5636412   3.283   7.983   7.489 -0.2210  0.2223  0.5523
  299MOL    F5736413   3.351   7.870   7.475  0.2915  0.3808  0.0763
  299MOL    F5836414   3.176   7.950   7.559 -0.2979 -0.2746 -0.1866
  299MOL    C5936415   3.251   8.046   7.357  0.3439  0.0663  0.0773
  299MOL    H6036416   3.330   8.023   7.286 -1.7168  0.3240 -2.3711
  299MOL    H6136417   3.247   8.154   7.354 -4.2257  0.0604  2.1246
  299MOL    C6236418   3.123   7.991   7.290 -0.1553 -0.2969  0.4265
  299MOL    F6336419   3.022   8.022   7.373 -0.8706 -0.2706  0.6687
  299MOL    F6436420   3.097   8.051   7.175  0.2091  0.3222  0.1518
  299MOL    C6536421   3.149   7.840   7.260 -0.9140  0.2337  0.1256
  299MOL    H6636422   3.170   7.789   7.354  2.9491  1.4353 -0.0257
  299MOL    H6736423   3.245   7.841   7.208 -2.1482  4.1622 -2.3195
  299MOL    C6836424   3.039   7.766   7.187  0.0078  0.3216 -0.0521
  299MOL    F6936425   2.925   7.775   7.250  0.0966  0.1689  0.4798
  299MOL    F7036426   3.011   7.822   7.071 -0.0872 -0.1974  0.0864
  299MOL    C7136427   3.057   7.612   7.172  0.3743  0.4050  0.5142
  299MOL    H7236428   3.074   7.558   7.265 -1.2564  0.5933  0.9471
  299MOL    H7336429   3.155   7.604   7.126  0.0141 -1.4174  0.0291
  299MOL    C7436430   2.954   7.530   7.088 -0.2659 -0.4387  0.2274
  299MOL    F7536431   2.830   7.559   7.134 -0.4969  0.3196  0.1974
  299MOL    F7636432   2.961   7.567   6.958  0.3859  0.3893 -0.1748
  299MOL    C7736433   2.978   7.376   7.105 -0.5169 -0.2132 -0.2750
  299MOL    H7836434   2.984   7.348   7.210 -2.9728 -1.4000 -0.4294
  299MOL    H7936435   3.078   7.355   7.066 -0.4489 -1.7543  0.6822
  299MOL    C8036436   2.879   7.276   7.050 -0.4036  0.1512 -0.0340
  299MOL    F8136437   2.765   7.315   7.110 -0.0566  0.8124 -0.2954
  299MOL    F8236438   2.844   7.299   6.921  0.5402 -0.6644 -0.2302
  299MOL    C8336439   2.888   7.129   7.097 -0.1436  0.0553  0.6669
  299MOL    H8436440   2.805   7.063   7.074  0.3941 -0.8386  1.2314
  299MOL    H8536441   2.897   7.139   7.206  0.6452  1.1182  0.5134
  299MOL    C8636442   3.010   7.060   7.025 -0.1547  0.3385 -0.6607
  299MOL    F8736443   2.990   7.063   6.897 -0.1279  0.4635  0.2104
  299MOL    F8836444   3.125   7.124   7.057  0.3555  0.4138 -0.3707
  299MOL    C8936445   3.023   6.912   7.051 -0.2436  0.2709 -0.3737
  299MOL    H9036446   3.101   6.869   6.988 -0.2401  2.9846 -2.2683
  299MOL    H9136447   2.930   6.862   7.022 -0.7627  0.9325  0.1428
  299MOL    C9236448   3.059   6.875   7.190  1.1146  0.1908 -0.8292
  299MOL    F9336449   2.965   6.917   7.277 -0.5882  0.2279  0.2644
  299MOL    F9436450   3.051   6.739   7.175 -0.4858 -0.0602  0.4048
  299MOL    C9536451   3.206   6.906   7.242  0.2521 -0.0779 -0.5361
  299MOL    H9636452   3.216   7.015   7.249  1.2523 -0.1624 -0.5864
  299MOL    H9736453   3.271   6.860   7.168  1.2872  2.1986 -1.1168
  299MOL    C9836454   3.236   6.843   7.381 -0.0705 -0.4809 -0.3738
  299MOL    F9936455   3.153   6.895   7.463 -0.2977 -0.5529 -0.2633
  299MOL   F10036456   3.203   6.711   7.377  0.2020  0.2586 -0.5595
  299MOL   C10136457   3.384   6.865   7.430 -0.8137 -0.0600  0.0599
  299MOL   H10236458   3.398   6.973   7.425 -0.6316 -0.0777  0.1783
  299MOL   H10336459   3.447   6.814   7.357  0.2441  0.2626  0.7418
  299MOL   C10436460   3.430   6.820   7.566 -0.0952  1.1576  0.7380
  299MOL   F10536461   3.433   6.687   7.564 -0.1539  0.3733 -0.9112
  299MOL   F10636462   3.556   6.870   7.576  0.1709 -0.0202 -0.0471
  299MOL   C10736463   3.344   6.853   7.690 -0.4931  0.1838 -0.2439
  299MOL   H10836464   3.249   6.799   7.694 -0.5119  0.1773 -0.7334
  299MOL   H10936465   3.319   6.958   7.676  3.0414  1.5078  2.4616
  299MOL   C11036466   3.410   6.852   7.832 -0.2561  0.0439  0.0895
  299MOL   F11136467   3.473   6.970   7.845  0.3152  0.2299  0.0563
  299MOL   F11236468   3.309   6.857   7.909 -0.1263  0.0635 -0.1500
  299MOL   C11336469   3.497   6.729   7.856  0.0334  0.0248 -0.5435
  299MOL   H11436470   3.584   6.732   7.790  0.7607  2.3475  0.4919
  299MOL   H11536471   3.457   6.630   7.834  0.7144  0.1346 -2.3646
  299MOL   C11636472   3.540   6.707   8.001  0.0490 -0.3377  0.2000
  299MOL   F11736473   3.427   6.682   8.072  0.5403  0.4174 -0.3364
  299MOL   F11836474   3.615   6.596   7.997 -0.3717 -0.6022  0.0823
  299MOL   C11936475   3.622   6.821   8.066 -0.3463  0.7356  0.2986
  299MOL   H12036476   3.560   6.908   8.087 -0.0357  1.1626 -0.5197
  299MOL   H12136477   3.700   6.854   7.997  1.5377 -0.6063  1.7461
  299MOL   H12236478   3.664   6.797   8.163  0.8999 -0.9430 -0.6316
  300MOL     C136479   0.192   6.453   6.668 -0.2231 -0.1847 -0.3046
  300MOL     F236480   0.327   6.461   6.672  0.1820 -0.4500 -0.2256
  300MOL     F336481   0.146   6.548   6.591  0.0324  0.0499  0.0540
  300MOL     C436482   0.134   6.472   6.813  0.5185 -0.2887  0.4021
  300MOL     H536483   0.025   6.477   6.822  0.3320 -0.3349 -1.5588
  300MOL     H636484   0.170   6.571   6.841  0.0872  0.3471 -1.1890
  300MOL     H736485   0.166   6.358   6.623 -0.7091  0.2337 -0.9184
  300MOL     C836486   0.169   6.354   6.903 -0.2076 -0.3539 -0.6730
  300MOL     F936487   0.111   6.245   6.853  0.2123  0.1241  0.3577
  300MOL    F1036488   0.296   6.305   6.893  0.2073 -0.1133  0.2401
  300MOL    C1136489   0.139   6.364   7.057  0.2907 -0.4160  0.2125
  300MOL    H1236490   0.165   6.464   7.091  1.5190 -0.7361  0.2404
  300MOL    H1336491   0.198   6.289   7.109  0.0460  0.8526  2.3924
  300MOL    C1436492   8.343   6.321   7.085  0.1064  0.1790  0.5865
  300MOL    F1536493   8.259   6.383   7.002  0.2353 -0.2293 -0.4132
  300MOL    F1636494   8.325   6.189   7.082  0.1038 -0.8150  0.1795
  300MOL    C1736495   8.317   6.357   7.230  0.3588  0.9459 -0.1656
  300MOL    H1836496   8.219   6.317   7.258  0.3362  1.1932  0.1196
  300MOL    H1936497   8.293   6.463   7.243 -3.0130  0.3255 -0.7973
  300MOL    C2036498   0.066   6.305   7.342  0.3619  0.1484  0.3034
  300MOL    F2136499   0.082   6.177   7.314  0.2221  0.6932  0.6623
  300MOL    F2236500   0.187   6.367   7.336 -0.2091  0.1844  0.2464
  300MOL    C2336501   0.008   6.315   7.481 -0.4088 -0.7620  0.9427
  300MOL    H2436502   8.254   6.284   7.487 -0.2036 -1.2253  2.4301
  300MOL    H2536503   0.010   6.421   7.507 -0.4936 -0.5787  0.1906
  300MOL    C2636504   0.107   6.263   7.598  0.4657 -0.0293  0.2444
  300MOL    F2736505   0.092   6.130   7.601  0.0403 -0.4460 -0.0188
  300MOL    F2836506   0.230   6.304   7.584 -0.0446 -0.0683  0.3536
  300MOL    C2936507   0.058   6.318   7.732 -0.1512  0.2989 -0.3039
  300MOL    H3036508   8.300   6.325   7.743 -0.0290 -0.6759  1.8384
  300MOL    H3136509   0.092   6.417   7.764  0.7687 -0.1417  0.1130
  300MOL    C3236510   0.097   6.240   7.864 -0.0246  0.0050  0.2076
  300MOL    F3336511   0.223   6.253   7.887 -0.3424 -0.2204 -0.0455
  300MOL    F3436512   0.030   6.303   7.957  0.1197  0.0789 -0.3654
  300MOL    C3536513   0.061   6.091   7.879 -0.6455 -0.4700 -0.3999
  300MOL    H3636514   0.133   6.036   7.817 -0.0105  2.0351 -1.9434
  300MOL    H3736515   8.311   6.069   7.843 -0.7401  1.0601 -1.0847
  300MOL    C3836516   0.070   6.029   8.017 -0.9683 -0.0363  0.0771
  300MOL    F3936517   8.318   6.084   8.095 -0.0297  0.3899  0.0984
  300MOL    F4036518   0.038   5.897   7.994 -0.2027 -0.0101 -0.2638
  300MOL    C4136519   0.210   6.031   8.084 -0.4605  0.3543 -0.5286
  300MOL    H4236520   0.226   6.136   8.106  1.6542 -0.3502  1.4546
  300MOL    H4336521   0.291   5.990   8.024  0.4545 -0.2348  1.0837
  300MOL    C4436522   0.222   5.957   8.214  0.4049 -0.1968 -0.6388
  300MOL    F4536523   0.146   6.010   8.312  0.4357 -0.1137 -0.1046
  300MOL    F4636524   0.185   5.834   8.198  0.1136 -0.3131  0.2587
  300MOL    C4736525   0.360   5.946   8.272  0.4896  0.0435  0.3648
  300MOL    H4836526   0.415   5.862   8.229 -0.0509  0.5825 -1.3937
  300MOL    H4936527   0.353   5.916   0.027  0.7722 -0.9957  0.0860
  300MOL    C5036528   0.446   6.073   8.278 -0.1504  0.5647 -0.1630
  300MOL    F5136529   0.463   6.117   8.151  0.3175  0.0242  0.1981
  300MOL    F5236530   0.395   6.174   8.348  0.6205  0.3327 -0.5802
  300MOL    C5336531   0.587   6.047   8.334 -0.4697  0.0337  0.1729
  300MOL    H5436532   0.630   6.147   8.341  2.0719 -1.0271  0.1318
  300MOL    H5536533   0.646   5.991   8.262 -0.7447  1.2928 -1.0763
  300MOL    C5636534   0.599   5.994   0.131  0.2820 -0.4027  0.1852
  300MOL    F5736535   0.510   6.061   0.198  0.0519 -0.6635  0.2442
  300MOL    F5836536   0.567   5.866   0.133  0.0096  0.0759 -0.3353
  300MOL    C5936537   0.738   6.017   0.196 -0.3232 -0.2174 -0.1871
  300MOL    H6036538   0.775   6.117   0.171  0.3883 -0.1330  1.1613
  300MOL    H6136539   0.803   5.950   0.140  1.5676  0.7482  0.8368
  300MOL    C6236540   0.754   5.986   0.348 -0.0749  0.5941 -0.3724
  300MOL    F6336541   0.673   6.075   0.416 -0.2216  0.6440 -0.2283
  300MOL    F6436542   0.697   5.870   0.370 -0.1050 -0.0996 -0.1628
  300MOL    C6536543   0.905   5.984   0.383  0.4995 -0.0429  0.1226
  300MOL    H6636544   0.953   6.070   0.337 -0.5097 -0.3482 -1.5496
  300MOL    H6736545   0.961   5.900   0.341  1.1544  0.3173  0.2713
  300MOL    C6836546   0.927   5.971   0.532 -0.3036 -0.6556 -0.1038
  300MOL    F6936547   1.063   5.952   0.548 -0.1561  0.0537 -0.2150
  300MOL    F7036548   0.891   6.084   0.594  0.5752  0.0505  0.4331
  300MOL    C7136549   0.853   5.859   0.598 -0.0264 -0.0847  0.0345
  300MOL    H7236550   0.852   5.771   0.533  2.4055 -0.6607  0.7002
  300MOL    H7336551   0.750   5.892   0.605 -0.7063 -1.8255 -1.3613
  300MOL    C7436552   0.901   5.820   0.744  0.3711  0.1115  0.4385
  300MOL    F7536553   1.021   5.768   0.750  0.4699  0.0149  0.2710
  300MOL    F7636554   0.899   5.927   0.820 -0.2266 -0.1297 -0.1224
  300MOL    C7736555   0.796   5.727   0.802 -0.0597 -0.0474  0.3941
  300MOL    H7836556   0.694   5.758   0.782 -0.4762 -1.7262 -0.1556
  300MOL    H7936557   0.807   5.732   0.910 -2.5404 -2.3647  0.7879
  300MOL    C8036558   0.814   5.576   0.757  0.2489  0.2828  0.1395
  300MOL    F8136559   0.797   5.561   0.627 -0.3633 -0.0299 -0.1237
  300MOL    F8236560   0.934   5.527   0.791 -0.2153  0.0118 -0.1415
  300MOL    C8336561   0.704   5.494   0.829 -0.0211 -0.4274 -0.8497
  300MOL    H8436562   0.602   5.532   0.833 -0.6346 -2.1171 -0.1761
  300MOL    H8536563   0.729   5.482   0.935 -3.3925  0.0694  0.0780
  300MOL    C8636564   0.684   5.353   0.780 -0.5181 -0.1537  0.3875
  300MOL    F8736565   0.809   5.299   0.748  0.1562  0.3261 -0.5974
  300MOL    F8836566   0.639   5.288   0.880 -0.4847  0.2310  0.0820
  300MOL    C8936567   0.583   5.327   0.669 -0.2294 -0.1948 -0.1901
  300MOL    H9036568   0.591   5.381   0.575 -2.3510 -0.7924 -0.7461
  300MOL    H9136569   0.490   5.366   0.708  0.7665  1.7870  0.2549
  300MOL    C9236570   0.558   5.181   0.618  0.5624 -0.4735 -0.3286
  300MOL    F9336571   0.470   5.185   0.521 -0.0781 -0.3418 -0.4688
  300MOL    F9436572   0.669   5.139   0.561 -0.1345 -0.3063  0.1726
  300MOL    C9536573   0.515   5.079   0.722  0.2811 -0.5672 -0.6595
  300MOL    H9636574   0.591   5.077   0.800  1.3979  0.2020 -1.6978
  300MOL    H9736575   0.522   4.986   0.665  3.0408 -1.3040  0.7863
  300MOL    C9836576   0.376   5.102   0.776  0.3571  0.7175 -0.3242
  300MOL    F9936577   0.374   5.218   0.832 -0.1367 -0.0622 -0.4747
  300MOL   F10036578   0.285   5.093   0.672  0.3093  0.0720 -1.1403
  300MOL   C10136579   0.323   5.005   0.887 -0.1961  0.1994  0.4960
  300MOL   H10236580   0.226   5.043   0.915 -0.0318 -0.0259  1.3965
  300MOL   H10336581   0.385   5.026   0.974 -0.1940  0.4706  0.4294
  300MOL   C10436582   0.324   4.859   0.874  0.1731 -0.3265  0.1960
  300MOL   F10536583   0.269   4.823   0.757  0.0803 -0.3355 -0.7253
  300MOL   F10636584   0.446   4.821   0.873 -0.0461  0.6607 -0.0277
  300MOL   C10736585   0.256   4.785   0.980  0.2110 -0.3734 -0.3249
  300MOL   H10836586   0.314   4.809   1.069  3.1813  1.7096 -2.7636
  300MOL   H10936587   0.277   4.680   0.961 -0.3466 -1.2578  3.4673
  300MOL   C11036588   0.110   4.823   1.027  0.3323  0.0782  0.3562
  300MOL   F11136589   0.098   4.950   1.065  0.4990 -0.4192  0.2312
  300MOL   F11236590   0.022   4.805   0.929  0.1163  0.2172 -0.4748
  300MOL   C11336591   0.057   4.739   1.142  0.3406  0.4285 -0.0965
  300MOL   H11436592   8.302   4.759   1.165  0.8960  0.5321  2.5456
  300MOL   H11536593   0.109   4.788   1.225  1.3573  2.0042 -1.6254
  300MOL   C11636594   0.068   4.584   1.133 -0.1664  0.0998  0.6213
  300MOL   F11736595   8.342   4.553   1.029  0.5822 -0.2861  0.0671
  300MOL   F11836596   0.193   4.534   1.122  0.0776 -0.2475 -0.3139
  300MOL   C11936597   0.003   4.534   1.261  0.4662 -0.8295  1.1356
  300MOL   H12036598   8.255   4.583   1.271  0.5451 -0.5918  0.7558
  300MOL   H12136599   0.075   4.546   1.341 -0.9412  2.2514  2.0298
  300MOL   H12236600   8.339   4.426   1.255  0.5078 -0.8280  0.9999
  301MOL     C136601   0.388   5.467   4.963 -0.6007  0.7734 -0.4935
  301MOL     F236602   0.340   5.589   4.961 -0.2142 -0.1888  0.7685
  301MOL     F336603   0.378   5.426   4.836 -0.1615 -0.5040 -0.1579
  301MOL     C436604   0.288   5.391   5.049 -0.4831 -0.5676  0.2410
  301MOL     H536605   0.206   5.368   4.981 -0.2149  1.5831 -0.8484
  301MOL     H636606   0.249   5.452   5.131 -2.0548 -1.3102  0.0614
  301MOL     H736607   0.493   5.466   4.993 -0.7567  1.7140  0.1132
  301MOL     C836608   0.343   5.261   5.098 -0.4098  0.0446 -0.1563
  301MOL     F936609   0.381   5.196   4.987  0.3406  0.0038  0.2609
  301MOL    F1036610   0.445   5.288   5.177 -0.4225  0.8107 -0.1651
  301MOL    C1136611   0.233   5.176   5.167 -0.8334  0.0758  0.4757
  301MOL    H1236612   0.156   5.160   5.092  1.3834 -1.6072 -1.5134
  301MOL    H1336613   0.188   5.242   5.242 -0.4237  1.8945 -0.8315
  301MOL    C1436614   0.269   5.038   5.220  0.1453  0.2701  0.9319
  301MOL    F1536615   0.159   4.970   5.233  0.7494  0.2191  0.0197
  301MOL    F1636616   0.341   4.981   5.120  0.5956  0.4188 -0.2345
  301MOL    C1736617   0.346   5.047   5.357 -0.2058 -0.3334  0.5519
  301MOL    H1836618   0.269   5.077   5.429 -0.2187 -1.3967  0.9861
  301MOL    H1936619   0.421   5.126   5.359  1.9697 -2.2055 -2.8238
  301MOL    C2036620   0.411   4.921   5.406 -0.2050 -0.1469 -0.4631
  301MOL    F2136621   0.522   4.918   5.335  0.2350 -0.1197  0.5796
  301MOL    F2236622   0.435   4.936   5.535  0.5320 -0.0175  0.2666
  301MOL    C2336623   0.330   4.795   5.382  0.4596 -0.2160  0.2973
  301MOL    H2436624   0.282   4.798   5.285  3.5102 -0.0406 -1.2755
  301MOL    H2536625   0.250   4.809   5.454  0.3247 -0.0606  0.1171
  301MOL    C2636626   0.419   4.671   5.402 -0.6359 -0.7410  0.0554
  301MOL    F2736627   0.486   4.671   5.510  0.4050 -0.3369 -0.4038
  301MOL    F2836628   0.340   4.567   5.420  0.0397 -0.3255 -0.3596
  301MOL    C2936629   0.514   4.641   5.287 -0.7096  0.0416  0.3626
  301MOL    H3036630   0.574   4.724   5.252 -0.5383 -0.3182 -0.1873
  301MOL    H3136631   0.451   4.636   5.198  0.9527  3.7171 -1.0936
  301MOL    C3236632   0.589   4.501   5.286 -0.0449  0.6051 -0.0703
  301MOL    F3336633   0.515   4.394   5.325 -0.1435 -0.3927  0.1344
  301MOL    F3436634   0.620   4.481   5.159 -0.3858  0.5190  0.4247
  301MOL    C3536635   0.719   4.507   5.378  0.0915  0.5465 -0.1351
  301MOL    H3636636   0.773   4.412   5.382 -1.8233 -0.6196 -0.8375
  301MOL    H3736637   0.678   4.518   5.478  0.2956 -1.1783  0.1535
  301MOL    C3836638   0.830   4.607   5.351  0.4536 -0.1843  0.2280
  301MOL    F3936639   0.881   4.597   5.224 -0.3102  0.1553 -0.1869
  301MOL    F4036640   0.774   4.722   5.361 -0.5885  0.4086 -0.0330
  301MOL    C4136641   0.936   4.600   5.457 -0.2366 -0.7975  0.3050
  301MOL    H4236642   0.989   4.504   5.448 -1.2337 -1.3157 -0.1221
  301MOL    H4336643   0.894   4.609   5.557  0.1096  2.5627  0.2051
  301MOL    C4436644   1.040   4.720   5.453  0.7106 -0.0098 -0.4755
  301MOL    F4536645   1.101   4.729   5.338  0.1252  0.0710 -0.4829
  301MOL    F4636646   0.964   4.828   5.474  0.0991 -0.0419 -0.2957
  301MOL    C4736647   1.159   4.720   5.556  0.0486  0.4250 -0.1391
  301MOL    H4836648   1.245   4.665   5.518  1.9157  1.5887  2.2574
  301MOL    H4936649   1.119   4.678   5.648  0.3774 -0.4349 -0.3913
  301MOL    C5036650   1.210   4.860   5.588  0.2210 -0.1766  0.3489
  301MOL    F5136651   1.121   4.921   5.660 -0.2281 -0.4832 -0.0878
  301MOL    F5236652   1.313   4.839   5.668 -0.0994  0.5246  0.0746
  301MOL    C5336653   1.272   4.936   5.465  0.9188 -0.6260 -0.2956
  301MOL    H5436654   1.199   4.939   5.384  0.5916 -1.9712 -0.0707
  301MOL    H5536655   1.348   4.870   5.424  1.4779  0.8167 -1.6325
  301MOL    C5636656   1.327   5.080   5.493  0.4774  0.4137  0.1954
  301MOL    F5736657   1.376   5.132   5.380 -0.0128 -0.3925  0.0514
  301MOL    F5836658   1.230   5.163   5.522  0.2620  0.3046  0.0738
  301MOL    C5936659   1.449   5.090   5.590 -0.1260 -0.6264 -0.8842
  301MOL    H6036660   1.419   5.042   5.683 -0.5682  0.3868 -0.5080
  301MOL    H6136661   1.476   5.190   5.623  2.3324 -1.5373  0.0181
  301MOL    C6236662   1.578   5.028   5.529 -0.3873  0.2697 -0.5091
  301MOL    F6336663   1.559   4.908   5.476 -0.0216  0.0589  0.6533
  301MOL    F6436664   1.617   5.100   5.437  0.2479 -0.0182  0.2474
  301MOL    C6536665   1.687   5.013   5.633  0.2172  0.1859  0.0710
  301MOL    H6636666   1.651   4.950   5.714  0.1232  1.1675  0.7969
  301MOL    H6736667   1.693   5.111   5.679  0.0610 -0.6778  1.9564
  301MOL    C6836668   1.826   4.963   5.573 -0.0506 -0.0944 -0.3378
  301MOL    F6936669   1.823   4.831   5.536 -0.5835 -0.1604 -0.0258
  301MOL    F7036670   1.867   5.040   5.472  0.5875  0.1172 -0.2571
  301MOL    C7136671   1.938   4.977   5.678 -0.0667 -0.3937  0.1592
  301MOL    H7236672   1.894   4.950   5.774 -0.0895 -1.6555 -0.1990
  301MOL    H7336673   1.967   5.081   5.691 -2.1327  0.0091  1.9168
  301MOL    C7436674   2.063   4.882   5.653 -0.4339  0.5979 -0.3202
  301MOL    F7536675   2.151   4.937   5.736 -0.0070  0.2334  0.0424
  301MOL    F7636676   2.027   4.763   5.693  0.1404  0.1982  0.4692
  301MOL    C7736677   2.117   4.874   5.508 -0.3852  0.2335 -0.0882
  301MOL    H7836678   2.153   4.972   5.477 -0.2172 -0.8164 -3.3017
  301MOL    H7936679   2.042   4.836   5.439 -1.6544 -0.2880  1.5272
  301MOL    C8036680   2.250   4.797   5.496  0.1546  0.0886 -0.7429
  301MOL    F8136681   2.350   4.855   5.553 -0.4461 -0.5013  0.0630
  301MOL    F8236682   2.212   4.679   5.562  0.1710  0.3530  0.2661
  301MOL    C8336683   2.285   4.778   5.351 -0.4819  0.4605  0.5449
  301MOL    H8436684   2.278   4.866   5.286 -1.2832 -2.1401 -3.0731
  301MOL    H8536685   2.208   4.708   5.319  0.3001  0.2825 -0.9959
  301MOL    C8636686   2.420   4.720   5.325 -0.6118 -0.1047 -0.0226
  301MOL    F8736687   2.432   4.699   5.194 -0.0550  0.2143  0.1596
  301MOL    F8836688   2.522   4.809   5.355 -0.0129  0.4915  0.0043
  301MOL    C8936689   2.435   4.586   5.402  0.3679  0.2541 -0.2325
  301MOL    H9036690   2.356   4.514   5.379  0.0343  0.4175  0.3735
  301MOL    H9136691   2.428   4.617   5.507  0.2248 -1.4917  0.3010
  301MOL    C9236692   2.574   4.515   5.366  0.1864  0.2727  0.6778
  301MOL    F9336693   2.571   4.407   5.442  0.3846 -0.2640  0.0861
  301MOL    F9436694   2.588   4.475   5.232  0.3566 -0.4699 -0.1587
  301MOL    C9536695   2.697   4.600   5.405  0.7566  0.3164 -0.3768
  301MOL    H9636696   2.670   4.649   5.498  0.4309 -1.0835  0.2834
  301MOL    H9736697   2.706   4.679   5.331 -1.6866 -0.7364 -1.8475
  301MOL    C9836698   2.841   4.542   5.416 -0.3763  0.1886 -0.3352
  301MOL    F9936699   2.863   4.485   5.298  0.1841 -0.3794 -0.1322
  301MOL   F10036700   2.926   4.637   5.419 -0.3642 -0.1888  0.0370
  301MOL   C10136701   2.882   4.439   5.527  0.6006 -0.4210 -0.0602
  301MOL   H10236702   2.971   4.396   5.482  0.4892 -1.6743  0.8819
  301MOL   H10336703   2.818   4.351   5.533  1.8681 -1.3202  0.3920
  301MOL   C10436704   2.898   4.492   5.670 -0.0408 -0.0606 -0.0085
  301MOL   F10536705   2.988   4.590   5.664 -0.4575  0.0558  0.3148
  301MOL   F10636706   2.786   4.547   5.714  0.6914 -0.2015  0.2243
  301MOL   C10736707   2.947   4.383   5.769  0.0018 -0.0620 -0.5246
  301MOL   H10836708   3.041   4.339   5.737  0.5488  0.5195  0.3010
  301MOL   H10936709   2.879   4.297   5.762  1.7022 -1.5854  1.3043
  301MOL   C11036710   2.941   4.411   5.921  0.1618 -0.4075  0.0396
  301MOL   F11136711   3.031   4.506   5.965 -0.0846  0.0886  0.5528
  301MOL   F11236712   2.823   4.462   5.943 -0.4667 -0.6932  0.0855
  301MOL   C11336713   2.958   4.286   6.004  0.3099  0.8751 -0.4270
  301MOL   H11436714   3.061   4.248   6.000 -0.3915 -1.0594 -0.7563
  301MOL   H11536715   2.899   4.205   5.961  0.1249 -0.0945  1.5865
  301MOL   C11636716   2.909   4.301   6.151  0.3236  0.6641  0.0294
  301MOL   F11736717   2.964   4.412   6.198  0.0925  0.9270  0.1561
  301MOL   F11836718   2.776   4.307   6.154 -0.2432 -0.7972 -0.3108
  301MOL   C11936719   2.949   4.175   6.237  0.1523  0.9451 -0.8783
  301MOL   H12036720   2.892   4.091   6.197  0.0186 -0.9491  3.0392
  301MOL   H12136721   2.911   4.189   6.338  1.6687 -0.8063 -0.0507
  301MOL   H12236722   3.056   4.158   6.251  0.1136  2.3887  1.3879
  302MOL     C136723   0.750   0.457   2.480 -0.1925  0.0217  0.0842
  302MOL     F236724   0.733   0.431   2.607  0.4363  0.1404  0.2500
  302MOL     F336725   0.636   0.498   2.429 -0.2878 -0.1645  0.2707
  302MOL     C436726   0.794   0.326   2.419 -0.9604  1.1942  0.7054
  302MOL     H536727   0.732   0.246   2.459 -0.3446  0.2367 -0.2533
  302MOL     H636728   0.896   0.305   2.451 -0.9232  0.1113 -0.1187
  302MOL     H736729   0.821   0.539   2.470 -1.3320  0.8599 -1.3296
  302MOL     C836730   0.788   0.326   2.264 -0.1400  0.2706 -0.1655
  302MOL     F936731   0.670   0.369   2.218 -0.0732  0.0206  0.3625
  302MOL    F1036732   0.885   0.396   2.200 -0.4129 -0.7069  0.5724
  302MOL    C1136733   0.807   0.179   2.211 -0.1913 -1.2499  0.5940
  302MOL    H1236734   0.810   0.188   2.103  1.3599  0.3265  0.7330
  302MOL    H1336735   0.724   0.121   2.249 -0.4977 -0.4102  1.2349
  302MOL    C1436736   0.940   0.110   2.246  0.0219  0.0288 -0.0540
  302MOL    F1536737   1.042   0.189   2.207  0.1097  0.0490 -0.3961
  302MOL    F1636738   0.941   0.084   2.374  0.0758 -0.7977 -0.4421
  302MOL    C1736739   0.945   8.324   2.163 -0.0841 -0.0773 -0.3200
  302MOL    H1836740   0.951   8.332   2.055 -0.7506 -1.9769 -0.5272
  302MOL    H1936741   0.848   8.275   2.171  0.0097 -0.2886 -0.4823
  302MOL    C2036742   1.073   8.247   2.212  0.0400  0.0100  0.2530
  302MOL    F2136743   1.182   8.321   2.187  0.0088  0.5583  0.3180
  302MOL    F2236744   1.060   8.230   2.346 -0.1276 -0.8215 -0.1136
  302MOL    C2336745   1.100   8.102   2.156  0.2493 -0.2910 -0.0578
  302MOL    H2436746   1.024   8.030   2.185  1.1882 -1.5844 -0.7691
  302MOL    H2536747   1.188   8.048   2.190  1.0633 -1.2671 -3.5490
  302MOL    C2636748   1.106   8.093   2.005  0.0333 -0.1579  0.4202
  302MOL    F2736749   1.114   7.962   1.976  0.0804  0.0501  0.0949
  302MOL    F2836750   0.984   8.127   1.963  0.5525 -0.2407 -0.1083
  302MOL    C2936751   1.212   8.178   1.934 -0.5957  0.1014  0.3914
  302MOL    H3036752   1.184   8.281   1.957  1.3944  0.5222  0.9734
  302MOL    H3136753   1.198   8.174   1.826 -0.7910  0.2305  0.4103
  302MOL    C3236754   1.363   8.143   1.971 -0.7671 -0.1041  0.0795
  302MOL    F3336755   1.445   8.239   1.920 -0.5430  0.3241  0.3759
  302MOL    F3436756   1.386   8.148   2.106 -0.2689 -0.0341  0.1571
  302MOL    C3536757   1.416   8.010   1.919 -0.3292  0.5773 -0.0001
  302MOL    H3636758   1.394   8.003   1.812  2.7976 -1.0706 -0.6167
  302MOL    H3736759   1.362   7.937   1.978 -1.1838  2.2464  1.3061
  302MOL    C3836760   1.568   7.991   1.925  0.1391  0.1758 -0.3895
  302MOL    F3936761   1.622   8.073   1.836  0.5780  0.5151 -0.2373
  302MOL    F4036762   1.610   8.026   2.044 -0.2081 -0.0743 -0.4058
  302MOL    C4136763   1.619   7.846   1.908  0.0332  0.0560  0.3634
  302MOL    H4236764   1.590   7.792   1.998  0.8225  0.1202  0.6624
  302MOL    H4336765   1.728   7.853   1.911  0.0919 -0.6553  0.0415
  302MOL    C4436766   1.571   7.783   1.775  0.3626  0.1559  1.0303
  302MOL    F4536767   1.445   7.751   1.808 -0.1901 -0.5078 -0.1584
  302MOL    F4636768   1.576   7.864   1.666  0.1622  0.0757  0.4921
  302MOL    C4736769   1.658   7.661   1.738  0.1990  0.3153  0.0821
  302MOL    H4836770   1.658   7.596   1.825 -4.7776 -0.3064 -0.2289
  302MOL    H4936771   1.761   7.691   1.722 -0.1646  1.0959 -0.8367
  302MOL    C5036772   1.613   7.584   1.616  0.7774 -0.7065 -0.2199
  302MOL    F5136773   1.647   7.643   1.501 -0.9070 -0.1367  0.3504
  302MOL    F5236774   1.691   7.479   1.615 -0.0086 -0.5937 -0.5323
  302MOL    C5336775   1.459   7.556   1.614 -0.9446  0.0792  0.3802
  302MOL    H5436776   1.402   7.648   1.620 -0.6723  0.4048 -1.6652
  302MOL    H5536777   1.439   7.490   1.699 -0.3132 -2.2738 -1.2563
  302MOL    C5636778   1.404   7.479   1.492  0.0421 -0.3098 -0.0237
  302MOL    F5736779   1.284   7.442   1.542 -0.3613 -0.4231 -0.1336
  302MOL    F5836780   1.392   7.561   1.393 -0.6716 -0.0627 -0.3914
  302MOL    C5936781   1.485   7.347   1.461 -0.3563 -0.0242  0.0200
  302MOL    H6036782   1.513   7.287   1.547  1.1904  0.2353 -0.2809
  302MOL    H6136783   1.575   7.375   1.407 -1.0958 -0.3210 -1.3870
  302MOL    C6236784   1.410   7.260   1.365 -0.3335 -0.8877  0.1027
  302MOL    F6336785   1.285   7.236   1.410 -0.9873 -0.2155 -0.5565
  302MOL    F6436786   1.402   7.318   1.243  0.3963  0.0457 -0.1133
  302MOL    C6536787   1.488   7.131   1.347  0.1273  0.4425 -0.1202
  302MOL    H6636788   1.447   7.063   1.421  2.3966 -0.0691  0.7249
  302MOL    H6736789   1.592   7.151   1.375 -0.0340  0.1163  0.7186
  302MOL    C6836790   1.481   7.073   1.203 -0.2303 -0.6783  0.6901
  302MOL    F6936791   1.567   7.138   1.134 -0.0786  0.0550  0.0560
  302MOL    F7036792   1.529   6.954   1.228 -0.3035 -0.5519 -0.0092
  302MOL    C7136793   1.341   7.050   1.148  0.7756 -0.8070  0.2428
  302MOL    H7236794   1.286   7.144   1.155  1.4113 -0.4592  0.6249
  302MOL    H7336795   1.280   6.983   1.209 -1.8088  0.1879 -1.1614
  302MOL    C7436796   1.331   7.013   0.995 -0.1194 -0.3232 -0.0726
  302MOL    F7536797   1.202   7.005   0.966  0.3975 -0.2289  0.2320
  302MOL    F7636798   1.380   7.124   0.945  0.2102 -0.3182 -0.1205
  302MOL    C7736799   1.401   6.883   0.958  0.2752 -0.5619 -0.1455
  302MOL    H7836800   1.361   6.804   1.021  0.5902 -0.8368 -0.2846
  302MOL    H7936801   1.508   6.900   0.975  0.3575 -1.0693 -0.1649
  302MOL    C8036802   1.392   6.839   0.808  0.3833  0.5480 -0.3508
  302MOL    F8136803   1.418   6.710   0.799 -0.0711 -0.3055  0.1705
  302MOL    F8236804   1.271   6.858   0.764 -0.0683  0.3720 -0.0961
  302MOL    C8336805   1.479   6.935   0.722  0.4107  0.1493  0.3241
  302MOL    H8436806   1.583   6.935   0.754  0.3969  2.1107  0.4211
  302MOL    H8536807   1.444   7.038   0.725 -1.9567 -0.4528 -3.3635
  302MOL    C8636808   1.486   6.902   0.573 -0.0091  0.2020 -0.3543
  302MOL    F8736809   1.568   6.987   0.515  0.1838  0.4936 -0.0046
  302MOL    F8836810   1.540   6.780   0.560 -0.3142  0.1838  0.1555
  302MOL    C8936811   1.352   6.905   0.494 -0.2594  0.2905  0.4386
  302MOL    H9036812   1.287   6.830   0.540  2.0408 -2.3132 -0.3904
  302MOL    H9136813   1.385   6.876   0.394 -1.6163 -0.3490  0.1553
  302MOL    C9236814   1.282   7.039   0.494  1.1642 -0.1136 -0.5938
  302MOL    F9336815   1.239   7.089   0.610 -0.8648 -0.0067  0.3330
  302MOL    F9436816   1.360   7.140   0.447  0.6275  0.5156  0.0713
  302MOL    C9536817   1.167   7.057   0.397  0.1936  0.3634 -0.2322
  302MOL    H9636818   1.193   7.013   0.300 -1.8155 -1.5359  0.0500
  302MOL    H9736819   1.158   7.164   0.380  1.1930  0.0484 -3.2522
  302MOL    C9836820   1.027   7.006   0.450  0.2838  0.3189 -0.5660
  302MOL    F9936821   0.953   6.996   0.342  0.1134  0.4979 -0.1731
  302MOL   F10036822   1.031   6.887   0.515  0.4332 -0.3352  0.4123
  302MOL   C10136823   0.950   7.106   0.537 -0.1590  0.8465  0.1712
  302MOL   H10236824   0.963   7.211   0.510  0.0281  1.0376  1.0111
  302MOL   H10336825   0.990   7.104   0.638 -1.1921  1.5597  0.6002
  302MOL   C10436826   0.797   7.076   0.563 -0.8740 -0.3878  0.1137
  302MOL   F10536827   0.736   7.081   0.447  0.1260 -0.0168 -0.1155
  302MOL   F10636828   0.790   6.953   0.619  0.1987  0.4624 -0.2614
  302MOL   C10736829   0.727   7.165   0.664  0.5473 -0.3336 -0.0172
  302MOL   H10836830   0.764   7.157   0.766  0.8214  0.8675 -0.0076
  302MOL   H10936831   0.625   7.130   0.673 -0.1703  0.8344 -2.8634
  302MOL   C11036832   0.728   7.316   0.629  0.3068  0.0784  0.2598
  302MOL   F11136833   0.848   7.360   0.630  0.3619 -0.8824  0.3689
  302MOL   F11236834   0.682   7.338   0.504  0.4649  0.0288  0.3700
  302MOL   C11336835   0.642   7.394   0.730 -0.2593 -0.2925  0.5245
  302MOL   H11436836   0.673   7.372   0.832  1.7805 -0.4050 -0.0946
  302MOL   H11536837   0.538   7.364   0.722 -0.5056  1.0512 -1.6276
  302MOL   C11636838   0.666   7.548   0.715 -0.6933 -0.3739  0.7431
  302MOL   F11736839   0.787   7.589   0.741  0.4260 -0.2915 -0.0688
  302MOL   F11836840   0.660   7.574   0.587 -0.2945 -1.2487  0.3008
  302MOL   C11936841   0.555   7.622   0.799 -0.4290 -0.0181  0.2954
  302MOL   H12036842   0.581   7.608   0.904 -0.4595  0.4051  0.3583
  302MOL   H12136843   0.451   7.591   0.788  0.1109 -1.5787 -0.5445
  302MOL   H12236844   0.563   7.728   0.777 -0.6326  0.0732  0.6443
  303MOL     C136845   2.423   6.009   6.758  0.4864 -1.0911  0.2920
  303MOL     F236846   2.399   6.140   6.782 -0.4683  0.2011  0.1071
  303MOL     F336847   2.433   5.947   6.873  0.5138  0.4648 -0.3188
  303MOL     C436848   2.547   6.005   6.661 -0.0416  0.2087  0.0230
  303MOL     H536849   2.565   5.899   6.644  1.0339  0.5196 -0.8291
  303MOL     H636850   2.640   6.047   6.697  1.4268 -1.2606 -1.9360
  303MOL     H736851   2.336   5.960   6.715 -0.6392 -0.2928  1.6292
  303MOL     C836852   2.511   6.051   6.519  0.4404 -0.3003 -0.1038
  303MOL     F936853   2.390   5.995   6.492  0.7669 -0.0845 -0.4302
  303MOL    F1036854   2.503   6.188   6.526  0.0718  0.5654 -0.6291
  303MOL    C1136855   2.621   6.003   6.423 -0.9411 -0.0783  0.9333
  303MOL    H1236856   2.637   5.896   6.436  1.4301  0.2374  0.8084
  303MOL    H1336857   2.708   6.058   6.460 -1.0944 -0.0147  1.2041
  303MOL    C1436858   2.600   6.034   6.275  0.6599 -0.1453 -0.3381
  303MOL    F1536859   2.492   5.978   6.220 -0.0451  0.1290  0.0301
  303MOL    F1636860   2.583   6.160   6.277  0.1022 -0.2729  0.0343
  303MOL    C1736861   2.730   6.012   6.186  0.5293 -0.0564  0.0051
  303MOL    H1836862   2.812   6.074   6.224  1.3289 -1.5974  0.8587
  303MOL    H1936863   2.707   6.054   6.089  0.4588 -1.4603 -0.5963
  303MOL    C2036864   2.780   5.866   6.167 -0.6963  0.1622  0.3344
  303MOL    F2136865   2.890   5.878   6.089 -0.2048  0.3468  0.4611
  303MOL    F2236866   2.823   5.821   6.282  0.3527  0.7397 -0.8791
  303MOL    C2336867   2.683   5.758   6.100 -0.1519 -0.3741 -0.1194
  303MOL    H2436868   2.663   5.796   5.999 -0.2142  1.2329  0.4840
  303MOL    H2536869   2.592   5.757   6.159  0.1303 -1.3337  0.3147
  303MOL    C2636870   2.727   5.609   6.088  0.6062 -0.1650  0.1965
  303MOL    F2736871   2.843   5.615   6.020  0.2724 -0.0149  0.0813
  303MOL    F2836872   2.754   5.565   6.208  0.4031  0.0472 -0.9037
  303MOL    C2936873   2.641   5.499   6.011  0.6804 -0.4070 -0.1098
  303MOL    H3036874   2.699   5.421   5.961 -2.0951 -0.9748 -2.5917
  303MOL    H3136875   2.596   5.560   5.933 -0.8936 -0.2663  0.8725
  303MOL    C3236876   2.535   5.435   6.099  0.3529  0.2702 -0.2641
  303MOL    F3336877   2.603   5.373   6.194 -0.2719 -0.2285  0.1573
  303MOL    F3436878   2.465   5.536   6.159  0.0706 -0.1764 -0.3678
  303MOL    C3536879   2.443   5.330   6.028 -0.1369  0.3670  0.1328
  303MOL    H3636880   2.505   5.258   5.975 -2.0455 -1.7412  0.6375
  303MOL    H3736881   2.367   5.377   5.966  1.2365  0.8172 -1.2194
  303MOL    C3836882   2.349   5.250   6.120  0.0143 -0.1774  0.1990
  303MOL    F3936883   2.429   5.187   6.210 -0.1782  0.2156 -0.2714
  303MOL    F4036884   2.259   5.324   6.178 -0.1950 -0.3283  0.0492
  303MOL    C4136885   2.279   5.126   6.053 -0.1078 -0.6627  0.4659
  303MOL    H4236886   2.335   5.085   5.969 -0.8221 -0.2735 -0.1961
  303MOL    H4336887   2.205   5.167   5.985  0.8238  1.2969  0.5675
  303MOL    C4436888   2.229   5.012   6.141 -0.2449  0.6441  0.2329
  303MOL    F4536889   2.154   4.933   6.057  0.7868 -0.3497 -0.0547
  303MOL    F4636890   2.331   4.945   6.198 -0.2677  0.2923  0.3467
  303MOL    C4736891   2.143   5.058   6.261 -0.4750  1.7482  0.7971
  303MOL    H4836892   2.067   5.133   6.237  0.1762  3.2540  3.2577
  303MOL    H4936893   2.213   5.112   6.324  0.7110  0.5221  0.5332
  303MOL    C5036894   2.079   4.953   6.343  0.0123 -0.2404  1.0184
  303MOL    F5136895   1.989   4.885   6.270  0.3834  0.5953 -0.2074
  303MOL    F5236896   2.166   4.859   6.382  0.0375 -0.2086  0.4137
  303MOL    C5336897   2.014   4.987   6.478  0.0713  0.2015 -0.6034
  303MOL    H5436898   2.092   5.044   6.529  0.1192  0.1168 -0.5806
  303MOL    H5536899   1.994   4.901   6.541  0.7227  1.2994  1.1426
  303MOL    C5636900   1.895   5.080   6.474  0.8498  0.2001  0.3329
  303MOL    F5736901   1.939   5.192   6.423  0.4449 -0.0839 -0.0521
  303MOL    F5836902   1.798   5.033   6.397  0.2889 -0.1035 -0.0059
  303MOL    C5936903   1.815   5.112   6.599 -0.1264  0.2972 -0.5749
  303MOL    H6036904   1.764   5.023   6.637 -1.4505  0.8333 -1.0821
  303MOL    H6136905   1.746   5.190   6.569 -0.2067  0.6846  0.5702
  303MOL    C6236906   1.895   5.171   6.716 -0.1245 -0.0007  0.8213
  303MOL    F6336907   2.009   5.114   6.758  0.1337  0.2050 -0.6706
  303MOL    F6436908   1.932   5.294   6.674 -0.7728 -0.2623 -0.2967
  303MOL    C6536909   1.804   5.193   6.839 -0.8258 -0.1132 -0.4778
  303MOL    H6636910   1.713   5.247   6.810 -0.6680 -0.5531 -1.8174
  303MOL    H6736911   1.862   5.259   6.904  1.9056 -3.4973  0.6418
  303MOL    C6836912   1.768   5.056   6.902 -0.6196  0.3314 -0.4154
  303MOL    F6936913   1.680   4.988   6.833 -0.7635  0.5621  0.3927
  303MOL    F7036914   1.887   4.981   6.919  0.5184 -0.2815 -0.3104
  303MOL    C7136915   1.699   5.079   7.040  1.0885 -0.2261 -0.8398
  303MOL    H7236916   1.627   5.160   7.036 -0.4026 -1.3949  1.2107
  303MOL    H7336917   1.773   5.124   7.106  0.5394 -1.5114  0.6775
  303MOL    C7436918   1.657   4.956   7.132  0.1383 -0.0699 -0.0323
  303MOL    F7536919   1.767   4.880   7.157  0.5377  0.1755 -0.0425
  303MOL    F7636920   1.604   4.991   7.245  0.8408 -0.1880 -0.8244
  303MOL    C7736921   1.545   4.866   7.068  0.1707  0.7732  0.1246
  303MOL    H7836922   1.548   4.871   6.959 -1.0763  1.5417  0.1264
  303MOL    H7936923   1.450   4.915   7.090 -0.1538  1.0358 -1.8330
  303MOL    C8036924   1.521   4.720   7.119 -0.2309 -0.3299  0.1255
  303MOL    F8136925   1.497   4.713   7.253  0.0783 -0.2952 -0.3274
  303MOL    F8236926   1.416   4.677   7.044 -0.1516  0.2557 -0.8190
  303MOL    C8336927   1.628   4.606   7.098  0.2000 -0.0671  0.3113
  303MOL    H8436928   1.566   4.521   7.127  0.7075 -0.6233 -0.2258
  303MOL    H8536929   1.697   4.642   7.174 -0.4053  0.7171  0.5035
  303MOL    C8636930   1.695   4.596   6.956 -0.2532  0.7250  0.3453
  303MOL    F8736931   1.588   4.583   6.872 -0.2940  0.2136  0.4590
  303MOL    F8836932   1.750   4.721   6.928  0.4339 -0.3264 -0.3518
  303MOL    C8936933   1.793   4.478   6.938  0.2825 -0.0869 -0.1984
  303MOL    H9036934   1.748   4.388   6.980 -0.6522  0.7349  0.5759
  303MOL    H9136935   1.876   4.485   7.009  0.1006 -1.2148  0.1438
  303MOL    C9236936   1.835   4.434   6.792  0.7439 -0.4694 -1.1002
  303MOL    F9336937   1.939   4.361   6.816  0.0917  0.4521  0.1070
  303MOL    F9436938   1.737   4.370   6.736 -0.2864  0.0955  0.5735
  303MOL    C9536939   1.879   4.562   6.713  0.2287  0.5220 -0.1557
  303MOL    H9636940   1.951   4.633   6.753 -0.3715  0.6978  0.6234
  303MOL    H9736941   1.795   4.630   6.698  1.1864  1.6517 -0.5455
  303MOL    C9836942   1.913   4.537   6.567 -0.4956 -0.3523  0.1440
  303MOL    F9936943   1.817   4.476   6.499 -0.5947  0.1727 -0.2219
  303MOL   F10036944   1.944   4.653   6.513 -0.1739 -0.1121 -0.2862
  303MOL   C10136945   2.039   4.454   6.543 -0.4379 -0.1414  0.1757
  303MOL   H10236946   2.025   4.356   6.590  1.2097 -1.5974 -2.2516
  303MOL   H10336947   2.122   4.501   6.596 -1.3116  0.3257  1.1345
  303MOL   C10436948   2.090   4.421   6.404 -0.1368  0.4918  0.2842
  303MOL   F10536949   2.194   4.337   6.419  0.3859  0.4025  0.1204
  303MOL   F10636950   1.996   4.347   6.346  0.1150 -0.1913  0.2224
  303MOL   C10736951   2.133   4.546   6.318 -0.0715  0.3213 -0.1036
  303MOL   H10836952   2.205   4.601   6.378  0.0334  0.6679 -0.5420
  303MOL   H10936953   2.052   4.618   6.305  0.7678  1.2904  0.0561
  303MOL   C11036954   2.186   4.518   6.178 -0.5618  0.3845  0.6284
  303MOL   F11136955   2.279   4.417   6.185  0.9696  0.7750 -0.0812
  303MOL   F11236956   2.077   4.478   6.107  0.1462 -0.2565  0.0882
  303MOL   C11336957   2.261   4.632   6.108 -0.3471 -0.1613 -0.0069
  303MOL   H11436958   2.366   4.634   6.137 -1.1062 -2.1964  3.1370
  303MOL   H11536959   2.212   4.726   6.135 -1.8504 -1.0700  0.5433
  303MOL   C11636960   2.259   4.637   5.960  0.3675 -0.0079  0.4146
  303MOL   F11736961   2.322   4.525   5.915  0.2994  0.0773  0.0496
  303MOL   F11836962   2.136   4.647   5.908 -0.0863  0.4026 -0.1627
  303MOL   C11936963   2.350   4.741   5.900 -0.2695 -0.3253  1.1850
  303MOL   H12036964   2.450   4.747   5.942  0.8866  0.8151 -1.5590
  303MOL   H12136965   2.297   4.836   5.899  0.1442 -0.0653 -1.6006
  303MOL   H12236966   2.369   4.718   5.795 -0.5517  1.7582  0.6669
  304MOL     C136967   3.713   3.561   5.736 -0.4572  0.1907 -0.0722
  304MOL     F236968   3.615   3.592   5.827  0.2575  0.3379 -0.2567
  304MOL     F336969   3.692   3.437   5.707  0.7845 -0.6485  0.7424
  304MOL     C436970   3.844   3.579   5.797 -0.4399 -0.9134  0.1630
  304MOL     H536971   3.907   3.497   5.761 -0.9790 -0.1810 -2.5114
  304MOL     H636972   3.831   3.576   5.905  0.0247  1.7271  0.3196
  304MOL     H736973   3.702   3.625   5.649 -1.1996 -1.3802 -1.1529
  304MOL     C836974   3.905   3.717   5.771 -0.3383  0.4045  0.1979
  304MOL     F936975   3.929   3.711   5.636  0.0154 -0.2246  0.0243
  304MOL    F1036976   3.815   3.814   5.790 -0.3601  0.1720  0.0382
  304MOL    C1136977   4.028   3.752   5.863 -0.4509 -0.2749 -0.5535
  304MOL    H1236978   4.106   3.675   5.865  1.0602  1.2384  0.2040
  304MOL    H1336979   4.001   3.764   5.968 -1.3127  0.4947 -0.8580
  304MOL    C1436980   4.094   3.890   5.804  0.2689  0.7306  0.1648
  304MOL    F1536981   3.998   3.982   5.805  0.3877 -0.5531  0.1738
  304MOL    F1636982   4.191   3.928   5.895  0.0531  0.2372  0.0704
  304MOL    C1736983   4.156   3.898   5.663 -0.2966  0.5160 -0.4978
  304MOL    H1836984   4.085   3.878   5.582 -2.0606 -0.4491  1.2256
  304MOL    H1936985   4.221   3.811   5.668  1.9276  2.1994  0.6765
  304MOL    C2036986   4.245   4.010   5.626 -0.2173 -0.2754 -0.2204
  304MOL    F2136987   4.163   4.113   5.627 -0.2145 -0.0276  0.6209
  304MOL    F2236988   4.334   4.021   5.720 -0.0333 -0.2529 -0.7724
  304MOL    C2336989   4.314   3.989   5.487 -0.5375  0.1164  0.4775
  304MOL    H2436990   4.242   4.000   5.406 -0.4475  2.7838  0.7039
  304MOL    H2536991   4.363   3.892   5.479 -1.4270 -0.2904 -0.1590
  304MOL    C2636992   4.424   4.082   5.455 -0.5675 -0.2303  0.2042
  304MOL    F2736993   4.535   4.031   5.501 -0.4993  0.6164  0.0138
  304MOL    F2836994   4.435   4.076   5.325 -0.7588 -0.2930  0.0374
  304MOL    C2936995   4.409   4.233   5.497 -0.0133  0.5568  0.1085
  304MOL    H3036996   4.438   4.239   5.601  3.5975 -0.8103 -0.7553
  304MOL    H3136997   4.307   4.270   5.488 -1.0225 -2.5262 -2.2078
  304MOL    C3236998   4.486   4.335   5.417  0.7194 -0.1014  0.3550
  304MOL    F3336999   4.611   4.299   5.408 -0.3262 -0.1198  0.2657
  304MOL    F3437000   4.446   4.356   5.293  0.0292  0.0744  0.2601
  304MOL    C3537001   4.483   4.470   5.497  0.2309  0.6118  0.2941
  304MOL    H3637002   4.572   4.526   5.469  0.8188 -0.8928 -0.8924
  304MOL    H3737003   4.488   4.447   5.604  1.0132 -1.3171 -0.1437
  304MOL    C3837004   4.362   4.563   5.466 -0.3087 -0.2487 -1.4228
  304MOL    F3937005   4.338   4.570   5.337 -0.3249  0.5017  0.0834
  304MOL    F4037006   4.255   4.501   5.527  0.0327 -0.3743  0.3067
  304MOL    C4137007   4.379   4.703   5.524  0.1095  0.2204  0.2957
  304MOL    H4237008   4.304   4.776   5.496 -1.4066 -1.9040 -1.3241
  304MOL    H4337009   4.471   4.748   5.487  0.4038  0.3348  1.1362
  304MOL    C4437010   4.399   4.719   5.677  0.4422 -0.0061  0.5170
  304MOL    F4537011   4.310   4.637   5.737  0.3656  0.0032  0.4446
  304MOL    F4637012   4.527   4.682   5.692  0.3803 -0.4972  0.6262
  304MOL    C4737013   4.387   4.865   5.720  0.5935 -0.4472 -0.2460
  304MOL    H4837014   4.284   4.898   5.713  1.3044  1.9363  0.1079
  304MOL    H4937015   4.446   4.928   5.654  0.0902 -0.4626 -0.7135
  304MOL    C5037016   4.418   4.886   5.873  0.0241  0.1778 -0.0748
  304MOL    F5137017   4.550   4.860   5.897 -0.2851 -0.2351 -0.4993
  304MOL    F5237018   4.389   5.012   5.904 -0.3348 -0.1333  0.1549
  304MOL    C5337019   4.326   4.803   5.973  0.3186  0.2510  0.3522
  304MOL    H5437020   4.354   4.698   5.974 -0.5126  0.0178  3.3404
  304MOL    H5537021   4.224   4.803   5.935  0.0182 -1.3150  1.1214
  304MOL    C5637022   4.323   4.841   6.122 -0.4394  0.1692 -0.2367
  304MOL    F5737023   4.274   4.962   6.140 -0.2474 -0.2500  0.7114
  304MOL    F5837024   4.236   4.759   6.186 -0.6224  0.4871  0.1156
  304MOL    C5937025   4.468   4.832   6.176  0.3741  0.3583 -0.1698
  304MOL    H6037026   4.540   4.903   6.135  1.1587 -0.4266 -0.1793
  304MOL    H6137027   4.509   4.732   6.162  0.2839  0.1156  1.2216
  304MOL    C6237028   4.473   4.877   6.325 -0.2877 -0.2030 -0.0483
  304MOL    F6337029   4.467   5.009   6.324  0.2789 -0.0006 -0.0502
  304MOL    F6437030   4.367   4.836   6.400  0.0112  0.0202  0.1454
  304MOL    C6537031   4.599   4.827   6.402  0.1133 -0.0247 -0.0864
  304MOL    H6637032   4.684   4.845   6.336  0.3982  0.6875  0.4661
  304MOL    H6737033   4.587   4.727   6.442 -0.2739  0.2167  0.4086
  304MOL    C6837034   4.623   4.912   6.526  0.1365  0.0917  0.2303
  304MOL    F6937035   4.657   5.039   6.494 -0.3360 -0.5277  0.1371
  304MOL    F7037036   4.516   4.912   6.604 -0.2834  0.0728 -0.0618
  304MOL    C7137037   4.740   4.858   6.604  0.2814  0.4166 -0.6829
  304MOL    H7237038   4.823   4.851   6.535  0.9574 -1.7206  0.2997
  304MOL    H7337039   4.703   4.763   6.644  0.4348  1.0646  1.0644
  304MOL    C7437040   4.780   4.937   6.729 -0.1672  0.4923  0.2985
  304MOL    F7537041   4.801   5.062   6.689  0.3822  0.1292 -0.9547
  304MOL    F7637042   4.682   4.941   6.822  0.2784 -0.4708  0.4191
  304MOL    C7737043   4.916   4.899   6.793 -1.0325  0.0458  0.1321
  304MOL    H7837044   4.929   4.959   6.883 -2.8191  0.0848  0.3761
  304MOL    H7937045   4.999   4.933   6.731 -1.5364 -2.0993 -1.7777
  304MOL    C8037046   4.929   4.747   6.826 -0.2598 -0.0209 -0.7380
  304MOL    F8137047   4.919   4.666   6.723 -0.5548 -0.3631 -0.3392
  304MOL    F8237048   5.052   4.731   6.870 -0.6725  0.0333  0.1660
  304MOL    C8337049   4.829   4.708   6.933  0.1352 -0.8121  0.4595
  304MOL    H8437050   4.727   4.734   6.907  0.5072 -2.0218 -2.4134
  304MOL    H8537051   4.853   4.776   7.015 -0.9300  0.0377  0.0805
  304MOL    C8637052   4.842   4.561   6.978 -0.4408  0.0351 -0.7433
  304MOL    F8737053   4.801   4.490   6.875 -0.1577  0.5504 -0.0306
  304MOL    F8837054   4.965   4.530   7.020 -0.3918  0.3053 -0.4299
  304MOL    C8937055   4.752   4.526   7.102 -0.1451  0.5489 -0.1216
  304MOL    H9037056   4.729   4.419   7.097 -0.8423  0.6150  1.5535
  304MOL    H9137057   4.657   4.575   7.080  0.7508  1.8825 -1.0707
  304MOL    C9237058   4.808   4.566   7.243  0.2575  0.2343  0.0213
  304MOL    F9337059   4.915   4.493   7.273 -0.1197  0.3708  0.3013
  304MOL    F9437060   4.838   4.694   7.248 -0.0730 -0.2525  0.8537
  304MOL    C9537061   4.709   4.554   7.369  0.3285 -0.2659 -0.4704
  304MOL    H9637062   4.653   4.461   7.357  1.9935 -1.2433 -0.9768
  304MOL    H9737063   4.640   4.637   7.363 -0.1241 -0.5984  0.1174
  304MOL    C9837064   4.751   4.539   7.511  0.1260  0.1462  0.5463
  304MOL    F9937065   4.647   4.516   7.586 -0.0518  0.3416 -0.8434
  304MOL   F10037066   4.822   4.431   7.522 -0.1497 -0.0268 -0.3585
  304MOL   C10137067   4.837   4.645   7.565  0.6625 -0.8760  0.0449
  304MOL   H10237068   4.789   4.741   7.546 -1.8570 -1.9524  0.7946
  304MOL   H10337069   4.928   4.647   7.505  0.7337  4.4589  0.0380
  304MOL   C10437070   4.876   4.624   7.715 -0.4332 -0.7474 -0.8476
  304MOL   F10537071   4.769   4.640   7.794 -0.4871  0.2098  0.4135
  304MOL   F10637072   4.927   4.500   7.734 -0.1157  0.1677 -0.2791
  304MOL   C10737073   4.980   4.723   7.768  0.3163 -0.1731  0.2571
  304MOL   H10837074   4.938   4.824   7.761  0.0406 -0.3756 -1.4285
  304MOL   H10937075   5.064   4.722   7.698 -1.0392 -2.2381 -1.4196
  304MOL   C11037076   5.030   4.700   7.909 -0.3142  0.4452  0.6712
  304MOL   F11137077   4.919   4.714   7.982  0.6803  0.1975 -0.4044
  304MOL   F11237078   5.070   4.570   7.926  0.4774 -0.1130 -0.2096
  304MOL   C11337079   5.133   4.805   7.954 -0.2790 -0.2209 -0.2032
  304MOL   H11437080   5.153   4.773   8.057  1.6623 -0.8219 -0.7269
  304MOL   H11537081   5.086   4.903   7.951  2.1725  0.9677 -1.5488
  304MOL   C11637082   5.267   4.817   7.873 -0.4641  0.2002 -0.4128
  304MOL   F11737083   5.252   4.880   7.758 -0.4145 -0.4539 -0.5846
  304MOL   F11837084   5.343   4.908   7.944  0.2706  0.8968 -0.2324
  304MOL   C11937085   5.350   4.689   7.850  0.2376 -0.1350 -0.5613
  304MOL   H12037086   5.305   4.622   7.776  0.1900  1.2106 -1.7676
  304MOL   H12137087   5.358   4.622   7.936 -1.0633 -1.5484 -1.5226
  304MOL   H12237088   5.445   4.725   7.812  0.0993 -0.4502 -1.2132
  305MOL     C137089   3.861   0.967   3.248  0.5879  0.4011  0.7246
  305MOL     F237090   3.802   1.050   3.332  0.3298  0.3268 -0.8341
  305MOL     F337091   3.892   0.860   3.322 -0.0689 -0.4173 -0.2105
  305MOL     C437092   3.976   1.052   3.189 -0.0046 -0.0243 -0.1274
  305MOL     H537093   3.924   1.120   3.122 -0.5088  0.4601  0.7389
  305MOL     H637094   4.038   0.984   3.130  3.9257  1.5091  2.0053
  305MOL     H737095   3.790   0.927   3.175  0.4653  1.8075  0.0724
  305MOL     C837096   4.067   1.129   3.295 -0.2217 -0.6968 -0.2436
  305MOL     F937097   4.114   1.050   3.385  0.0791  0.2417  0.0901
  305MOL    F1037098   4.166   1.172   3.227  0.1247  0.1598 -0.1584
  305MOL    C1137099   4.014   1.259   3.361 -0.3677  0.4565 -0.1819
  305MOL    H1237100   3.929   1.219   3.415  2.2547 -2.3213  2.0434
  305MOL    H1337101   3.977   1.322   3.280  0.3206  0.6444 -0.3604
  305MOL    C1437102   4.110   1.333   3.470  0.1999 -0.1647  0.5166
  305MOL    F1537103   4.132   1.257   3.580 -0.0251  0.1108  0.3390
  305MOL    F1637104   4.229   1.351   3.414  0.6673  0.6684  0.3015
  305MOL    C1737105   4.054   1.471   3.513  0.3969  0.0847  0.1729
  305MOL    H1837106   4.033   1.512   3.414  1.1482 -1.0364 -0.4613
  305MOL    H1937107   4.130   1.534   3.559  0.5704 -0.1044  0.1450
  305MOL    C2037108   3.930   1.477   3.597  0.2496  0.2219  0.4759
  305MOL    F2137109   3.833   1.406   3.542  0.4194 -0.2385  0.2127
  305MOL    F2237110   3.956   1.425   3.716 -0.0436  0.0707 -0.5349
  305MOL    C2337111   3.888   1.626   3.607 -0.7345  0.0212  0.2274
  305MOL    H2437112   3.853   1.668   3.512 -0.3901 -2.4644 -1.0299
  305MOL    H2537113   3.977   1.686   3.621 -0.7803  0.2936 -0.6204
  305MOL    C2637114   3.777   1.652   3.705 -0.8948 -0.1133  0.1228
  305MOL    F2737115   3.669   1.581   3.675 -0.0024  0.0411  0.0182
  305MOL    F2837116   3.817   1.611   3.824  0.5969 -0.1121  0.7647
  305MOL    C2937117   3.717   1.796   3.719  0.2025 -0.4217  0.6008
  305MOL    H3037118   3.630   1.784   3.783  0.4878 -0.6675  0.9422
  305MOL    H3137119   3.669   1.817   3.623 -2.6298  0.3462  2.1619
  305MOL    C3237120   3.814   1.912   3.743 -0.4566  0.1036  0.1691
  305MOL    F3337121   3.886   1.880   3.852 -0.3361 -0.6455 -0.2584
  305MOL    F3437122   3.894   1.921   3.637 -0.0404  0.9112  0.5950
  305MOL    C3537123   3.739   2.049   3.765  0.0212  0.4419 -0.2048
  305MOL    H3637124   3.675   2.046   3.853  0.1104  1.1519 -0.1090
  305MOL    H3737125   3.663   2.055   3.687  0.6103 -1.3116 -0.9496
  305MOL    C3837126   3.826   2.166   3.782 -0.4012 -0.0690 -0.3275
  305MOL    F3937127   3.755   2.277   3.802  0.1675 -0.5515 -0.2804
  305MOL    F4037128   3.892   2.143   3.893  0.2594  0.2369 -0.1044
  305MOL    C4137129   3.925   2.200   3.670 -0.3967  0.6967  0.1078
  305MOL    H4237130   3.872   2.179   3.577  4.1873 -0.5820 -2.3904
  305MOL    H4337131   4.010   2.131   3.669 -2.8675 -2.4842  2.0130
  305MOL    C4437132   3.965   2.350   3.659  0.2606  0.4645  0.1913
  305MOL    F4537133   3.869   2.427   3.618  0.1789 -0.2981 -0.7760
  305MOL    F4637134   4.009   2.390   3.779 -0.2005 -0.0330 -0.7186
  305MOL    C4737135   4.086   2.381   3.571  0.6525 -0.3948  0.2248
  305MOL    H4837136   4.172   2.323   3.606  0.1307 -1.3416 -0.0236
  305MOL    H4937137   4.097   2.488   3.582  0.0295 -0.5634  2.7771
  305MOL    C5037138   4.078   2.355   3.412 -0.5152 -1.0865  0.7783
  305MOL    F5137139   4.043   2.229   3.392  0.0652  0.1304  0.3633
  305MOL    F5237140   3.987   2.433   3.357 -0.0888 -0.2762 -0.3881
  305MOL    C5337141   4.217   2.378   3.335  0.4818 -0.1693 -0.4723
  305MOL    H5437142   4.294   2.312   3.377  0.0759  0.1426  0.7640
  305MOL    H5537143   4.265   2.474   3.354  1.1541 -0.2356 -1.7442
  305MOL    C5637144   4.223   2.343   3.193 -0.1066 -0.0885  0.7695
  305MOL    F5737145   4.350   2.343   3.159 -0.3353 -0.2814 -0.1107
  305MOL    F5837146   4.179   2.225   3.183  0.5045 -0.1318  0.0803
  305MOL    C5937147   4.146   2.438   3.102 -0.5439  0.4143 -0.0675
  305MOL    H6037148   4.170   2.541   3.129  1.2780 -0.1051  0.3593
  305MOL    H6137149   4.041   2.427   3.131 -0.6381 -0.7669 -0.8249
  305MOL    C6237150   4.157   2.413   2.950 -0.0720 -0.1995 -0.2741
  305MOL    F6337151   4.063   2.502   2.897  0.0728  0.3228 -0.5649
  305MOL    F6437152   4.274   2.455   2.908  0.4633 -0.1690  0.0262
  305MOL    C6537153   4.131   2.264   2.904 -0.1260  0.0466 -0.1304
  305MOL    H6637154   4.030   2.240   2.938  0.0765 -0.1918  0.3042
  305MOL    H6737155   4.193   2.195   2.961  0.1201 -0.1303 -0.6205
  305MOL    C6837156   4.139   2.239   2.747 -0.0519 -0.1348  0.4316
  305MOL    F6937157   4.065   2.331   2.681 -0.5714  0.3582 -0.0124
  305MOL    F7037158   4.266   2.264   2.710  0.4957 -0.4014  0.1875
  305MOL    C7137159   4.081   2.098   2.708 -0.6659  0.1632 -0.4029
  305MOL    H7237160   4.083   2.091   2.599  0.1432  1.5456 -0.4806
  305MOL    H7337161   3.979   2.082   2.744 -0.6081  1.3428  0.3063
  305MOL    C7437162   4.166   1.978   2.762 -0.0583 -0.2805 -0.2183
  305MOL    F7537163   4.144   1.979   2.891  0.5259  0.0933  0.5722
  305MOL    F7637164   4.118   1.872   2.700 -0.0458 -0.3416  0.5006
  305MOL    C7737165   4.318   1.981   2.749 -0.0411 -0.9276  0.4617
  305MOL    H7837166   4.365   2.057   2.812 -1.1220  0.3257 -0.2160
  305MOL    H7937167   4.337   2.011   2.646  1.9853  0.9741  1.3336
  305MOL    C8037168   4.404   1.849   2.763  0.1750 -0.2276 -0.0611
  305MOL    F8137169   4.374   1.757   2.670  0.4056  0.3149 -0.1286
  305MOL    F8237170   4.534   1.871   2.739  0.3094 -1.3442 -0.3809
  305MOL    C8337171   4.382   1.780   2.892  0.0605 -0.8300 -0.2142
  305MOL    H8437172   4.421   1.679   2.903 -2.0292 -1.9938 -2.9035
  305MOL    H8537173   4.274   1.766   2.889  0.2469 -2.2185 -0.7711
  305MOL    C8637174   4.432   1.851   3.027 -0.3599 -0.4193  0.3988
  305MOL    F8737175   4.559   1.884   3.004 -0.2379  0.1538 -0.6497
  305MOL    F8837176   4.366   1.967   3.050 -0.2603  0.9365 -0.0502
  305MOL    C8937177   4.441   1.757   3.147 -0.4233  0.0206 -0.3467
  305MOL    H9037178   4.488   1.808   3.232  0.8032 -0.4212 -0.7617
  305MOL    H9137179   4.504   1.674   3.116  0.3571  0.9469 -1.2801
  305MOL    C9237180   4.301   1.699   3.189  0.5676  0.3833 -0.2009
  305MOL    F9337181   4.273   1.598   3.104 -0.4782  0.5645  0.3496
  305MOL    F9437182   4.339   1.644   3.297 -0.0577  0.3198 -0.3578
  305MOL    C9537183   4.183   1.803   3.203 -0.2768 -0.1034 -0.0304
  305MOL    H9637184   4.169   1.837   3.100  0.3444  0.2335 -0.0053
  305MOL    H9737185   4.209   1.886   3.268  2.1576 -1.1306  0.3723
  305MOL    C9837186   4.042   1.750   3.241  0.0829 -0.2520 -0.2412
  305MOL    F9937187   4.021   1.635   3.192 -0.1942 -0.1037 -0.3849
  305MOL   F10037188   4.036   1.747   3.373 -0.1231 -0.1535 -0.3448
  305MOL   C10137189   3.928   1.839   3.191  0.3191 -0.1769  0.7859
  305MOL   H10237190   3.917   1.822   3.084  1.2010  0.0000  0.6612
  305MOL   H10337191   3.958   1.944   3.200 -2.0821  0.6625 -0.4517
  305MOL   C10437192   3.792   1.821   3.255 -0.2547 -0.1351  0.2214
  305MOL   F10537193   3.764   1.693   3.231  0.5797 -0.1482 -0.2183
  305MOL   F10637194   3.807   1.856   3.384  0.4274 -0.2663  0.0989
  305MOL   C10737195   3.679   1.903   3.191 -1.2837  0.4001  0.0417
  305MOL   H10837196   3.670   1.867   3.088 -1.6679 -1.3341  0.6775
  305MOL   H10937197   3.702   2.008   3.174  3.1452 -0.3160  1.0096
  305MOL   C11037198   3.545   1.902   3.258 -0.4669 -0.0278  0.3732
  305MOL   F11137199   3.560   1.944   3.386  0.0841 -0.0828  0.3321
  305MOL   F11237200   3.475   1.994   3.196 -0.1021  0.2714 -0.1565
  305MOL   C11337201   3.473   1.768   3.253 -0.1504 -0.1080  0.2988
  305MOL   H11437202   3.538   1.693   3.298  0.9870  1.1970  0.8507
  305MOL   H11537203   3.489   1.739   3.149  2.5825 -0.4479  0.7755
  305MOL   C11637204   3.329   1.757   3.311 -0.3926 -0.3792  1.1374
  305MOL   F11737205   3.329   1.793   3.440 -0.2771 -0.6384  0.7465
  305MOL   F11837206   3.251   1.842   3.249  0.3128  0.5302  0.4142
  305MOL   C11937207   3.277   1.613   3.314 -0.2387  0.0327  0.1549
  305MOL   H12037208   3.331   1.558   3.391  0.0638 -1.8116 -1.3413
  305MOL   H12137209   3.286   1.566   3.216  2.2462  2.2628 -0.7628
  305MOL   H12237210   3.173   1.599   3.344 -0.3923  0.4034 -0.1963
  306MOL     C137211   0.697   1.498   7.889 -0.4342 -0.0362 -0.5380
  306MOL     F237212   0.693   1.381   7.831  0.7204 -0.3791  0.0444
  306MOL     F337213   0.827   1.530   7.899  0.1627  0.3358 -0.2892
  306MOL     C437214   0.623   1.487   8.024  0.4028  0.6446 -0.1210
  306MOL     H537215   0.523   1.443   8.027  0.8145 -0.2394  1.2286
  306MOL     H637216   0.611   1.585   8.070  0.8154 -0.9291  3.5357
  306MOL     H737217   0.655   1.563   7.812 -1.8841  0.8253  0.9522
  306MOL     C837218   0.709   1.423   8.139  0.5980  0.0481 -0.5010
  306MOL     F937219   0.829   1.477   8.141 -0.2379  0.0314  0.5039
  306MOL    F1037220   0.647   1.454   8.254  0.0472 -0.1951  0.2634
  306MOL    C1137221   0.718   1.269   8.135 -0.2832  0.5854  0.7069
  306MOL    H1237222   0.772   1.232   8.221 -1.4755  0.2034  1.3089
  306MOL    H1337223   0.785   1.249   8.051 -1.4162 -0.5576  0.0473
  306MOL    C1437224   0.591   1.188   8.113 -0.2442  0.0512  0.3189
  306MOL    F1537225   0.500   1.233   8.198 -0.4174 -0.0657 -0.2453
  306MOL    F1637226   0.536   1.219   7.991 -0.3241  0.6445  0.0255
  306MOL    C1737227   0.582   1.037   8.133  0.3771 -0.4887  1.2055
  306MOL    H1837228   0.603   1.026   8.239  0.2677 -1.9744  1.0830
  306MOL    H1937229   0.665   0.994   8.077 -0.3694  0.5678 -0.7623
  306MOL    C2037230   0.450   0.964   8.089 -0.0462  0.2095  0.1068
  306MOL    F2137231   0.433   0.964   7.956  0.0210 -0.4564 -0.1436
  306MOL    F2237232   0.470   0.833   8.120 -0.6100  0.3261  0.6464
  306MOL    C2337233   0.326   1.018   8.151 -0.2926 -0.3064 -0.3147
  306MOL    H2437234   0.301   1.116   8.109 -1.2954 -1.4240 -2.4526
  306MOL    H2537235   0.348   1.038   8.255 -0.9489 -0.2254 -0.1870
  306MOL    C2637236   0.201   0.930   8.129  0.1060  0.3934 -0.1718
  306MOL    F2737237   0.181   0.901   8.000  0.1487  0.0569  0.2389
  306MOL    F2837238   0.210   0.813   8.204 -0.3297 -0.0684 -0.5231
  306MOL    C2937239   0.071   0.988   8.193  0.0451 -0.0071 -0.6222
  306MOL    H3037240   0.077   1.001   8.301 -2.1756 -2.5552 -0.1366
  306MOL    H3137241   8.345   0.911   8.179  0.2145 -0.4730  0.8959
  306MOL    C3237242   8.349   1.108   8.133 -0.3540  0.3452  0.3484
  306MOL    F3337243   0.076   1.218   8.155  0.2186 -0.6325 -0.0504
  306MOL    F3437244   8.334   1.091   8.002 -0.2562 -0.1102  0.6306
  306MOL    C3537245   8.206   1.123   8.183  0.3638  0.1627  0.5173
  306MOL    H3637246   8.210   1.129   8.292  1.4921 -0.3562  0.5019
  306MOL    H3737247   8.150   1.033   8.159  0.6475  0.6693 -2.2657
  306MOL    C3837248   8.113   1.232   8.129  0.3056  0.2137  0.3340
  306MOL    F3937249   8.087   1.205   8.000  0.5400  0.5527 -0.4166
  306MOL    F4037250   7.998   1.218   8.193  0.4311  0.5983  0.0155
  306MOL    C4137251   8.167   1.373   8.147  0.2283 -0.0554  0.3165
  306MOL    H4237252   8.101   1.447   8.100 -0.0899 -0.7985 -0.4300
  306MOL    H4337253   8.263   1.375   8.096  0.8369  0.4448  1.4648
  306MOL    C4437254   8.187   1.415   8.296 -0.4416 -0.1447 -0.1628
  306MOL    F4537255   8.066   1.412   8.343 -0.5284 -0.2182  0.1357
  306MOL    F4637256   8.261   1.340   0.023 -0.3643 -0.5803 -0.1486
  306MOL    C4737257   8.245   1.561   8.324 -0.1536 -0.8280  0.3524
  306MOL    H4837258   8.221   1.595   0.075 -1.8536 -1.0674  0.0367
  306MOL    H4937259   8.194   1.637   8.265  2.1135  1.6755  1.5180
  306MOL    C5037260   0.048   1.576   8.307  0.3475 -0.2371 -0.5107
  306MOL    F5137261   0.101   1.534   0.077 -0.6375  0.1433 -0.2506
  306MOL    F5237262   0.081   1.486   8.219 -0.1517 -0.2556  0.4670
  306MOL    C5337263   0.106   1.719   8.267 -0.6415 -0.8930 -0.3606
  306MOL    H5437264   0.214   1.723   8.284 -0.6185  0.8771 -0.8638
  306MOL    H5537265   0.081   1.800   8.336 -0.4251 -1.1228 -0.0089
  306MOL    C5637266   0.073   1.777   8.128  0.1462  0.6883 -0.0386
  306MOL    F5737267   0.134   1.694   8.048 -0.1347 -0.7503 -0.1578
  306MOL    F5837268   8.287   1.763   8.108 -0.2088  0.0874 -0.2018
  306MOL    C5937269   0.122   1.918   8.091  0.5780  0.2173 -0.5446
  306MOL    H6037270   0.227   1.936   8.112 -0.1140  1.0450  2.3370
  306MOL    H6137271   0.050   1.983   8.141 -0.5616 -0.9459 -0.6405
  306MOL    C6237272   0.088   1.963   7.950 -0.5961 -0.7566 -0.4595
  306MOL    F6337273   0.137   1.859   7.874 -0.1275 -0.1841  0.5638
  306MOL    F6437274   8.305   1.962   7.947  0.4099 -0.8338  0.3210
  306MOL    C6537275   0.151   2.091   7.899 -0.2539  0.4016  0.1135
  306MOL    H6637276   0.118   2.094   7.795 -1.5900  0.8246  0.5413
  306MOL    H6737277   0.259   2.086   7.908 -0.2368  1.3669  0.4889
  306MOL    C6837278   0.092   2.220   7.961 -0.2540 -0.1397 -0.1562
  306MOL    F6937279   8.322   2.244   7.915  0.0829  0.2086 -0.1791
  306MOL    F7037280   0.091   2.205   8.091  0.6227  0.4543  0.1500
  306MOL    C7137281   0.177   2.346   7.921  0.2309 -0.1416  0.3048
  306MOL    H7237282   0.276   2.335   7.966  0.5831  0.8273 -0.2421
  306MOL    H7337283   0.126   2.430   7.967 -1.2861 -0.8599 -0.0432
  306MOL    C7437284   0.203   2.374   7.767  0.4281 -0.4656  0.1620
  306MOL    F7537285   0.284   2.480   7.755 -0.1313  0.2691 -0.3534
  306MOL    F7637286   0.263   2.269   7.709 -0.4455 -0.0078 -1.5964
  306MOL    C7737287   0.076   2.401   7.685  0.0033  0.3965 -0.0672
  306MOL    H7837288   8.346   2.457   7.732 -1.7422  0.0854 -2.5439
  306MOL    H7937289   0.025   2.305   7.682 -1.0325  0.8782  1.6163
  306MOL    C8037290   0.098   2.431   7.534 -0.3425  0.2694 -0.0638
  306MOL    F8137291   0.152   2.319   7.483 -0.0754  0.2944  0.0045
  306MOL    F8237292   8.323   2.455   7.482 -0.2102 -0.1574  0.3845
  306MOL    C8337293   0.184   2.553   7.499 -0.2648  0.1604  0.1034
  306MOL    H8437294   0.290   2.546   7.521  0.5105  2.4673 -2.5581
  306MOL    H8537295   0.148   2.631   7.566  0.7719  0.5268  0.2373
  306MOL    C8637296   0.181   2.602   7.351 -0.3894  0.2102 -0.1113
  306MOL    F8737297   0.050   2.623   7.321 -0.0620 -0.0691 -0.2504
  306MOL    F8837298   0.238   2.722   7.348  0.4765 -0.4156  0.1585
  306MOL    C8937299   0.239   2.500   7.253  0.1849  0.8239  0.0083
  306MOL    H9037300   0.175   2.411   7.248  1.2592  0.1225 -1.5805
  306MOL    H9137301   0.329   2.448   7.285 -1.7063 -1.2057  2.3302
  306MOL    C9237302   0.278   2.561   7.117  0.8870 -0.0914 -0.1371
  306MOL    F9337303   0.366   2.653   7.137  0.3109  0.4444  0.1963
  306MOL    F9437304   0.337   2.457   7.051  0.4415 -0.0357  0.1209
  306MOL    C9537305   0.157   2.623   7.041  0.4175  0.4479 -0.6038
  306MOL    H9637306   0.100   2.694   7.101  0.6761 -0.7909  1.1818
  306MOL    H9737307   0.098   2.533   7.027  0.5526  0.4512 -1.1995
  306MOL    C9837308   0.190   2.707   6.915 -0.0976  0.7738 -0.1593
  306MOL    F9937309   0.071   2.709   6.851 -0.1048 -0.7195  0.0996
  306MOL   F10037310   0.219   2.828   6.948 -0.2094 -0.2948  0.2695
  306MOL   C10137311   0.293   2.634   6.833 -0.1303  0.6508  0.3891
  306MOL   H10237312   0.244   2.545   6.793 -1.6714  1.8993 -0.5971
  306MOL   H10337313   0.384   2.610   6.887  0.3873 -1.3451 -1.2941
  306MOL   C10437314   0.330   2.716   6.712  0.4379 -0.7017 -0.6443
  306MOL   F10537315   0.427   2.801   6.762 -0.0278  0.6210  0.0044
  306MOL   F10637316   0.398   2.633   6.634  0.3131 -0.2026  0.6902
  306MOL   C10737317   0.214   2.789   6.629 -0.6414  0.2118 -0.3368
  306MOL   H10837318   0.162   2.865   6.687 -0.5610  1.5156 -1.9532
  306MOL   H10937319   0.145   2.710   6.599 -0.1430  0.2521 -1.5953
  306MOL   C11037320   0.255   2.854   6.500  0.0381  0.1194 -0.5784
  306MOL   F11137321   0.281   2.762   6.404  0.4495 -0.4016  0.2713
  306MOL   F11237322   0.147   2.915   6.456  0.9416  0.3991 -0.2119
  306MOL   C11337323   0.372   2.950   6.525 -0.5757  0.1392  0.1712
  306MOL   H11437324   0.461   2.894   6.551 -0.1389  0.3176 -0.9261
  306MOL   H11537325   0.361   3.020   6.608  0.3448 -0.0936  0.4889
  306MOL   C11637326   0.414   3.037   6.406 -0.6052  0.7844  0.2590
  306MOL   F11737327   0.454   2.963   6.299  0.2272 -0.5966 -0.1697
  306MOL   F11837328   0.308   3.105   6.365  0.3101  0.1532  0.2895
  306MOL   C11937329   0.531   3.129   6.449  0.2930 -0.1729 -0.5461
  306MOL   H12037330   0.623   3.073   6.469 -1.0135 -1.5376  1.9379
  306MOL   H12137331   0.506   3.187   6.538 -2.2283  0.9088 -1.9207
  306MOL   H12237332   0.557   3.201   6.372 -1.8919  0.1261 -1.0367
  307MOL     C137333   5.821   0.757   3.910 -0.4255 -0.0639  0.4673
  307MOL     F237334   5.925   0.842   3.955 -0.5101  0.0037  0.3302
  307MOL     F337335   5.731   0.720   4.000 -0.0012 -0.0982  0.2527
  307MOL     C437336   5.880   0.621   3.859  0.5189 -0.1914  0.0277
  307MOL     H537337   5.950   0.594   3.939  1.7290  2.6721 -0.0034
  307MOL     H637338   5.942   0.632   3.770 -1.0063 -3.6501 -1.5433
  307MOL     H737339   5.766   0.812   3.834 -3.2157  0.4321  2.7686
  307MOL     C837340   5.793   0.497   3.836  0.5250 -0.1513  0.1816
  307MOL     F937341   5.884   0.408   3.796  0.1958 -0.0051  0.1603
  307MOL    F1037342   5.757   0.455   3.954  0.0820 -0.1043  0.6481
  307MOL    C1137343   5.683   0.526   3.730 -0.5597  0.3832  0.5677
  307MOL    H1237344   5.720   0.581   3.644  0.4065  0.2856  0.9134
  307MOL    H1337345   5.618   0.596   3.782 -0.6403  1.6794 -1.2268
  307MOL    C1437346   5.596   0.406   3.680  0.5615 -0.6438 -0.2456
  307MOL    F1537347   5.513   0.456   3.582  0.4798 -0.1630 -0.5661
  307MOL    F1637348   5.692   0.327   3.632  0.4944 -0.3576  0.0619
  307MOL    C1737349   5.519   0.325   3.788  0.3148 -0.1246  0.6883
  307MOL    H1837350   5.450   0.387   3.844 -0.7396 -1.2733  0.6901
  307MOL    H1937351   5.593   0.293   3.861  0.6714 -0.3356  0.2409
  307MOL    C2037352   5.432   0.213   3.733  0.1444  0.3836 -0.3094
  307MOL    F2137353   5.327   0.270   3.672  0.1414  0.0787  0.3358
  307MOL    F2237354   5.508   0.151   3.644 -0.2136  0.5170 -0.2936
  307MOL    C2337355   5.383   0.113   3.837  0.4504 -0.0744  0.2862
  307MOL    H2437356   5.305   0.166   3.892 -0.3710 -1.0623  0.0841
  307MOL    H2537357   5.466   0.098   3.907 -0.8501  0.0158  1.8680
  307MOL    C2637358   5.320   8.333   3.784  0.2957  0.0174  0.0001
  307MOL    F2737359   5.242   8.294   3.888  0.2844 -0.5083  0.0887
  307MOL    F2837360   5.245   0.013   3.676 -0.4719  0.0817 -0.3113
  307MOL    C2937361   5.421   8.224   3.755 -0.0643 -0.2688 -0.4666
  307MOL    H3037362   5.479   8.222   3.847 -1.9624  1.1020  0.7948
  307MOL    H3137363   5.489   8.251   3.674  0.1878 -2.6238 -1.0798
  307MOL    C3237364   5.365   8.081   3.741 -0.9424  0.0474 -0.0546
  307MOL    F3337365   5.472   8.001   3.758  0.1513  0.7452 -0.0422
  307MOL    F3437366   5.290   8.056   3.845  0.4092 -0.0587 -0.0376
  307MOL    C3537367   5.276   8.037   3.621  0.1583  0.2028  0.3406
  307MOL    H3637368   5.179   8.087   3.614  0.2327  0.1856 -0.9749
  307MOL    H3737369   5.244   7.935   3.639 -0.5598  0.2881 -0.3602
  307MOL    C3837370   5.358   8.038   3.487  0.7697  0.8800 -0.3759
  307MOL    F3937371   5.398   8.165   3.467  0.2544  0.0054 -0.4440
  307MOL    F4037372   5.464   7.962   3.494 -0.0499  0.6008 -0.5800
  307MOL    C4137373   5.275   7.988   3.365  0.0194 -0.6084  0.1040
  307MOL    H4237374   5.184   8.048   3.358 -0.6670 -1.6850 -0.4109
  307MOL    H4337375   5.248   7.886   3.389  1.3401 -0.9149  0.2969
  307MOL    C4437376   5.345   7.990   3.223  0.1867 -0.3005 -0.4334
  307MOL    F4537377   5.256   7.943   3.131 -0.3917 -0.1553  0.4261
  307MOL    F4637378   5.360   8.120   3.197  0.2600  0.1561  0.1226
  307MOL    C4737379   5.479   7.903   3.212  0.1746 -0.3133  0.1229
  307MOL    H4837380   5.448   7.802   3.238 -0.1897 -0.1358  0.3885
  307MOL    H4937381   5.552   7.948   3.278  0.6517  2.0165 -1.9100
  307MOL    C5037382   5.545   7.892   3.078  0.3688 -0.1108  0.6071
  307MOL    F5137383   5.672   7.854   3.095  0.7633 -0.4217 -0.1843
  307MOL    F5237384   5.478   7.802   3.003 -0.1258 -0.0643  0.1310
  307MOL    C5337385   5.544   8.032   3.006 -0.1070  0.0916  0.1315
  307MOL    H5437386   5.593   8.114   3.060  0.3727  0.5788 -1.0209
  307MOL    H5537387   5.444   8.074   2.992 -0.7344 -0.9570  1.4005
  307MOL    C5637388   5.602   8.038   2.860 -0.1870  0.0791 -0.0961
  307MOL    F5737389   5.540   7.958   2.779  0.1069  0.4182  0.2464
  307MOL    F5837390   5.586   8.165   2.824 -0.1192 -0.4250  0.1036
  307MOL    C5937391   5.756   8.004   2.860  0.1493 -0.8301  0.9270
  307MOL    H6037392   5.758   7.896   2.867  3.0422 -0.8190  0.8362
  307MOL    H6137393   5.801   8.052   2.946 -0.5158  1.0223  0.2749
  307MOL    C6237394   5.828   8.033   2.727  0.0923 -0.4887 -0.6400
  307MOL    F6337395   5.752   7.973   2.629 -0.5407 -0.3942  0.2815
  307MOL    F6437396   5.829   8.161   2.692  1.0126  0.1422  0.1400
  307MOL    C6537397   5.972   7.981   2.724 -0.0984  0.3752  0.1081
  307MOL    H6637398   5.999   7.997   2.620  0.5484  0.2979  0.2648
  307MOL    H6737399   5.974   7.873   2.731 -1.4110  0.1296 -2.7125
  307MOL    C6837400   6.087   8.053   2.808 -0.2858 -0.2380  0.2641
  307MOL    F6937401   6.074   8.180   2.769  0.4108  0.2197 -0.2625
  307MOL    F7037402   6.065   8.028   2.936  0.1533  0.4656  0.4839
  307MOL    C7137403   6.223   7.990   2.774 -0.4413 -0.3912 -0.6765
  307MOL    H7237404   6.243   8.023   2.672  2.7363 -0.1131 -0.0260
  307MOL    H7337405   6.231   7.882   2.783  1.1195 -0.3415 -1.3430
  307MOL    C7437406   6.344   8.058   2.848 -0.2127  0.3775 -0.6085
  307MOL    F7537407   6.334   8.193   2.837 -0.2011 -0.0748  0.2154
  307MOL    F7637408   6.341   8.023   2.973 -0.1605  0.3146 -0.0384
  307MOL    C7737409   6.483   8.015   2.771  0.0907 -0.5094 -0.1794
  307MOL    H7837410   6.484   8.080   2.683 -0.8200  0.7699  0.7331
  307MOL    H7937411   6.471   7.910   2.744  2.0326 -0.6256 -0.6454
  307MOL    C8037412   6.617   8.036   2.843 -0.3672 -0.1373 -0.0362
  307MOL    F8137413   6.611   7.950   2.944 -0.5514 -0.1052 -0.1467
  307MOL    F8237414   6.718   8.013   2.761 -0.3675  0.4664 -0.1247
  307MOL    C8337415   6.643   8.177   2.916  0.0993  0.6233  0.6202
  307MOL    H8437416   6.565   8.187   2.991  1.7506 -0.8905  2.5835
  307MOL    H8537417   6.635   8.263   2.850  2.6558  1.4525  1.3439
  307MOL    C8637418   6.777   8.192   2.984  0.0147 -0.6620  0.4703
  307MOL    F8737419   6.796   8.089   3.067 -0.5811 -0.0144 -0.0485
  307MOL    F8837420   6.866   8.184   2.885 -0.2399 -0.2390  0.2951
  307MOL    C8937421   6.800   8.329   3.054 -0.0213 -0.4378 -0.6846
  307MOL    H9037422   6.792   0.059   2.979 -2.2554 -1.8671 -2.0441
  307MOL    H9137423   6.899   8.341   3.096  0.4262 -2.8779 -0.9765
  307MOL    C9237424   6.691   0.004   3.168 -0.2156 -0.8569  0.2129
  307MOL    F9337425   6.729   0.121   3.225  0.3062  0.4980  0.0994
  307MOL    F9437426   6.566   0.027   3.124  0.1709  0.6607 -0.1354
  307MOL    C9537427   6.698   8.245   3.282  0.0565 -1.1426 -0.2447
  307MOL    H9637428   6.803   8.215   3.291  0.5162  0.7488  0.9541
  307MOL    H9737429   6.658   8.148   3.255  2.4427 -2.5147  0.9927
  307MOL    C9837430   6.625   8.277   3.418 -0.0150 -0.1577 -0.5585
  307MOL    F9937431   6.658   8.181   3.512  0.0750 -0.1649  0.6246
  307MOL   F10037432   6.684   0.040   3.470  0.1093  0.5453  0.1728
  307MOL   C10137433   6.469   8.306   3.409 -0.2396  0.4024 -0.2644
  307MOL   H10237434   6.445   0.044   3.349  0.5438 -0.7407 -2.3223
  307MOL   H10337435   6.438   8.341   3.507  0.4354  2.1324 -0.6586
  307MOL   C10437436   6.387   8.186   3.364 -0.1010 -0.6008 -0.9880
  307MOL   F10537437   6.411   8.165   3.233  0.4640  0.0878 -0.2018
  307MOL   F10637438   6.410   8.078   3.435  0.0133 -0.1896  1.0182
  307MOL   C10737439   6.234   8.205   3.388 -0.2617  0.1121 -0.2424
  307MOL   H10837440   6.173   8.123   3.350 -1.6390  0.9441  0.1308
  307MOL   H10937441   6.213   8.285   3.316 -0.5540 -0.8223 -1.2032
  307MOL   C11037442   6.178   8.239   3.526  0.4610 -0.1390 -0.5198
  307MOL   F11137443   6.224   8.154   3.612 -0.1454 -0.0704  0.5112
  307MOL   F11237444   6.217   0.014   3.570 -0.4395  0.7513  0.3376
  307MOL   C11337445   6.026   8.250   3.525  0.0029  0.0125 -0.0348
  307MOL   H11437446   5.996   8.293   3.620  1.0194  0.2242  0.1953
  307MOL   H11537447   5.986   8.149   3.515 -1.0641  0.7036 -3.2242
  307MOL   C11637448   5.965   8.330   3.416 -0.5455  0.6888 -0.1459
  307MOL   F11737449   6.025   0.095   3.422  0.7895  0.4491 -0.0607
  307MOL   F11837450   5.973   8.285   3.297  0.2062  0.7007  0.0445
  307MOL   C11937451   5.812   0.013   3.442 -0.1076 -0.2781 -0.0388
  307MOL   H12037452   5.757   8.278   3.402 -0.5112  0.1611 -0.4150
  307MOL   H12137453   5.792   0.100   3.380 -0.2275  0.9890  1.7481
  307MOL   H12237454   5.791   0.021   3.549 -0.1951 -0.7921 -0.0186
  308MOL     C137455   2.400   2.175   1.515  0.3883 -0.2100 -0.5366
  308MOL     F237456   2.279   2.142   1.551  0.2403 -0.0339  0.1547
  308MOL     F337457   2.416   2.308   1.526  0.7389 -0.3738 -0.4287
  308MOL     C437458   2.423   2.129   1.375 -0.3854  0.7665  0.9194
  308MOL     H537459   2.358   2.191   1.313  1.9017  0.5185 -1.8271
  308MOL     H637460   2.381   2.029   1.358  1.8045  0.0386 -0.3665
  308MOL     H737461   2.477   2.133   1.580 -0.8707  2.0694  2.6179
  308MOL     C837462   2.573   2.119   1.325 -0.3650  0.1332  0.4547
  308MOL     F937463   2.630   2.017   1.397  0.2416  0.2551  0.2062
  308MOL    F1037464   2.580   2.081   1.198 -0.0634 -0.0228  0.0101
  308MOL    C1137465   2.652   2.251   1.342  0.2083  0.3964 -0.8915
  308MOL    H1237466   2.677   2.272   1.446  0.5992  1.4788 -1.1907
  308MOL    H1337467   2.586   2.334   1.317 -0.8773 -0.4951 -1.0064
  308MOL    C1437468   2.783   2.257   1.261 -0.0367  0.5217 -0.5735
  308MOL    F1537469   2.853   2.142   1.285  0.7386 -0.1480 -0.5764
  308MOL    F1637470   2.766   2.258   1.127  0.1235 -0.4454 -0.2107
  308MOL    C1737471   2.879   2.375   1.293  0.2766  0.1052  0.1630
  308MOL    H1837472   2.824   2.468   1.278 -1.5435 -1.2764 -2.1166
  308MOL    H1937473   2.953   2.377   1.213  0.6691 -0.3152  0.5124
  308MOL    C2037474   2.951   2.368   1.435 -0.0509 -0.7610 -0.0096
  308MOL    F2137475   2.854   2.373   1.530  0.8021 -0.2861 -0.6707
  308MOL    F2237476   3.015   2.254   1.440 -0.4564 -0.1374  0.9641
  308MOL    C2337477   3.038   2.494   1.452 -0.1627 -0.6131 -0.4666
  308MOL    H2437478   2.986   2.588   1.434  2.7762  0.5266 -3.7521
  308MOL    H2537479   3.115   2.496   1.375  1.7547  1.8720  1.4281
  308MOL    C2637480   3.108   2.516   1.593 -0.3190 -0.3104  0.0075
  308MOL    F2737481   3.144   2.647   1.592  0.1403  0.0906 -0.1939
  308MOL    F2837482   3.022   2.495   1.692 -0.1723  0.4488 -0.3834
  308MOL    C2937483   3.243   2.433   1.604 -0.1792 -0.4683 -0.5174
  308MOL    H3037484   3.304   2.458   1.518  1.0489 -0.4201  0.3638
  308MOL    H3137485   3.226   2.325   1.601 -0.3901 -0.4585  0.1627
  308MOL    C3237486   3.329   2.468   1.724 -0.2716 -0.7859 -0.3347
  308MOL    F3337487   3.434   2.383   1.729  0.7485 -0.5101  0.2225
  308MOL    F3437488   3.380   2.589   1.701 -0.1683  0.1153 -0.2928
  308MOL    C3537489   3.258   2.460   1.862 -0.4046 -0.1101 -0.1172
  308MOL    H3637490   3.167   2.520   1.867 -0.8003 -0.8726  2.6210
  308MOL    H3737491   3.326   2.510   1.932 -3.3067  1.9014  1.3866
  308MOL    C3837492   3.216   2.321   1.910 -0.1259  0.4676 -0.0891
  308MOL    F3937493   3.114   2.357   1.991 -0.2083  0.0971  0.9490
  308MOL    F4037494   3.174   2.246   1.813  0.3042  0.4367  0.1423
  308MOL    C4137495   3.331   2.244   1.980  0.2349  0.7474  0.6065
  308MOL    H4237496   3.368   2.304   2.062  0.2765  2.7064 -0.8113
  308MOL    H4337497   3.407   2.222   1.905 -0.2997 -0.4191  0.3966
  308MOL    C4437498   3.291   2.100   2.034 -0.5441 -0.4910 -0.4878
  308MOL    F4537499   3.224   2.030   1.939  0.5059 -0.4193 -0.3134
  308MOL    F4637500   3.406   2.037   2.061 -0.1888  0.1465  0.5511
  308MOL    C4737501   3.213   2.110   2.167  0.3306 -0.3613 -0.7027
  308MOL    H4837502   3.125   2.171   2.146  1.9564  1.4940 -2.4210
  308MOL    H4937503   3.273   2.165   2.239 -0.8938 -1.2328  1.0218
  308MOL    C5037504   3.167   1.968   2.218 -1.0244  0.7683 -0.4617
  308MOL    F5137505   3.073   1.927   2.133 -0.5805 -0.6887  0.6749
  308MOL    F5237506   3.257   1.869   2.221 -0.5183 -0.8177 -0.0735
  308MOL    C5337507   3.116   1.974   2.364 -0.1500 -0.3783  0.5359
  308MOL    H5437508   3.066   1.878   2.374 -0.0548 -0.2531  2.3487
  308MOL    H5537509   3.038   2.048   2.383  2.7367  3.1581 -0.7338
  308MOL    C5637510   3.212   1.996   2.479 -0.0676 -0.5660  0.7302
  308MOL    F5737511   3.321   1.927   2.465 -0.0934 -0.0127  0.3093
  308MOL    F5837512   3.249   2.118   2.469 -0.3838 -0.0959  0.4684
  308MOL    C5937513   3.132   1.973   2.607 -0.3126  0.0940  0.2040
  308MOL    H6037514   3.101   1.868   2.612 -0.8784  0.2420 -0.1457
  308MOL    H6137515   3.043   2.037   2.610 -0.5464 -0.0418 -2.3207
  308MOL    C6237516   3.210   2.007   2.736 -0.2634 -0.3504  0.2889
  308MOL    F6337517   3.312   1.928   2.746  0.2528  0.6225  0.3760
  308MOL    F6437518   3.261   2.133   2.735 -0.1812 -0.5484  0.5188
  308MOL    C6537519   3.126   1.989   2.865  1.0353 -0.1843  0.7532
  308MOL    H6637520   3.035   2.047   2.852  0.4046 -1.2388  0.3943
  308MOL    H6737521   3.177   2.043   2.945 -0.0706 -0.8444  1.9206
  308MOL    C6837522   3.077   1.849   2.903  0.2167 -0.2198  0.5689
  308MOL    F6937523   3.014   1.783   2.802 -0.1604  0.2992  0.0013
  308MOL    F7037524   3.181   1.780   2.948 -0.2662 -0.0835 -0.0164
  308MOL    C7137525   2.985   1.874   3.028 -0.1120 -0.0651  0.1582
  308MOL    H7237526   2.907   1.944   2.999  0.3735 -0.1385 -1.3791
  308MOL    H7337527   3.037   1.929   3.106 -0.9184 -1.1812  1.5098
  308MOL    C7437528   2.913   1.759   3.102  0.0953  0.2865 -0.0912
  308MOL    F7537529   2.841   1.684   3.012 -0.1295  0.7127 -0.2571
  308MOL    F7637530   3.000   1.678   3.147  0.3873 -0.0701 -0.4027
  308MOL    C7737531   2.816   1.813   3.212  0.5486  0.2267  0.4391
  308MOL    H7837532   2.751   1.890   3.172  1.6310  1.4133  0.9232
  308MOL    H7937533   2.886   1.873   3.270  1.1408  0.7439 -0.7930
  308MOL    C8037534   2.727   1.709   3.297  0.2833 -1.0152  0.0407
  308MOL    F8137535   2.669   1.770   3.397 -0.0145 -0.2657 -0.1861
  308MOL    F8237536   2.628   1.658   3.216 -0.2582  0.2486  0.4425
  308MOL    C8337537   2.805   1.587   3.361  0.2351  0.3548  1.1520
  308MOL    H8437538   2.857   1.530   3.285 -3.8298 -3.0759  0.7574
  308MOL    H8537539   2.730   1.515   3.392 -0.0351  0.4481  0.7188
  308MOL    C8637540   2.901   1.620   3.480 -0.1846  0.0193  0.4151
  308MOL    F8737541   2.962   1.505   3.506 -0.4851 -0.7697 -0.0200
  308MOL    F8837542   2.998   1.705   3.438  0.2088  0.0954  0.3349
  308MOL    C8937543   2.840   1.665   3.614  0.5945 -0.5677  0.3931
  308MOL    H9037544   2.802   1.766   3.606  0.7179 -0.3525  2.4759
  308MOL    H9137545   2.923   1.675   3.684 -0.8311 -0.3580  2.0917
  308MOL    C9237546   2.723   1.578   3.675 -0.2475  0.2620  0.2345
  308MOL    F9337547   2.613   1.591   3.599 -0.6208  0.0133  0.5758
  308MOL    F9437548   2.755   1.449   3.676 -0.0624  0.0901 -0.2405
  308MOL    C9537549   2.690   1.629   3.818 -0.7974 -0.1330 -0.4249
  308MOL    H9637550   2.675   1.737   3.817  0.2273  0.0063 -1.7766
  308MOL    H9737551   2.780   1.610   3.876 -0.2782  0.6699 -0.9676
  308MOL    C9837552   2.566   1.554   3.890 -0.8369 -0.2892  0.6679
  308MOL    F9937553   2.563   1.627   4.000 -0.2803  0.4660 -0.4688
  308MOL   F10037554   2.452   1.567   3.820 -0.1048 -0.3206 -0.4046
  308MOL   C10137555   2.590   1.412   3.924  0.4640 -0.0064 -0.4652
  308MOL   H10237556   2.684   1.401   3.979 -0.0473 -2.2105  0.0166
  308MOL   H10337557   2.593   1.361   3.828  0.6829 -1.1788  0.1529
  308MOL   C10437558   2.489   1.343   4.017  0.0607 -0.6617  0.6582
  308MOL   F10537559   2.365   1.384   3.980 -0.3058 -0.1883  0.1646
  308MOL   F10637560   2.484   1.213   3.995 -0.4826 -0.1849 -0.6379
  308MOL   C10737561   2.498   1.359   4.170  0.8423 -0.2921  0.5404
  308MOL   H10837562   2.398   1.326   4.201 -0.0978  1.8306 -0.1265
  308MOL   H10937563   2.521   1.460   4.204 -1.8774  1.6993 -3.1730
  308MOL   C11037564   2.604   1.265   4.238 -0.3892  0.5127  0.0734
  308MOL   F11137565   2.561   1.137   4.227 -0.5009 -0.7523  0.4738
  308MOL   F11237566   2.724   1.267   4.177 -0.0368 -0.3289  0.5335
  308MOL   C11337567   2.635   1.295   4.382 -0.1349 -0.2049  0.1465
  308MOL   H11437568   2.682   1.393   4.384  0.0922 -0.2889 -1.0417
  308MOL   H11537569   2.714   1.229   4.419  0.8244  0.8031 -0.0861
  308MOL   C11637570   2.520   1.280   4.485  0.6410 -0.0989 -0.1916
  308MOL   F11737571   2.408   1.335   4.438  0.0777  0.4375  0.1855
  308MOL   F11837572   2.495   1.151   4.499 -0.4199  0.6221 -0.0763
  308MOL   C11937573   2.565   1.331   4.619  0.4145  0.2362 -0.1887
  308MOL   H12037574   2.665   1.290   4.634 -0.3939 -2.5951 -2.1815
  308MOL   H12137575   2.495   1.304   4.698  0.0537  0.1414 -0.5407
  308MOL   H12237576   2.579   1.439   4.623 -1.1894  0.4038  1.3544
  309MOL     C137577   7.286   4.975   1.923 -1.0139 -0.9028  0.0574
  309MOL     F237578   7.244   5.074   1.997 -0.3702  0.1957  0.2053
  309MOL     F337579   7.372   5.025   1.835 -0.4451 -0.2074 -0.1039
  309MOL     C437580   7.175   4.904   1.845 -0.3297 -0.4551 -0.2483
  309MOL     H537581   7.129   4.982   1.785 -2.5795 -0.2511  1.6646
  309MOL     H637582   7.103   4.876   1.923 -0.0388  0.8839  0.5201
  309MOL     H737583   7.330   4.889   1.973 -1.9497 -1.5808 -0.2637
  309MOL     C837584   7.213   4.785   1.747 -0.7160  0.7007  0.5046
  309MOL     F937585   7.294   4.838   1.654 -0.0371 -0.0025  0.5686
  309MOL    F1037586   7.282   4.695   1.822 -0.1930  0.0906  0.4225
  309MOL    C1137587   7.097   4.714   1.676 -0.4213  0.4052 -0.1610
  309MOL    H1237588   7.046   4.649   1.747 -0.0674 -0.7798 -0.9665
  309MOL    H1337589   7.149   4.657   1.599 -1.7479  0.1617 -0.8946
  309MOL    C1437590   6.988   4.803   1.612 -0.0534 -0.6868  0.0986
  309MOL    F1537591   6.916   4.865   1.711  0.2529 -0.5519  0.3552
  309MOL    F1637592   7.057   4.893   1.547  0.8459 -0.1071 -0.0252
  309MOL    C1737593   6.892   4.732   1.516 -0.5405 -0.6537  0.9698
  309MOL    H1837594   6.958   4.707   1.432 -1.2225  3.1802 -0.8068
  309MOL    H1937595   6.838   4.809   1.461 -0.4807 -1.2490  0.0663
  309MOL    C2037596   6.799   4.622   1.567  0.4673  0.0955 -0.4548
  309MOL    F2137597   6.740   4.561   1.461  0.0646 -0.1135  0.6152
  309MOL    F2237598   6.868   4.532   1.636 -0.4483  0.3234 -0.4537
  309MOL    C2337599   6.680   4.662   1.663  0.1052  0.3271 -0.2624
  309MOL    H2437600   6.737   4.701   1.747  0.7074  2.0511 -1.4357
  309MOL    H2537601   6.618   4.580   1.699 -2.9999  1.9376 -1.7182
  309MOL    C2637602   6.583   4.776   1.621  0.4503  0.3505 -0.6067
  309MOL    F2737603   6.506   4.808   1.724  0.0211 -0.0341  0.5874
  309MOL    F2837604   6.661   4.880   1.582 -0.2341 -0.1169 -0.2964
  309MOL    C2937605   6.491   4.730   1.510  0.0554  1.1267 -0.2915
  309MOL    H3037606   6.464   4.627   1.534  0.6968  0.8896 -0.5684
  309MOL    H3137607   6.559   4.726   1.425  0.9949 -0.1681  0.4924
  309MOL    C3237608   6.361   4.810   1.478 -0.6801 -0.6060 -0.1464
  309MOL    F3337609   6.304   4.744   1.377 -0.0441 -0.1667 -0.2896
  309MOL    F3437610   6.278   4.801   1.584  0.2450 -0.2113  0.2715
  309MOL    C3537611   6.396   4.959   1.434 -0.1583 -0.0880  0.7717
  309MOL    H3637612   6.456   4.946   1.344  0.5120 -1.6482  1.4235
  309MOL    H3737613   6.462   5.023   1.493  3.7153 -1.7225 -1.5792
  309MOL    C3837614   6.273   5.044   1.393 -0.1507 -0.1096  0.6376
  309MOL    F3937615   6.196   4.968   1.318 -0.0319 -0.8452  0.2124
  309MOL    F4037616   6.207   5.068   1.498 -0.0442  0.1086  0.1039
  309MOL    C4137617   6.318   5.181   1.336 -0.1163 -0.3776 -0.1960
  309MOL    H4237618   6.393   5.166   1.259 -0.0944 -0.8251 -0.0887
  309MOL    H4337619   6.374   5.232   1.415 -1.1875 -0.1721  0.4453
  309MOL    C4437620   6.211   5.283   1.292  0.1588 -0.3720 -0.0980
  309MOL    F4537621   6.149   5.231   1.185 -0.7239  0.1226 -0.5303
  309MOL    F4637622   6.115   5.285   1.386 -0.2638 -0.1270 -0.2250
  309MOL    C4737623   6.265   5.428   1.261  0.5180 -0.6218 -0.1870
  309MOL    H4837624   6.291   5.467   1.360  0.1896  0.5234 -0.5449
  309MOL    H4937625   6.174   5.479   1.228 -0.2372 -0.9668  1.2894
  309MOL    C5037626   6.376   5.450   1.165  0.3205 -0.0000 -0.5634
  309MOL    F5137627   6.393   5.577   1.142  0.1277  0.1547  0.1628
  309MOL    F5237628   6.481   5.408   1.241  0.5251 -0.0165  0.1187
  309MOL    C5337629   6.364   5.369   1.030  0.6799  0.2807 -0.2238
  309MOL    H5437630   6.271   5.404   0.985  1.0954  0.6012 -0.8407
  309MOL    H5537631   6.351   5.263   1.055 -0.6994  0.0411 -1.9032
  309MOL    C5637632   6.483   5.391   0.925 -0.0841  1.1475  0.0627
  309MOL    F5737633   6.470   5.518   0.883  0.4043  0.5992  0.2200
  309MOL    F5837634   6.600   5.358   0.959 -0.1017  0.0583 -0.0078
  309MOL    C5937635   6.459   5.304   0.797  0.5060  0.1631 -0.5560
  309MOL    H6037636   6.474   5.199   0.824  0.1042  0.2333 -0.0413
  309MOL    H6137637   6.545   5.317   0.732  1.3126  1.6518  0.7559
  309MOL    C6237638   6.334   5.313   0.712 -0.8561 -0.0027  0.1330
  309MOL    F6337639   6.355   5.214   0.624  0.1492 -0.4906  0.3918
  309MOL    F6437640   6.237   5.279   0.786 -0.3629  0.1139  0.2660
  309MOL    C6537641   6.301   5.445   0.638  0.6350  0.3790 -0.1393
  309MOL    H6637642   6.283   5.510   0.724 -3.5326  0.4381 -0.9505
  309MOL    H6737643   6.202   5.460   0.595  0.9817 -0.0661 -1.1002
  309MOL    C6837644   6.405   5.503   0.535  0.1445  0.4013  0.1352
  309MOL    F6937645   6.370   5.629   0.513  0.2259  0.0000 -0.6920
  309MOL    F7037646   6.523   5.510   0.595  0.1708 -0.1361 -0.3901
  309MOL    C7137647   6.418   5.417   0.405 -0.6701 -0.1278  0.2756
  309MOL    H7237648   6.458   5.319   0.431  0.3051  0.6765  1.8717
  309MOL    H7337649   6.506   5.458   0.356 -1.8204  3.1799  0.8265
  309MOL    C7437650   6.300   5.412   0.303  0.0649  0.3780 -0.2900
  309MOL    F7537651   6.339   5.330   0.205  0.1170  0.2069  0.0765
  309MOL    F7637652   6.201   5.356   0.378 -0.3081  0.2027 -0.0147
  309MOL    C7737653   6.243   5.550   0.253 -0.1826  0.2755 -0.2203
  309MOL    H7837654   6.218   5.615   0.338  0.8561  0.0448  0.2696
  309MOL    H7937655   6.153   5.527   0.197  0.3979 -1.1202 -0.5921
  309MOL    C8037656   6.338   5.624   0.154 -0.1782 -0.0863 -0.4485
  309MOL    F8137657   6.452   5.645   0.210 -0.1208  0.5097  0.6148
  309MOL    F8237658   6.358   5.543   0.054  0.3362  0.0318 -0.3582
  309MOL    C8337659   6.279   5.755   0.101 -0.9410 -0.6184 -0.0223
  309MOL    H8437660   6.247   5.816   0.186 -0.3461 -1.0631  0.5337
  309MOL    H8537661   6.191   5.735   0.040 -1.4385 -0.0744  0.5134
  309MOL    C8637662   6.371   5.838   0.013 -0.3070  0.2537  0.2702
  309MOL    F8737663   6.466   5.885   0.096  0.2403  0.0748  0.4377
  309MOL    F8837664   6.441   5.772   8.270 -0.3759 -0.5397  0.1952
  309MOL    C8937665   6.293   5.956   8.290 -0.7826  0.2116  0.2901
  309MOL    H9037666   6.247   6.008   0.025 -1.1090  1.0633 -0.4051
  309MOL    H9137667   6.214   5.905   8.236  1.5240 -2.2228 -0.8980
  309MOL    C9237668   6.377   6.053   8.208  0.0212 -0.1297  1.0095
  309MOL    F9337669   6.278   6.141   8.160 -0.2847 -0.2238 -0.3904
  309MOL    F9437670   6.460   6.111   8.291  0.4976 -0.2106 -0.1626
  309MOL    C9537671   6.450   5.990   8.084  0.2725  0.5039 -0.4467
  309MOL    H9637672   6.371   5.935   8.033  1.2732 -0.9609 -0.4462
  309MOL    H9737673   6.534   5.926   8.111 -0.4999 -0.8641 -1.2414
  309MOL    C9837674   6.495   6.095   7.977  0.0048  0.2545  0.4292
  309MOL    F9937675   6.390   6.161   7.923  0.1205  0.1832 -0.0663
  309MOL   F10037676   6.571   6.185   8.034  0.1740  0.4830 -0.0065
  309MOL   C10137677   6.567   6.018   7.857  0.0511  0.5236  0.2961
  309MOL   H10237678   6.497   5.942   7.821 -1.2521  1.3750  0.9988
  309MOL   H10337679   6.651   5.960   7.896 -1.1092  0.5412  2.9419
  309MOL   C10437680   6.619   6.095   7.740 -0.1233 -0.3802 -0.6880
  309MOL   F10537681   6.510   6.143   7.678  0.1070  0.1998  0.0659
  309MOL   F10637682   6.693   6.191   7.784  0.1045 -0.1171 -0.3130
  309MOL   C10737683   6.706   6.013   7.643  0.3201  0.4872  0.4157
  309MOL   H10837684   6.656   5.918   7.630 -0.2575  0.9845 -1.0339
  309MOL   H10937685   6.801   5.977   7.683  0.3258  0.2934  0.2288
  309MOL   C11037686   6.745   6.085   7.513 -0.6766  0.2380  0.4026
  309MOL   F11137687   6.633   6.130   7.459  0.0323 -0.2843  0.2647
  309MOL   F11237688   6.826   6.186   7.534  0.0068  0.3148 -0.1526
  309MOL   C11337689   6.811   5.982   7.416 -0.3020  0.2836  0.0213
  309MOL   H11437690   6.758   5.887   7.430 -0.1455  0.2761  0.5924
  309MOL   H11537691   6.911   5.957   7.451 -0.7088 -1.4854 -0.0126
  309MOL   C11637692   6.812   6.039   7.269  0.0089 -0.1055 -0.7389
  309MOL   F11737693   6.695   6.067   7.224 -0.0093  0.0884  0.2109
  309MOL   F11837694   6.881   6.151   7.270  0.1089 -0.0948 -0.2233
  309MOL   C11937695   6.874   5.943   7.164  0.2722  0.5169  0.3551
  309MOL   H12037696   6.816   5.851   7.157 -1.4099  1.5277  0.9302
  309MOL   H12137697   6.973   5.905   7.189  0.7431  0.2251 -1.8653
  309MOL   H12237698   6.882   6.000   7.071  3.9605  0.6689  0.6702
  310MOL     C137699   0.931   3.918   0.921  0.3325  0.1023  0.2580
  310MOL     F237700   0.937   4.019   0.830 -0.0219  0.1893  0.2155
  310MOL     F337701   0.926   3.976   1.042 -0.0535  0.6050 -0.5108
  310MOL     C437702   1.055   3.825   0.912 -0.2028 -0.2947 -0.1472
  310MOL     H537703   1.142   3.887   0.932 -0.3120  0.2318 -1.2630
  310MOL     H637704   1.068   3.787   0.811  2.2972 -2.7299  1.0230
  310MOL     H737705   0.839   3.863   0.900 -0.3230  0.4343  2.1993
  310MOL     C837706   1.059   3.713   1.017 -0.2832  0.0203  0.5080
  310MOL     F937707   1.070   3.763   1.137  0.4244  0.5195  0.6147
  310MOL    F1037708   0.950   3.633   1.007 -0.2023  0.3589  0.2610
  310MOL    C1137709   1.179   3.619   0.997 -0.0354 -0.6492 -0.3424
  310MOL    H1237710   1.271   3.677   1.007  1.5965 -3.3794  0.9251
  310MOL    H1337711   1.185   3.576   0.897 -0.0461 -0.3687 -0.4649
  310MOL    C1437712   1.201   3.506   1.095  0.5984  0.1252 -0.3412
  310MOL    F1537713   1.324   3.464   1.073 -0.7052  0.3753 -0.0464
  310MOL    F1637714   1.190   3.559   1.216 -0.5829  0.3505 -0.3098
  310MOL    C1737715   1.100   3.393   1.066 -0.1333 -0.3755  0.6357
  310MOL    H1837716   1.099   3.360   0.962 -1.6098  1.1026  0.1622
  310MOL    H1937717   1.005   3.440   1.091 -0.5099 -1.1929  0.7452
  310MOL    C2037718   1.133   3.265   1.147  1.3980 -0.0222 -0.5980
  310MOL    F2137719   1.054   3.163   1.100 -0.2316 -0.4206  0.2360
  310MOL    F2237720   1.252   3.230   1.118 -0.0503 -0.5549  0.4823
  310MOL    C2337721   1.113   3.269   1.308 -0.2393 -0.6892  0.3928
  310MOL    H2437722   1.190   3.337   1.344  0.4382 -0.9620 -0.5205
  310MOL    H2537723   1.139   3.170   1.345 -1.0336 -0.6909  0.9524
  310MOL    C2637724   0.978   3.298   1.367 -0.5083  0.7547 -1.0720
  310MOL    F2737725   0.950   3.433   1.349 -0.0874  0.0943 -0.0533
  310MOL    F2837726   0.886   3.227   1.306 -0.0670  0.4099 -0.0785
  310MOL    C2937727   0.979   3.269   1.523 -0.6582 -0.8827 -0.2132
  310MOL    H3037728   1.070   3.309   1.567 -1.3040  0.2841  0.0989
  310MOL    H3137729   1.007   3.164   1.521  0.4851 -0.5649 -2.1026
  310MOL    C3237730   0.853   3.317   1.601 -0.0850 -0.0265  0.1469
  310MOL    F3337731   0.862   3.276   1.729 -0.2654  0.0640  0.2852
  310MOL    F3437732   0.847   3.451   1.600 -0.1290  0.6843 -0.0807
  310MOL    C3537733   0.720   3.268   1.540  0.1656  0.2227 -0.5199
  310MOL    H3637734   0.704   3.305   1.439  0.0780 -1.0003 -0.9635
  310MOL    H3737735   0.636   3.297   1.603  0.5291 -0.2980  0.2097
  310MOL    C3837736   0.700   3.116   1.540 -1.0523 -0.2117 -0.1557
  310MOL    F3937737   0.785   3.054   1.465 -0.0284  0.3110  0.1687
  310MOL    F4037738   0.728   3.068   1.661  0.0595 -0.1461  0.7221
  310MOL    C4137739   0.548   3.085   1.507  0.3100  0.1177 -0.3484
  310MOL    H4237740   0.514   3.149   1.425 -0.1444  0.9513  0.4759
  310MOL    H4337741   0.491   3.123   1.592 -1.3298 -0.4011 -1.2136
  310MOL    C4437742   0.513   2.939   1.475 -0.0875 -0.2151  0.7530
  310MOL    F4537743   0.537   2.864   1.579 -0.3060  0.0781  0.3308
  310MOL    F4637744   0.383   2.940   1.447  0.2487 -0.4716  0.1449
  310MOL    C4737745   0.578   2.875   1.352  0.1008  0.6045 -0.6222
  310MOL    H4837746   0.533   2.778   1.332  0.6395  0.7702 -2.8430
  310MOL    H4937747   0.682   2.860   1.384  0.0664  1.6024 -0.0281
  310MOL    C5037748   0.576   2.948   1.223 -0.1429  0.1311 -0.1580
  310MOL    F5137749   0.457   3.010   1.205 -0.4192 -0.0172  0.0288
  310MOL    F5237750   0.673   3.041   1.207 -0.1795 -0.1185  0.1687
  310MOL    C5337751   0.577   2.859   1.090  0.4438  0.7214  0.1060
  310MOL    H5437752   0.557   2.928   1.009 -3.9899  2.4682  2.5186
  310MOL    H5537753   0.490   2.794   1.096  0.6254  0.6077  1.7475
  310MOL    C5637754   0.707   2.777   1.064  0.3811 -0.1833 -0.0822
  310MOL    F5737755   0.797   2.870   1.041  0.0502 -0.6976  0.1358
  310MOL    F5837756   0.724   2.701   1.180 -0.1421 -0.3979  0.3335
  310MOL    C5937757   0.696   2.685   0.949  0.4098  0.2039 -0.0331
  310MOL    H6037758   0.654   2.739   0.864  0.3286  0.8104  0.3861
  310MOL    H6137759   0.621   2.609   0.968 -0.0137  1.1598  2.2761
  310MOL    C6237760   0.825   2.617   0.903  0.3320 -0.6922  0.0647
  310MOL    F6337761   0.899   2.716   0.847 -0.1008  0.0487 -0.0823
  310MOL    F6437762   0.891   2.576   1.011 -0.0824 -0.1421 -0.1634
  310MOL    C6537763   0.803   2.510   0.803  0.4596  0.2805 -0.0711
  310MOL    H6637764   0.764   2.417   0.845  1.8282 -0.5629 -0.6179
  310MOL    H6737765   0.904   2.478   0.777  0.6967 -0.5828  1.8768
  310MOL    C6837766   0.725   2.552   0.680 -0.0288 -0.0275 -0.1926
  310MOL    F6937767   0.598   2.589   0.700  0.1759  0.2122 -0.2769
  310MOL    F7037768   0.786   2.657   0.624 -0.6743  0.8256  0.1302
  310MOL    C7137769   0.714   2.445   0.567 -0.5304  0.6544 -0.2404
  310MOL    H7237770   0.648   2.489   0.492  0.0559  0.8843 -0.6262
  310MOL    H7337771   0.658   2.356   0.595  2.3789 -1.1893 -0.1196
  310MOL    C7437772   0.847   2.388   0.505 -0.2195 -0.7811  0.0200
  310MOL    F7537773   0.922   2.340   0.610 -0.0164  0.2864  1.4443
  310MOL    F7637774   0.812   2.280   0.441  0.0567  0.4327  0.1970
  310MOL    C7737775   0.928   2.480   0.414  0.1004 -0.3132  0.2716
  310MOL    H7837776   1.010   2.422   0.373 -0.4610 -0.5305 -0.5700
  310MOL    H7937777   0.977   2.563   0.464  0.6847  0.0839 -0.9644
  310MOL    C8037778   0.835   2.536   0.305 -0.6166 -0.5507 -0.4809
  310MOL    F8137779   0.781   2.426   0.249 -0.4489  0.0584 -0.0686
  310MOL    F8237780   0.739   2.621   0.343 -0.4225 -0.6883 -0.6749
  310MOL    C8337781   0.914   2.614   0.194  0.6821  0.0681 -0.5337
  310MOL    H8437782   0.839   2.655   0.126 -2.4699 -4.4131 -0.0296
  310MOL    H8537783   0.973   2.549   0.130 -0.4623  0.6897 -2.2334
  310MOL    C8637784   1.009   2.728   0.233 -0.5406  0.6055  0.6637
  310MOL    F8737785   1.102   2.679   0.315  0.3003  0.1120 -0.4700
  310MOL    F8837786   1.071   2.773   0.120 -0.2111 -0.5499  0.1706
  310MOL    C8937787   0.951   2.848   0.311  0.1190  1.0720 -0.3712
  310MOL    H9037788   0.905   2.802   0.398 -0.7810  2.8751  0.1377
  310MOL    H9137789   0.859   2.891   0.272 -0.4629 -1.4128 -1.8704
  310MOL    C9237790   1.052   2.952   0.362  0.2471 -0.3463 -0.0981
  310MOL    F9337791   1.153   2.975   0.281  0.2943  0.0756 -0.2938
  310MOL    F9437792   0.982   3.067   0.377  0.2082  0.6074 -0.0758
  310MOL    C9537793   1.129   2.930   0.500 -0.6106  0.5675  0.1250
  310MOL    H9637794   1.197   2.846   0.486 -1.2203  0.3197 -1.4697
  310MOL    H9737795   1.053   2.886   0.567  1.9384 -0.0047  2.7466
  310MOL    C9837796   1.199   3.055   0.561  0.7591 -0.1963 -0.4490
  310MOL    F9937797   1.287   3.108   0.479  0.0701 -0.3023  0.3231
  310MOL   F10037798   1.107   3.145   0.588  0.0096 -0.3667  0.2115
  310MOL   C10137799   1.273   3.027   0.696 -0.0240  0.2720  0.1047
  310MOL   H10237800   1.350   2.953   0.674 -0.6089 -0.0896 -0.7526
  310MOL   H10337801   1.203   2.970   0.757 -0.3441 -0.1232 -0.6278
  310MOL   C10437802   1.332   3.145   0.770 -0.0204 -0.4585  0.0671
  310MOL   F10537803   1.228   3.227   0.800  0.0537  0.7075  0.1489
  310MOL   F10637804   1.380   3.098   0.889 -0.0692 -0.4603 -0.0529
  310MOL   C10737805   1.447   3.227   0.705  0.0738 -0.2481  0.6808
  310MOL   H10837806   1.423   3.249   0.601  1.2848 -1.7496  0.0639
  310MOL   H10937807   1.533   3.160   0.698 -1.8742 -2.6488 -1.2718
  310MOL   C11037808   1.480   3.359   0.780  0.4107 -0.4041 -0.1102
  310MOL   F11137809   1.368   3.429   0.793  0.4460  0.2665  0.0820
  310MOL   F11237810   1.525   3.333   0.903 -0.2808  0.3489  0.3101
  310MOL   C11337811   1.583   3.431   0.703 -0.5069 -0.2752  0.0527
  310MOL   H11437812   1.547   3.455   0.603 -2.6045  1.4579  1.1833
  310MOL   H11537813   1.672   3.368   0.700 -0.3160 -0.0642  1.0602
  310MOL   C11637814   1.625   3.570   0.761  1.2520  0.2351  0.5655
  310MOL   F11737815   1.654   3.565   0.892  0.2414 -0.4556  0.4795
  310MOL   F11837816   1.729   3.601   0.695  0.0946 -0.1094  0.3325
  310MOL   C11937817   1.515   3.684   0.755 -0.2550 -0.2678 -0.2047
  310MOL   H12037818   1.466   3.689   0.657  1.3352  3.4827 -0.9300
  310MOL   H12137819   1.548   3.788   0.757 -1.3068  0.1073 -1.4959
  310MOL   H12237820   1.439   3.672   0.831 -0.6201 -1.9386 -0.8240
  311MOL     C137821   6.571   7.585   1.175  0.4504  0.0979 -0.1833
  311MOL     F237822   6.534   7.456   1.184  0.5297  0.0562 -0.8755
  311MOL     F337823   6.494   7.660   1.253 -0.1118  0.3392  0.4587
  311MOL     C437824   6.552   7.632   1.028  0.2016  0.7900  0.4239
  311MOL     H537825   6.576   7.737   1.013  1.0297  0.6636  0.8289
  311MOL     H637826   6.449   7.617   0.996  0.5218 -2.1618  0.6880
  311MOL     H737827   6.674   7.597   1.208 -0.3388  4.1679  1.0951
  311MOL     C837828   6.639   7.551   0.936  0.1281 -0.2063 -0.2411
  311MOL     F937829   6.656   7.631   0.823  0.0984  0.1353 -0.4164
  311MOL    F1037830   6.764   7.544   0.986 -0.5685  0.3897  0.4423
  311MOL    C1137831   6.591   7.413   0.896 -0.3651 -0.4911 -0.1263
  311MOL    H1237832   6.489   7.421   0.860  0.0218  1.4184 -0.8606
  311MOL    H1337833   6.584   7.333   0.970  2.4235 -1.1476 -0.5087
  311MOL    C1437834   6.681   7.351   0.784  0.5675  0.0698 -0.6187
  311MOL    F1537835   6.686   7.426   0.679 -0.3185 -0.1848  0.6168
  311MOL    F1637836   6.808   7.335   0.829  0.0850 -0.0188  0.3833
  311MOL    C1737837   6.633   7.211   0.740 -0.1329  0.0397 -0.2641
  311MOL    H1837838   6.633   7.140   0.823  0.1378 -0.1193 -0.4015
  311MOL    H1937839   6.707   7.171   0.671  1.1987 -0.3537  1.3795
  311MOL    C2037840   6.491   7.206   0.683 -0.3348 -0.4688 -0.2207
  311MOL    F2137841   6.405   7.202   0.787  0.5814  0.1976 -0.3688
  311MOL    F2237842   6.466   7.312   0.597  0.1035  0.3745 -0.2996
  311MOL    C2337843   6.472   7.068   0.608 -0.4608 -0.4603  0.0316
  311MOL    H2437844   6.498   6.981   0.669 -2.3182 -0.5074  0.7896
  311MOL    H2537845   6.532   7.082   0.519 -1.3456  1.3228 -0.3038
  311MOL    C2637846   6.328   7.043   0.543  0.2472 -0.2102  0.3910
  311MOL    F2737847   6.267   7.157   0.514  0.1289  0.1233  0.0123
  311MOL    F2837848   6.344   6.977   0.428 -0.1380 -0.3113 -0.4064
  311MOL    C2937849   6.242   6.967   0.646  0.3654 -1.1045  0.2279
  311MOL    H3037850   6.219   7.037   0.726 -2.1585 -3.3193  1.5390
  311MOL    H3137851   6.298   6.886   0.695 -0.0940 -1.6745 -0.1790
  311MOL    C3237852   6.106   6.921   0.601 -0.8477  0.0688  0.2194
  311MOL    F3337853   6.028   6.909   0.710  0.1374 -0.2635 -0.3985
  311MOL    F3437854   6.049   7.013   0.524 -0.4550  0.1687 -0.2933
  311MOL    C3537855   6.105   6.781   0.533 -0.0593 -0.1851 -0.1943
  311MOL    H3637856   6.132   6.709   0.611 -0.4790  0.2271  0.3376
  311MOL    H3737857   6.190   6.768   0.466  0.8697  3.1614  0.2309
  311MOL    C3837858   5.978   6.748   0.455 -0.2619  0.4169 -0.1950
  311MOL    F3937859   5.990   6.620   0.432  0.1284  0.0502  0.3172
  311MOL    F4037860   5.876   6.758   0.536  0.2313  0.2670 -0.2601
  311MOL    C4137861   5.943   6.822   0.324 -0.3059  0.2726 -0.3124
  311MOL    H4237862   5.937   6.928   0.346 -0.5408  0.7224 -2.4572
  311MOL    H4337863   5.844   6.790   0.292 -1.2596 -0.0986  2.7547
  311MOL    C4437864   6.036   6.800   0.201 -0.1129  0.2439  0.3993
  311MOL    F4537865   6.151   6.855   0.250  0.0973 -0.3384 -0.0887
  311MOL    F4637866   6.062   6.670   0.174  0.3770 -0.0904 -0.0073
  311MOL    C4737867   6.006   6.880   0.066  1.1551  0.3314 -0.3572
  311MOL    H4837868   6.097   6.893   0.006  0.9989  0.4783 -0.5619
  311MOL    H4937869   5.979   6.981   0.098  0.9932 -0.0105  0.5826
  311MOL    C5037870   5.890   6.829   8.329 -0.3086  0.3300  0.3591
  311MOL    F5137871   5.913   6.698   8.308  0.3456 -0.2583 -0.2688
  311MOL    F5237872   5.774   6.847   0.037  0.5258  0.0461 -0.1678
  311MOL    C5337873   5.890   6.911   8.198  0.7365  0.1695  0.7631
  311MOL    H5437874   5.990   6.921   8.158  0.2775  1.7374 -0.0397
  311MOL    H5537875   5.863   7.013   8.227 -0.7173  0.2451 -0.7634
  311MOL    C5637876   5.797   6.873   8.086 -0.0089 -0.2601  0.1066
  311MOL    F5737877   5.674   6.875   8.142  0.1643 -0.2472  0.0442
  311MOL    F5837878   5.807   6.963   7.985  0.0418 -0.1334 -0.0836
  311MOL    C5937879   5.815   6.732   8.025 -0.8093  0.5294 -0.0189
  311MOL    H6037880   5.793   6.656   8.100  0.0387 -0.1254 -0.4338
  311MOL    H6137881   5.919   6.708   8.002 -1.0616 -0.9330  0.3032
  311MOL    C6237882   5.715   6.688   7.906  0.1042 -0.0639  0.4466
  311MOL    F6337883   5.745   6.761   7.802 -0.2336  0.2636  0.3829
  311MOL    F6437884   5.752   6.561   7.876 -0.2952 -0.4035 -0.3556
  311MOL    C6537885   5.561   6.706   7.920  0.1794 -0.2579 -0.4469
  311MOL    H6637886   5.503   6.675   7.834  2.0729  0.9399 -2.2111
  311MOL    H6737887   5.540   6.813   7.926 -0.0202 -0.3082 -0.2862
  311MOL    C6837888   5.486   6.630   8.037 -0.7623  0.3117 -0.5455
  311MOL    F6937889   5.507   6.504   8.030 -0.2166  0.4394 -0.3369
  311MOL    F7037890   5.533   6.679   8.161  0.1121  0.5315  0.7863
  311MOL    C7137891   5.330   6.633   8.025 -0.2559  0.0796 -0.2508
  311MOL    H7237892   5.286   6.582   8.111  0.4212  1.3659  0.8863
  311MOL    H7337893   5.306   6.566   7.942  2.1175 -1.3751  0.1867
  311MOL    C7437894   5.249   6.761   8.015  0.2485 -0.6416  0.3699
  311MOL    F7537895   5.284   6.836   8.121 -0.7945  0.3294 -0.3801
  311MOL    F7637896   5.282   6.820   7.903  0.1961  0.1484  0.7158
  311MOL    C7737897   5.097   6.739   8.000  1.1436 -0.4820  0.3356
  311MOL    H7837898   5.076   6.681   8.090 -1.2389  1.0074  0.8012
  311MOL    H7937899   5.071   6.686   7.908 -0.0200  2.2493 -0.9728
  311MOL    C8037900   5.012   6.869   7.998 -0.8307 -0.3843 -0.0028
  311MOL    F8137901   4.894   6.826   7.961 -0.0890  0.4920  0.4588
  311MOL    F8237902   5.009   6.907   8.124  0.4748  0.0007 -0.3800
  311MOL    C8337903   5.060   6.980   7.897 -0.0526  0.4882  0.7309
  311MOL    H8437904   5.080   6.947   7.795 -0.0328  1.1489  0.5223
  311MOL    H8537905   5.153   7.025   7.929  0.6305  0.1042 -0.6661
  311MOL    C8637906   4.964   7.098   7.887  0.3728 -0.1203 -0.6183
  311MOL    F8737907   5.010   7.169   7.784 -0.0386 -0.5707  0.3302
  311MOL    F8837908   4.836   7.062   7.879 -0.1909 -0.0752 -0.0496
  311MOL    C8937909   4.974   7.191   8.016 -0.0314  0.4688  0.8841
  311MOL    H9037910   5.074   7.233   8.014  0.1682  0.0239  1.4376
  311MOL    H9137911   4.973   7.130   8.106 -0.3828  0.9778  1.2237
  311MOL    C9237912   4.872   7.309   8.028 -0.1795  0.0208 -0.7716
  311MOL    F9337913   4.891   7.385   8.140  0.1050  0.4256  0.8766
  311MOL    F9437914   4.888   7.386   7.925 -0.0601 -0.2765  0.3106
  311MOL    C9537915   4.726   7.276   8.040 -0.1097 -0.6317  0.2221
  311MOL    H9637916   4.693   7.226   7.949  1.1918  1.5121 -1.4629
  311MOL    H9737917   4.666   7.366   8.054 -0.0165 -0.4456 -0.5923
  311MOL    C9837918   4.695   7.186   8.164  0.4595 -0.3269  0.0342
  311MOL    F9937919   4.755   7.065   8.149  0.1189 -0.1940  0.7526
  311MOL   F10037920   4.748   7.246   8.273 -0.4135 -0.3609 -0.1010
  311MOL   C10137921   4.547   7.163   8.191  0.4278  0.3528 -0.4183
  311MOL   H10237922   4.513   7.085   8.123  1.5906  0.7262 -1.4448
  311MOL   H10337923   4.503   7.260   8.172  1.6431  1.5580  2.5421
  311MOL   C10437924   4.515   7.109   8.338  0.2759 -0.3473  0.6310
  311MOL   F10537925   4.551   7.189   0.087  0.1487 -0.5655  0.6948
  311MOL   F10637926   4.387   7.092   8.340 -0.6673  0.2033  0.0091
  311MOL   C10737927   4.573   6.969   0.004  0.4556 -0.2783  0.2360
  311MOL   H10837928   4.681   6.975   8.339  0.0401  2.8761 -2.0532
  311MOL   H10937929   4.540   6.911   8.268 -0.5413  2.6668 -1.4280
  311MOL   C11037930   4.524   6.883   0.122  0.0601 -0.3611 -0.1239
  311MOL   F11137931   4.393   6.859   0.113  0.2251 -0.0940 -0.3053
  311MOL   F11237932   4.583   6.765   0.109 -0.3090  0.2237 -0.5395
  311MOL   C11337933   4.556   6.931   0.263 -0.3459 -0.4195  0.0662
  311MOL   H11437934   4.522   6.858   0.337  3.0299 -1.3797  0.7788
  311MOL   H11537935   4.501   7.025   0.273 -1.4651 -0.7804 -2.3709
  311MOL   C11637936   4.706   6.958   0.290  0.8042 -0.4679 -0.3115
  311MOL   F11737937   4.749   7.069   0.237  0.1230  0.3193  0.2381
  311MOL   F11837938   4.700   6.975   0.424 -0.4409  0.4475 -0.3510
  311MOL   C11937939   4.799   6.841   0.260  0.4408 -0.5109  0.5237
  311MOL   H12037940   4.895   6.841   0.312  1.2100  0.2292 -0.8533
  311MOL   H12137941   4.823   6.841   0.153  1.0366 -1.8503  0.6430
  311MOL   H12237942   4.758   6.744   0.289  0.7096 -1.1327 -1.0930
  312MOL     C137943   8.234   4.006   2.970  0.2554 -0.2956 -0.3071
  312MOL     F237944   8.168   4.027   3.084 -0.2830  0.2009  0.2463
  312MOL     F337945   8.250   3.872   2.964  0.3701 -0.3898  0.5783
  312MOL     C437946   0.019   4.068   2.983  0.1172  0.2090 -0.2519
  312MOL     H537947   0.084   4.009   2.918 -0.5649 -1.8758  0.9409
  312MOL     H637948   0.055   4.050   3.084  1.1731 -0.7510 -0.7889
  312MOL     H737949   8.170   4.031   2.886  0.0536 -1.4536 -0.5011
  312MOL     C837950   0.004   4.225   2.952  0.1293 -0.1883 -0.2022
  312MOL     F937951   0.124   4.283   2.958 -0.2703 -0.1707  0.6145
  312MOL    F1037952   8.293   4.232   2.830 -0.1396 -0.1451 -0.3601
  312MOL    C1137953   8.255   4.298   3.045  0.9673  0.4193  0.0557
  312MOL    H1237954   8.276   4.258   3.145 -3.1849  1.4874  1.4327
  312MOL    H1337955   8.155   4.272   3.011  1.0987  1.4872 -1.1554
  312MOL    C1437956   8.265   4.459   3.051 -0.3279 -0.0572 -0.0444
  312MOL    F1537957   8.145   4.499   3.110  0.1417  0.3668 -0.9245
  312MOL    F1637958   0.013   4.489   3.131  0.3698  0.1720 -0.0974
  312MOL    C1737959   8.270   4.524   2.910  0.4414 -0.2548  0.2215
  312MOL    H1837960   8.192   4.475   2.852  0.2880 -0.7746  0.8600
  312MOL    H1937961   0.015   4.503   2.860  0.2961 -0.9008  0.2188
  312MOL    C2037962   8.227   4.670   2.924  0.0381  0.0600 -1.3099
  312MOL    F2137963   8.094   4.691   2.937 -0.2591  0.6657  0.2256
  312MOL    F2237964   8.291   4.725   3.027  0.5981  0.0112  0.5886
  312MOL    C2337965   8.256   4.756   2.798 -0.4064 -0.8138 -0.5524
  312MOL    H2437966   8.233   4.859   2.823 -0.4375 -0.6591 -1.2028
  312MOL    H2537967   8.183   4.740   2.719 -1.5330  1.3150  0.0142
  312MOL    C2637968   0.042   4.741   2.736 -0.0246  0.0670 -0.4896
  312MOL    F2737969   0.135   4.736   2.830 -0.3949  0.3493 -0.3517
  312MOL    F2837970   0.046   4.630   2.660  0.3290 -0.3193  0.3410
  312MOL    C2937971   0.073   4.856   2.636 -0.7623  0.7770  0.6789
  312MOL    H3037972   0.000   4.865   2.556  0.3023  0.9988 -0.2760
  312MOL    H3137973   0.154   4.808   2.582 -2.1298 -1.1280  0.2886
  312MOL    C3237974   0.097   4.992   2.709  0.5127  0.6542 -0.0355
  312MOL    F3337975   8.327   5.039   2.741  0.1385  0.8567  0.8799
  312MOL    F3437976   0.166   4.977   2.826 -0.4384  0.0418  0.3388
  312MOL    C3537977   0.163   5.091   2.614  0.2438 -0.2843  0.1662
  312MOL    H3637978   0.101   5.089   2.524 -1.8480  1.0896  1.5390
  312MOL    H3737979   0.258   5.049   2.580  0.4217  0.7197 -0.6332
  312MOL    C3837980   0.188   5.224   2.678 -0.2250  0.5732 -0.1116
  312MOL    F3937981   0.072   5.274   2.721  0.2746  0.1421  0.0431
  312MOL    F4037982   0.274   5.217   2.782 -0.2974  0.0248 -0.3051
  312MOL    C4137983   0.238   5.323   2.574 -0.3489 -0.0526  0.2905
  312MOL    H4237984   0.243   5.425   2.613 -1.2924 -0.9004  2.6751
  312MOL    H4337985   0.167   5.314   2.492  0.6584 -0.3810 -0.5667
  312MOL    C4437986   0.379   5.313   2.504 -0.3634  0.1455 -0.6863
  312MOL    F4537987   0.381   5.209   2.422  0.4632 -0.1962  0.1221
  312MOL    F4637988   0.401   5.419   2.430 -0.1633  0.1699  0.2380
  312MOL    C4737989   0.498   5.296   2.601  0.5681 -0.6822  0.1049
  312MOL    H4837990   0.579   5.275   2.531  0.5443 -0.9441  0.1535
  312MOL    H4937991   0.487   5.202   2.654  0.4148 -1.5151 -1.3688
  312MOL    C5037992   0.529   5.415   2.681 -0.2555 -0.7567  0.4675
  312MOL    F5137993   0.558   5.514   2.600  0.0044  0.4276 -0.5011
  312MOL    F5237994   0.425   5.441   2.760 -0.5166 -0.2399  0.6606
  312MOL    C5337995   0.655   5.391   2.773  0.1348 -0.0658  0.1012
  312MOL    H5437996   0.649   5.295   2.824 -1.9336  0.1336  0.2602
  312MOL    H5537997   0.667   5.455   2.860  1.0992 -1.7701  1.2461
  312MOL    C5637998   0.804   5.394   2.714 -0.2374  0.1273  0.2539
  312MOL    F5737999   0.885   5.327   2.808 -0.0043  0.2433  0.5688
  312MOL    F5838000   0.790   5.315   2.610 -0.0900  0.3968 -0.1224
  312MOL    C5938001   0.850   5.542   2.677 -0.7329 -0.4325 -0.3081
  312MOL    H6038002   0.868   5.589   2.774  2.7594 -1.7582 -0.2629
  312MOL    H6138003   0.773   5.606   2.633 -2.3462 -0.0970  2.8324
  312MOL    C6238004   0.978   5.559   2.592 -0.1372  0.7994 -0.5366
  312MOL    F6338005   0.999   5.690   2.591  0.5082  0.2218  0.1737
  312MOL    F6438006   1.073   5.487   2.659  0.0957 -0.5320 -0.5256
  312MOL    C6538007   0.968   5.511   2.450 -0.0407  0.6880  0.5967
  312MOL    H6638008   0.879   5.541   2.394  0.6770 -1.9398 -2.1017
  312MOL    H6738009   0.949   5.404   2.451  0.0534  0.6416 -0.9313
  312MOL    C6838010   1.088   5.540   2.354 -0.7455 -0.0151  0.2107
  312MOL    F6938011   1.120   5.673   2.353  0.3650 -0.6880  0.5976
  312MOL    F7038012   1.196   5.478   2.409 -0.2792 -0.5091  0.0079
  312MOL    C7138013   1.063   5.494   2.207  0.5764  0.3684  0.2032
  312MOL    H7238014   1.122   5.556   2.140 -2.4592  0.6047 -2.3936
  312MOL    H7338015   0.961   5.525   2.181  0.9528  0.3053 -1.4123
  312MOL    C7438016   1.071   5.349   2.156 -0.7120 -0.2025 -0.4948
  312MOL    F7538017   1.049   5.342   2.027 -0.2390  0.0359 -0.1601
  312MOL    F7638018   1.193   5.310   2.186 -0.4026 -0.1647  0.0693
  312MOL    C7738019   0.980   5.238   2.217  0.2341 -0.3864  0.2018
  312MOL    H7838020   0.998   5.219   2.323  2.1031 -4.3080 -0.7517
  312MOL    H7938021   1.021   5.150   2.168  0.4632  0.2899 -0.8479
  312MOL    C8038022   0.825   5.253   2.190  0.5808 -0.1404  0.1053
  312MOL    F8138023   0.777   5.373   2.199  0.6598 -0.6150 -0.0715
  312MOL    F8238024   0.824   5.221   2.065 -0.3078  0.4270  0.1808
  312MOL    C8338025   0.744   5.157   2.286 -0.2690  0.3350 -0.4385
  312MOL    H8438026   0.638   5.173   2.270 -0.9346 -0.2208  3.0493
  312MOL    H8538027   0.775   5.182   2.387  1.3414 -3.3512  0.0572
  312MOL    C8638028   0.765   5.006   2.251 -0.5675  0.3447  0.0539
  312MOL    F8738029   0.740   4.990   2.122 -0.5583 -0.0017 -0.4144
  312MOL    F8838030   0.897   4.970   2.272  0.1325 -0.1714  0.1634
  312MOL    C8938031   0.663   4.916   2.327  0.0095  0.6648  0.2787
  312MOL    H9038032   0.653   4.813   2.293 -0.3048  1.0059 -0.7062
  312MOL    H9138033   0.561   4.950   2.305 -0.1735  0.7629  1.2716
  312MOL    C9238034   0.680   4.903   2.477 -0.4667 -0.4731  0.1737
  312MOL    F9338035   0.799   4.844   2.502  0.3718  0.3922 -0.0570
  312MOL    F9438036   0.679   5.029   2.529 -0.1060  0.3033 -0.3188
  312MOL    C9538037   0.564   4.821   2.537 -0.1998 -0.4284  0.0161
  312MOL    H9638038   0.545   4.735   2.473 -0.8952  0.5708 -1.1398
  312MOL    H9738039   0.477   4.887   2.531 -0.1676 -0.2105  1.7169
  312MOL    C9838040   0.563   4.774   2.688  0.0199 -0.0322  0.2763
  312MOL    F9938041   0.568   4.878   2.768 -0.1250  0.0931  0.1241
  312MOL   F10038042   0.450   4.707   2.711  0.9824  0.5122 -0.4869
  312MOL   C10138043   0.682   4.686   2.719 -0.7076 -0.1866  0.4249
  312MOL   H10238044   0.767   4.753   2.710 -1.5284  0.7010 -0.9143
  312MOL   H10338045   0.708   4.615   2.640  1.5556  0.0887  0.9015
  312MOL   C10438046   0.676   4.608   2.853 -0.1398  0.2999 -0.4251
  312MOL   F10538047   0.788   4.550   2.871 -0.3859  0.0418 -0.0866
  312MOL   F10638048   0.638   4.684   2.952  0.0264 -0.7555  0.0283
  312MOL   C10738049   0.572   4.495   2.863 -0.4418  0.3254 -0.0739
  312MOL   H10838050   0.593   4.427   2.781  1.5257 -0.6539  1.2285
  312MOL   H10938051   0.469   4.525   2.844 -0.2043  1.2003  0.0018
  312MOL   C11038052   0.564   4.422   2.996 -0.1970  0.1674  0.0254
  312MOL   F11138053   0.686   4.374   3.034 -0.3081 -0.9360  0.2865
  312MOL   F11238054   0.506   4.498   3.092  0.1430  0.3648 -0.1710
  312MOL   C11338055   0.467   4.293   2.978  0.5596 -0.6191 -0.1141
  312MOL   H11438056   0.483   4.241   2.884  0.3350 -0.8696 -0.0144
  312MOL   H11538057   0.362   4.319   2.972 -0.5662 -4.7754  0.4162
  312MOL   C11638058   0.465   4.193   3.095 -0.4963 -0.0194  0.0774
  312MOL   F11738059   0.376   4.100   3.069 -0.3642 -0.5141 -0.0192
  312MOL   F11838060   0.575   4.127   3.096  0.5817  0.4519 -0.6271
  312MOL   C11938061   0.423   4.248   3.236  0.0441 -0.2740 -0.2068
  312MOL   H12038062   0.331   4.305   3.227 -0.8984 -1.4898  1.4575
  312MOL   H12138063   0.496   4.312   3.287 -0.9130  0.4252  0.2960
  312MOL   H12238064   0.407   4.174   3.314 -0.1302  1.9983  1.9781
  313MOL     C138065   2.063   0.242   6.265  0.0756 -0.0096 -0.4890
  313MOL     F238066   2.056   0.163   6.373  0.0007  0.0747  0.2439
  313MOL     F338067   1.976   0.339   6.272  0.2323  0.9986 -0.7374
  313MOL     C438068   2.040   0.168   6.128  0.5269 -0.3990 -0.3881
  313MOL     H538069   2.027   0.242   6.049 -0.2086 -0.0372  0.0618
  313MOL     H638070   1.948   0.110   6.133  1.2667 -1.6234 -0.6927
  313MOL     H738071   2.160   0.289   6.279  0.2943  0.7513 -4.0620
  313MOL     C838072   2.150   0.074   6.093  0.1231  0.9677  0.0689
  313MOL     F938073   2.140   0.030   5.968  0.2055 -0.3166  0.0097
  313MOL    F1038074   2.263   0.144   6.101  0.1938 -0.2539 -0.1796
  313MOL    C1138075   2.167   8.303   6.184 -0.1794  1.0706  0.5500
  313MOL    H1238076   2.069   8.255   6.193  0.3231  0.3431  2.3505
  313MOL    H1338077   2.186   8.340   6.285 -0.8283 -0.1535  1.1242
  313MOL    C1438078   2.273   8.196   6.139  0.1815 -0.4577  0.5410
  313MOL    F1538079   2.264   8.169   6.007  0.2504 -0.1117 -0.0254
  313MOL    F1638080   2.396   8.232   6.171  0.1527 -0.3378 -0.3909
  313MOL    C1738081   2.239   8.054   6.202 -0.7626  0.4343 -0.2081
  313MOL    H1838082   2.320   7.985   6.178 -0.7611  0.1505  0.6097
  313MOL    H1938083   2.159   8.004   6.148  0.4096 -1.4192 -0.2588
  313MOL    C2038084   2.221   8.057   6.355  0.5803 -0.7019  0.6779
  313MOL    F2138085   2.312   8.130   6.411  0.1774 -0.4904  0.0556
  313MOL    F2238086   2.100   8.103   6.382 -0.1525  0.4780  0.5176
  313MOL    C2338087   2.233   7.912   6.419  0.1427  0.1469  0.3220
  313MOL    H2438088   2.324   7.883   6.365 -0.8023  0.9766 -1.7886
  313MOL    H2538089   2.146   7.855   6.386  0.8682 -2.2283  2.3468
  313MOL    C2638090   2.238   7.898   6.575 -0.4593  0.2877 -0.1984
  313MOL    F2738091   2.351   7.968   6.616 -0.0228  0.0637  0.3540
  313MOL    F2838092   2.131   7.948   6.633  0.0539 -0.0926  0.0711
  313MOL    C2938093   2.270   7.752   6.622  0.2078  0.3831  0.5988
  313MOL    H3038094   2.290   7.758   6.729  2.0288 -0.5299  0.3095
  313MOL    H3138095   2.358   7.717   6.570 -0.0223 -0.4877  0.7881
  313MOL    C3238096   2.164   7.650   6.591  0.1696  0.4867 -0.1210
  313MOL    F3338097   2.171   7.614   6.461 -0.0028  0.7463 -0.0871
  313MOL    F3438098   2.206   7.549   6.663  0.0386 -0.0422 -0.0753
  313MOL    C3538099   2.014   7.691   6.620  0.0662 -0.1625  0.2587
  313MOL    H3638100   1.990   7.773   6.553 -0.4205 -0.3422  0.2153
  313MOL    H3738101   2.014   7.719   6.725  1.0537 -0.8121  0.4425
  313MOL    C3838102   1.904   7.588   6.595  0.8855  0.3043  0.3654
  313MOL    F3938103   1.899   7.556   6.464 -0.0130  0.3244  0.3352
  313MOL    F4038104   1.935   7.475   6.663 -0.1862 -0.6987 -0.2611
  313MOL    C4138105   1.770   7.643   6.659 -0.1883  0.5609 -0.3459
  313MOL    H4238106   1.739   7.733   6.606  1.7589  1.1148 -0.5725
  313MOL    H4338107   1.788   7.682   6.759  2.8477  0.2615 -0.7353
  313MOL    C4438108   1.644   7.543   6.669 -0.0695  0.4847  0.5177
  313MOL    F4538109   1.605   7.495   6.552 -0.3982  0.0546 -0.5335
  313MOL    F4638110   1.686   7.443   6.752  0.5046 -0.2159  0.4863
  313MOL    C4738111   1.522   7.592   6.742 -0.8512 -0.1878  0.6653
  313MOL    H4838112   1.554   7.633   6.838 -1.8211 -0.9407  1.3200
  313MOL    H4938113   1.458   7.507   6.769 -0.2534 -0.6717  0.5738
  313MOL    C5038114   1.432   7.683   6.660 -0.1165  0.3620  0.2751
  313MOL    F5138115   1.504   7.777   6.599 -0.3733 -0.1341 -0.2077
  313MOL    F5238116   1.360   7.614   6.573  0.0071  0.1097 -0.0031
  313MOL    C5338117   1.336   7.767   6.746 -0.0176 -0.1885 -0.8339
  313MOL    H5438118   1.275   7.828   6.679 -1.0481  1.1858  1.3025
  313MOL    H5538119   1.387   7.833   6.816  1.9378 -1.2550 -1.2326
  313MOL    C5638120   1.240   7.690   6.837 -0.3103  0.3415 -0.1103
  313MOL    F5738121   1.201   7.580   6.777  0.2772  0.1894  0.1299
  313MOL    F5838122   1.298   7.646   6.947  0.3289  0.4145 -0.4122
  313MOL    C5938123   1.110   7.766   6.876 -0.1139 -0.2205 -0.0800
  313MOL    H6038124   1.058   7.781   6.781  1.5673  1.9293 -0.6986
  313MOL    H6138125   1.124   7.868   6.913 -5.9157  1.2055 -1.2791
  313MOL    C6238126   1.007   7.685   6.957  0.3571 -0.5658  0.4988
  313MOL    F6338127   0.989   7.566   6.894 -0.1185  0.3084  0.2882
  313MOL    F6438128   1.068   7.666   7.068 -0.1040 -0.1149 -0.3768
  313MOL    C6538129   0.861   7.736   6.981  0.3187  0.4953 -0.5001
  313MOL    H6638130   0.813   7.681   7.063  3.0720 -0.9934  0.1588
  313MOL    H6738131   0.798   7.701   6.900  2.4738 -2.7782 -0.8336
  313MOL    C6838132   0.837   7.893   6.999 -0.0256  0.6216  0.7124
  313MOL    F6938133   0.919   7.964   7.079  0.2248 -0.2588  0.2405
  313MOL    F7038134   0.841   7.935   6.874 -0.0334  0.2983 -0.0448
  313MOL    C7138135   0.689   7.922   7.036 -0.4253  0.5802 -0.0425
  313MOL    H7238136   0.654   7.868   7.124 -0.4403 -0.5747 -0.7338
  313MOL    H7338137   0.624   7.877   6.961  1.0182 -3.5126  1.0357
  313MOL    C7438138   0.646   8.066   7.032  0.2614  0.0371 -0.2929
  313MOL    F7538139   0.730   8.137   7.103 -0.4527 -0.3395 -0.1537
  313MOL    F7638140   0.648   8.116   6.906 -0.0424  0.0629 -0.3670
  313MOL    C7738141   0.501   8.099   7.078  0.1003  0.0558 -0.6955
  313MOL    H7838142   0.484   8.078   7.184  2.6741 -0.5464 -0.3805
  313MOL    H7938143   0.440   8.028   7.022  0.0851  0.7668 -1.5836
  313MOL    C8038144   0.463   8.250   7.041 -0.4534  0.0592  0.0579
  313MOL    F8138145   0.555   8.336   7.085  0.3922 -0.2143 -0.2152
  313MOL    F8238146   0.469   8.262   6.908 -0.2368 -0.6071  0.8267
  313MOL    C8338147   0.327   8.294   7.083  0.2859  0.3764 -0.0820
  313MOL    H8438148   0.248   8.226   7.053  1.6019 -2.6669  3.0284
  313MOL    H8538149   0.316   0.042   7.035 -1.0302 -0.2084 -0.9808
  313MOL    C8638150   0.299   8.314   7.237  0.4049  0.0997  0.5285
  313MOL    F8738151   0.312   8.194   7.292 -0.1711 -0.2776 -0.2808
  313MOL    F8838152   0.380   0.047   7.298 -0.1498 -0.7344 -0.4580
  313MOL    C8938153   0.162   0.023   7.270  0.2403 -0.0828 -0.5105
  313MOL    H9038154   0.087   8.299   7.239 -0.0295 -0.4002  0.8703
  313MOL    H9138155   0.138   0.112   7.213  1.3903  0.4929 -0.1021
  313MOL    C9238156   0.141   0.045   7.424 -0.7003 -0.0203 -0.3948
  313MOL    F9338157   0.170   8.276   7.489  0.3496 -0.0434  0.4568
  313MOL    F9438158   0.222   0.140   7.468  0.1567 -0.5618  0.7382
  313MOL    C9538159   8.346   0.080   7.464 -0.2291 -1.1462  0.8534
  313MOL    H9638160   8.340   0.100   7.571 -1.0574  0.2978  0.5544
  313MOL    H9738161   8.281   8.344   7.447 -2.8985  0.9428  0.1266
  313MOL    C9838162   8.284   0.209   7.396 -0.0489  0.5297  1.0600
  313MOL    F9938163   0.012   0.311   7.424  0.2654  0.6470  0.5776
  313MOL   F10038164   8.270   0.200   7.264 -0.1200  0.6005 -0.5163
  313MOL   C10138165   8.133   0.238   7.437 -0.5165  0.2123  1.0787
  313MOL   H10238166   8.075   0.149   7.416  0.4602 -0.3046  0.5579
  313MOL   H10338167   8.084   0.315   7.377 -1.9561  0.4371  2.4953
  313MOL   C10438168   8.109   0.272   7.590 -0.3631  0.0111 -0.4357
  313MOL   F10538169   8.138   0.168   7.661 -0.4189  0.0111 -0.0045
  313MOL   F10638170   8.197   0.367   7.616  0.9739 -0.3030 -0.2049
  313MOL   C10738171   7.970   0.322   7.624  0.2022 -0.0561 -0.3880
  313MOL   H10838172   7.943   0.405   7.559 -2.0743 -0.1739  0.3801
  313MOL   H10938173   7.975   0.362   7.725  1.5260  1.1853 -0.9317
  313MOL   C11038174   7.856   0.218   7.640  0.4305  0.4508 -0.5832
  313MOL   F11138175   7.834   0.154   7.529 -0.1867  0.0988 -0.1079
  313MOL   F11238176   7.893   0.139   7.738  0.0082 -0.1115 -0.2861
  313MOL   C11338177   7.719   0.286   7.669 -0.4031 -0.1389 -0.2292
  313MOL   H11438178   7.681   0.347   7.587  0.5108  1.0046  0.1977
  313MOL   H11538179   7.747   0.346   7.755  1.5532  0.1690 -1.0726
  313MOL   C11638180   7.605   0.193   7.719 -0.3859 -0.2395  0.2718
  313MOL   F11738181   7.649   0.096   7.801 -0.1179  0.5327  0.6400
  313MOL   F11838182   7.523   0.264   7.785 -0.1629 -0.5067  0.1457
  313MOL   C11938183   7.539   0.128   7.597 -0.8291  0.2421 -0.3639
  313MOL   H12038184   7.603   0.068   7.532  0.6582  0.8348  0.5054
  313MOL   H12138185   7.491   0.207   7.540  0.9541  2.0469  0.5482
  313MOL   H12238186   7.463   0.056   7.627  0.6135  0.1639  3.3800
  314MOL     C138187   3.880   4.615   7.449  0.1341  0.0254  0.4673
  314MOL     F238188   3.747   4.648   7.453 -0.0945 -0.0336  0.3341
  314MOL     F338189   3.902   4.540   7.556  0.0883 -0.0031 -0.2556
  314MOL     C438190   3.969   4.741   7.456 -0.0184  0.1428 -0.6228
  314MOL     H538191   4.071   4.714   7.482 -0.3982 -1.5259 -0.7589
  314MOL     H638192   3.938   4.800   7.543  0.0438 -1.1869  0.3229
  314MOL     H738193   3.907   4.564   7.357  3.5572  2.7796 -0.1588
  314MOL     C838194   3.963   4.831   7.337 -1.3502 -0.8351  0.4363
  314MOL     F938195   4.029   4.936   7.379  0.3419 -0.2374 -0.3607
  314MOL    F1038196   4.035   4.768   7.245 -0.1873 -0.1155  0.1237
  314MOL    C1138197   3.820   4.866   7.283  0.3470 -0.1090  0.8567
  314MOL    H1238198   3.747   4.905   7.354  0.2317  2.0737 -0.4185
  314MOL    H1338199   3.783   4.776   7.234  0.7051  0.4728 -0.5204
  314MOL    C1438200   3.829   4.981   7.174  0.0921 -0.0376 -0.0207
  314MOL    F1538201   3.912   5.078   7.200  0.3103 -0.5031  0.1275
  314MOL    F1638202   3.857   4.921   7.065 -0.0071 -0.0755  0.5003
  314MOL    C1738203   3.692   5.038   7.139 -0.0931  0.1513  0.2704
  314MOL    H1838204   3.623   4.954   7.133  1.1624 -0.8271 -0.5245
  314MOL    H1938205   3.699   5.073   7.036 -2.2578 -3.0770 -1.0404
  314MOL    C2038206   3.642   5.160   7.232 -0.8190 -0.2173  0.5494
  314MOL    F2138207   3.646   5.128   7.359 -0.0340 -0.0078  0.0434
  314MOL    F2238208   3.729   5.260   7.219 -0.4330 -0.0479  0.1270
  314MOL    C2338209   3.496   5.208   7.195 -0.4414 -0.3024  0.1653
  314MOL    H2438210   3.499   5.258   7.098 -1.2491 -0.0053  0.2924
  314MOL    H2538211   3.471   5.287   7.266 -1.2018  0.3571 -0.8188
  314MOL    C2638212   3.382   5.105   7.196  0.2092 -0.6523  0.7876
  314MOL    F2738213   3.397   5.016   7.093 -0.4108 -0.1134  0.1036
  314MOL    F2838214   3.391   5.038   7.308 -0.4052  0.1961  0.5282
  314MOL    C2938215   3.235   5.162   7.178 -0.4900 -0.6917  0.7645
  314MOL    H3038216   3.212   5.234   7.257 -0.0907 -1.6401  1.7752
  314MOL    H3138217   3.175   5.071   7.190 -0.7117 -1.1154 -3.0652
  314MOL    C3238218   3.201   5.228   7.038  0.2208  0.0855  0.5615
  314MOL    F3338219   3.282   5.338   7.035 -0.0052  0.0616 -0.2924
  314MOL    F3438220   3.255   5.150   6.950 -0.4190 -0.0360  0.4974
  314MOL    C3538221   3.061   5.265   6.988 -0.8076  0.0330 -0.2671
  314MOL    H3638222   3.002   5.175   6.971 -0.1784  0.2007 -3.5121
  314MOL    H3738223   3.073   5.309   6.889  0.7762  0.8122  0.2611
  314MOL    C3838224   2.987   5.368   7.070  0.6379 -0.0607  0.4494
  314MOL    F3938225   2.957   5.310   7.185 -0.1332 -0.1663 -0.2977
  314MOL    F4038226   3.068   5.467   7.087  0.2464 -0.2790 -0.3257
  314MOL    C4138227   2.860   5.424   6.999 -0.8539  0.2972  0.3696
  314MOL    H4238228   2.798   5.346   6.956 -0.2165 -0.1544  0.2610
  314MOL    H4338229   2.886   5.485   6.913  0.2305 -0.1979  0.3461
  314MOL    C4438230   2.761   5.495   7.099 -0.6927  0.3275  0.3275
  314MOL    F4538231   2.663   5.544   7.034 -0.1779  0.0967  0.2709
  314MOL    F4638232   2.701   5.396   7.173 -0.2316 -0.6589 -0.1392
  314MOL    C4738233   2.827   5.596   7.192 -0.2277 -0.4325  0.3975
  314MOL    H4838234   2.911   5.561   7.251  0.6128 -0.7834 -1.0004
  314MOL    H4938235   2.752   5.610   7.270 -1.5979  0.0700 -0.9847
  314MOL    C5038236   2.873   5.726   7.121 -0.5748 -0.9508  0.4455
  314MOL    F5138237   2.952   5.704   7.015 -0.4515  0.6709  0.0605
  314MOL    F5238238   2.765   5.790   7.076  0.6269 -0.7819  0.2112
  314MOL    C5338239   2.944   5.829   7.215  0.1697  0.1980  0.2542
  314MOL    H5438240   2.876   5.850   7.298  0.5187 -0.7949  0.7982
  314MOL    H5538241   2.944   5.923   7.159 -0.8765 -0.4136 -0.7843
  314MOL    C5638242   3.082   5.801   7.275  1.3741 -0.0850 -0.1569
  314MOL    F5738243   3.096   5.906   7.358  0.4984  0.2570  0.1715
  314MOL    F5838244   3.072   5.694   7.351 -0.0421  0.5049  0.3852
  314MOL    C5938245   3.195   5.781   7.168 -0.8621  0.0230  0.1899
  314MOL    H6038246   3.201   5.858   7.092  0.1658  0.7043  0.9536
  314MOL    H6138247   3.167   5.694   7.109 -2.0908 -0.9809  2.1801
  314MOL    C6238248   3.340   5.771   7.230 -1.0017 -0.5975 -0.2847
  314MOL    F6338249   3.428   5.734   7.135  0.0990  0.2922 -0.2256
  314MOL    F6438250   3.382   5.892   7.270 -0.1130 -0.2289  0.0153
  314MOL    C6538251   3.343   5.678   7.353 -0.0543  0.3804 -0.1445
  314MOL    H6638252   3.292   5.587   7.322  0.9013  0.2306 -1.2933
  314MOL    H6738253   3.284   5.707   7.440  1.5263 -0.0675  1.0959
  314MOL    C6838254   3.485   5.647   7.414  0.5509  0.5102  0.1544
  314MOL    F6938255   3.453   5.542   7.497 -0.1463 -0.3951 -0.5099
  314MOL    F7038256   3.568   5.614   7.312 -0.1552 -0.2979  0.3385
  314MOL    C7138257   3.538   5.769   7.501 -0.3527  0.0044 -0.0888
  314MOL    H7238258   3.455   5.803   7.563  0.0845  0.1211  0.4367
  314MOL    H7338259   3.558   5.843   7.424  2.0597 -0.8161 -0.2978
  314MOL    C7438260   3.665   5.734   7.581 -0.6278  0.1233  0.5722
  314MOL    F7538261   3.640   5.644   7.677 -0.1756 -0.3003 -0.3782
  314MOL    F7638262   3.764   5.680   7.504  0.1515 -0.0539 -0.3726
  314MOL    C7738263   3.745   5.853   7.636 -0.2755  0.6215  0.0863
  314MOL    H7838264   3.763   5.917   7.550  1.1266  1.4125  0.9565
  314MOL    H7938265   3.839   5.810   7.671 -0.1264  0.3580 -0.6139
  314MOL    C8038266   3.677   5.933   7.744  0.8125  0.0767  0.0886
  314MOL    F8138267   3.563   5.972   7.693 -0.4468 -0.1190  0.3288
  314MOL    F8238268   3.648   5.856   7.851 -0.1727 -0.3239 -0.1979
  314MOL    C8338269   3.761   6.060   7.782  0.2573 -0.2836 -0.0626
  314MOL    H8438270   3.797   6.103   7.688  1.7286 -0.1310  0.5435
  314MOL    H8538271   3.853   6.040   7.837  0.3813 -0.6265 -0.3918
  314MOL    C8638272   3.679   6.167   7.847  0.3837  0.2233 -0.5322
  314MOL    F8738273   3.767   6.266   7.877 -0.0070  0.0924  0.4957
  314MOL    F8838274   3.580   6.220   7.775 -0.7588  0.0025  0.8693
  314MOL    C8938275   3.614   6.116   7.978  0.1753 -0.1179 -0.6992
  314MOL    H9038276   3.681   6.054   8.036 -0.3622 -0.3423 -0.3126
  314MOL    H9138277   3.530   6.049   7.956  0.8425 -1.7420  1.5825
  314MOL    C9238278   3.569   6.227   8.070 -0.0710  0.4868  0.7868
  314MOL    F9338279   3.512   6.177   8.179 -0.4448  0.3643  0.7173
  314MOL    F9438280   3.670   6.296   8.114  0.3701  0.2932  0.4100
  314MOL    C9538281   3.463   6.330   8.009  0.0451  0.8821  0.1250
  314MOL    H9638282   3.506   6.392   7.930 -1.2968  1.7497  0.0486
  314MOL    H9738283   3.437   6.402   8.087 -1.7133  0.2899  0.1097
  314MOL    C9838284   3.328   6.272   7.967  0.2875  0.5262 -0.8158
  314MOL    F9938285   3.340   6.165   7.902  0.0117 -0.5021  0.3375
  314MOL   F10038286   3.268   6.228   8.079  0.0468  0.7081 -0.1650
  314MOL   C10138287   3.239   6.373   7.899  0.4904 -0.3692 -0.1903
  314MOL   H10238288   3.280   6.406   7.804  2.1411 -0.5623  0.4317
  314MOL   H10338289   3.243   6.462   7.961 -0.4751 -1.3865  1.3864
  314MOL   C10438290   3.095   6.333   7.872  0.1409 -0.4601 -0.6023
  314MOL   F10538291   3.093   6.211   7.815 -0.0851 -0.7381  0.1769
  314MOL   F10638292   3.015   6.324   7.983 -0.2996 -0.1930 -0.6691
  314MOL   C10738293   3.021   6.434   7.776 -0.7089  0.7861  0.2945
  314MOL   H10838294   2.913   6.416   7.772 -0.9610  2.0708  1.0439
  314MOL   H10938295   3.055   6.442   7.673 -1.2703 -1.3063 -0.0831
  314MOL   C11038296   3.013   6.578   7.831  0.0655 -0.0471 -0.8512
  314MOL   F11138297   2.957   6.571   7.955 -0.2958 -0.1225  0.2866
  314MOL   F11238298   3.133   6.625   7.836 -0.1250 -0.3689 -0.3351
  314MOL   C11338299   2.914   6.674   7.752 -0.3639 -0.2590 -0.4400
  314MOL   H11438300   2.807   6.652   7.751 -0.3157 -0.5242  0.1573
  314MOL   H11538301   2.940   6.665   7.646 -0.5039  1.5344 -0.6361
  314MOL   C11638302   2.925   6.829   7.799 -0.4214 -0.6919  0.4395
  314MOL   F11738303   2.922   6.843   7.935  0.0632  0.3787  0.2209
  314MOL   F11838304   3.033   6.888   7.744  0.0164  0.0421  0.5991
  314MOL   C11938305   2.809   6.915   7.749  0.3801  0.0136 -0.0035
  314MOL   H12038306   2.825   7.019   7.777  2.6019 -0.6641  1.3562
  314MOL   H12138307   2.710   6.877   7.772  0.9951 -1.4499  0.2892
  314MOL   H12238308   2.818   6.919   7.640  0.9573  1.9849  0.1014
  315MOL     C138309   8.202   0.700   2.551 -0.4849  0.8932 -0.4237
  315MOL     F238310   8.193   0.821   2.599  0.0906 -0.1393 -0.1537
  315MOL     F338311   8.204   0.703   2.418 -0.1450 -0.1681 -0.1780
  315MOL     C438312   8.087   0.611   2.611  0.3641  0.2000  0.0043
  315MOL     H538313   8.115   0.595   2.715 -0.6055  3.0874  0.7478
  315MOL     H638314   8.087   0.511   2.567  3.7557 -0.1596  0.7376
  315MOL     H738315   8.301   0.665   2.578 -1.9649 -1.1757  2.6019
  315MOL     C838316   7.941   0.658   2.595 -0.0161  0.8372 -0.0827
  315MOL     F938317   7.909   0.756   2.673  0.0063 -0.0114  0.4192
  315MOL    F1038318   7.937   0.705   2.474  0.0090  0.0349  0.1657
  315MOL    C1138319   7.836   0.541   2.602  0.0290 -0.3918  0.0514
  315MOL    H1238320   7.845   0.494   2.699 -1.2180  0.1398  0.4364
  315MOL    H1338321   7.867   0.461   2.534 -1.6698 -0.5972 -0.4956
  315MOL    C1438322   7.690   0.578   2.572  0.1765  0.9354 -0.4253
  315MOL    F1538323   7.645   0.656   2.671  0.3634  0.5838 -0.1440
  315MOL    F1638324   7.675   0.646   2.459  0.1084 -0.2159  0.1610
  315MOL    C1738325   7.606   0.447   2.564  0.4227  0.2471 -0.7058
  315MOL    H1838326   7.628   0.381   2.649 -0.3684  1.4164  0.4299
  315MOL    H1938327   7.653   0.402   2.477 -1.5121  0.3756 -1.8415
  315MOL    C2038328   7.448   0.460   2.560  0.2732  0.6307 -0.5384
  315MOL    F2138329   7.392   0.333   2.556 -0.4623 -0.3090 -0.8524
  315MOL    F2238330   7.410   0.514   2.674  0.2754 -0.0870 -0.5355
  315MOL    C2338331   7.386   0.524   2.436  0.2822 -0.1307 -0.2854
  315MOL    H2438332   7.387   0.456   2.351 -0.9458  1.5479 -1.6824
  315MOL    H2538333   7.439   0.614   2.403 -0.9720  0.9739  0.6948
  315MOL    C2638334   7.230   0.554   2.455  0.5165 -0.1384 -0.2847
  315MOL    F2738335   7.192   0.611   2.338  0.9393  0.5291  0.1066
  315MOL    F2838336   7.158   0.441   2.459  0.6263  0.4289  0.5423
  315MOL    C2938337   7.187   0.648   2.567  0.1239 -0.9198 -0.6313
  315MOL    H3038338   7.184   0.603   2.666  3.2273 -0.2644 -0.2155
  315MOL    H3138339   7.083   0.676   2.549  0.0277  1.3516  3.0455
  315MOL    C3238340   7.260   0.790   2.581  0.0951  0.5542  0.0441
  315MOL    F3338341   7.388   0.757   2.613  0.5911  0.5403 -0.4963
  315MOL    F3438342   7.278   0.849   2.457  0.8304  0.0462  0.5270
  315MOL    C3538343   7.195   0.880   2.682 -0.0492  0.9303 -0.2088
  315MOL    H3638344   7.217   0.819   2.770  0.4850 -1.3187 -1.8693
  315MOL    H3738345   7.088   0.881   2.663 -0.0021 -1.6148 -0.8069
  315MOL    C3838346   7.260   1.023   2.682  0.5528  0.2665 -0.2404
  315MOL    F3938347   7.223   1.086   2.570  0.2726 -0.2454 -0.3725
  315MOL    F4038348   7.195   1.081   2.787 -0.3109 -0.2811  0.1356
  315MOL    C4138349   7.411   1.041   2.698 -0.4666 -0.5546  0.7309
  315MOL    H4238350   7.436   1.146   2.685  0.5732 -0.9097 -0.1801
  315MOL    H4338351   7.461   0.994   2.614  1.0544  0.1247  1.2310
  315MOL    C4438352   7.464   0.979   2.836  0.7035 -0.2040 -0.7348
  315MOL    F4538353   7.424   1.045   2.945  0.1568 -0.4170  0.2156
  315MOL    F4638354   7.442   0.855   2.855  0.2594  0.3305  0.4834
  315MOL    C4738355   7.617   0.985   2.834  0.3551  0.7146  0.0282
  315MOL    H4838356   7.653   0.907   2.767 -0.6706 -0.2513  0.5931
  315MOL    H4938357   7.648   0.953   2.934 -1.9011  3.4614  1.6802
  315MOL    C5038358   7.685   1.109   2.788  0.2317 -1.1953  0.4911
  315MOL    F5138359   7.686   1.126   2.656 -1.0144 -0.2554  0.5217
  315MOL    F5238360   7.615   1.209   2.837 -0.4616  0.6231 -0.2222
  315MOL    C5338361   7.831   1.107   2.844  0.3285  0.1078  0.0520
  315MOL    H5438362   7.892   1.044   2.779 -3.3712 -1.8225 -1.6819
  315MOL    H5538363   7.839   1.054   2.940  0.2202  2.1760  1.2259
  315MOL    C5638364   7.893   1.246   2.863 -0.7277 -0.9370  0.7870
  315MOL    F5738365   7.913   1.318   2.747  0.2577  0.7975 -0.2955
  315MOL    F5838366   7.825   1.319   2.952 -0.3028 -0.4466  0.5583
  315MOL    C5938367   8.041   1.235   2.917  0.4021 -0.8828  0.1748
  315MOL    H6038368   8.090   1.332   2.911  1.8997 -1.6554 -0.4711
  315MOL    H6138369   8.105   1.182   2.846  1.4166 -0.2828  0.6235
  315MOL    C6238370   8.058   1.178   3.053 -0.2273 -0.1244  0.1759
  315MOL    F6338371   7.975   1.244   3.134 -0.1075 -0.0990 -0.0852
  315MOL    F6438372   8.013   1.054   3.054  0.1240 -0.0166  0.4273
  315MOL    C6538373   8.198   1.178   3.120 -0.5522 -1.3450 -0.4144
  315MOL    H6638374   8.200   1.094   3.189 -0.9061  0.0575  1.3131
  315MOL    H6738375   8.208   1.268   3.181 -0.1078 -0.4462 -1.7702
  315MOL    C6838376   8.329   1.176   3.026 -0.6784  0.6914  0.2147
  315MOL    F6938377   8.329   1.070   2.941  0.1088  0.0280  0.3860
  315MOL    F7038378   8.327   1.283   2.945 -0.4781  0.4599  0.3054
  315MOL    C7138379   0.117   1.176   3.098  0.0316 -0.3741 -0.1448
  315MOL    H7238380   0.122   1.272   3.148 -2.3644 -0.8282  1.0115
  315MOL    H7338381   0.194   1.184   3.021  2.4396  0.2590  2.2740
  315MOL    C7438382   0.143   1.064   3.208  0.1794  0.2755 -0.1832
  315MOL    F7538383   0.268   1.076   3.256  0.1974  0.3219  0.2048
  315MOL    F7638384   0.060   1.089   3.315  0.5134  0.6358  0.7360
  315MOL    C7738385   0.104   0.923   3.156  0.1429  0.0696 -0.0136
  315MOL    H7838386   0.150   0.895   3.061  2.3978 -0.7286  1.2776
  315MOL    H7938387   8.345   0.912   3.150  0.3453 -2.4059  0.1655
  315MOL    C8038388   0.137   0.799   3.252 -0.2507 -0.3926  0.7596
  315MOL    F8138389   0.098   0.692   3.185  0.1606 -0.0571  0.0994
  315MOL    F8238390   0.264   0.814   3.259 -0.2545 -0.2154  0.0730
  315MOL    C8338391   0.089   0.801   3.399 -0.3019 -0.3919 -0.0902
  315MOL    H8438392   8.330   0.791   3.396 -0.3881  0.4537  0.3513
  315MOL    H8538393   0.111   0.897   3.445  0.9274 -1.0951  0.8064
  315MOL    C8638394   0.153   0.686   3.487  0.2029 -0.8812 -0.2384
  315MOL    F8738395   0.130   0.564   3.450  0.0394  0.0530  0.1980
  315MOL    F8838396   0.284   0.693   3.482  0.1340  0.0635 -0.3567
  315MOL    C8938397   0.117   0.712   3.638 -0.2409  0.5454 -0.7739
  315MOL    H9038398   0.017   0.751   3.653 -0.4521 -0.8788  1.9255
  315MOL    H9138399   0.180   0.794   3.671  1.1817  0.2048 -2.5702
  315MOL    C9238400   0.128   0.590   3.732 -0.5847  0.0243 -0.2072
  315MOL    F9338401   0.090   0.631   3.857 -0.1246 -0.4762  0.3084
  315MOL    F9438402   0.033   0.503   3.694 -0.6369  0.4554 -0.4883
  315MOL    C9538403   0.262   0.512   3.738  0.2727 -1.0537 -0.1262
  315MOL    H9638404   0.340   0.578   3.776 -0.4108 -0.1533 -0.2640
  315MOL    H9738405   0.283   0.494   3.633  1.3825 -2.3179  0.2971
  315MOL    C9838406   0.253   0.365   3.794 -0.1165  0.7605 -0.2631
  315MOL    F9938407   0.160   0.296   3.719  0.5802 -0.5519  0.3831
  315MOL   F10038408   0.363   0.304   3.771 -0.2180  0.3276 -0.1242
  315MOL   C10138409   0.212   0.344   3.944 -0.1191 -0.1918  0.7322
  315MOL   H10238410   0.188   0.239   3.961  0.0402 -0.7202 -2.1292
  315MOL   H10338411   0.117   0.395   3.962 -0.8973 -1.6988  0.9967
  315MOL   C10438412   0.306   0.392   4.052  0.4501  0.1475  0.0376
  315MOL   F10538413   0.430   0.350   4.032 -0.0012 -0.0347  0.1255
  315MOL   F10638414   0.309   0.526   4.051 -0.0851 -0.0825 -0.4394
  315MOL   C10738415   0.259   0.361   4.197  0.2750 -0.4554  0.4001
  315MOL   H10838416   0.229   0.257   4.208  1.0061 -0.5300  1.7492
  315MOL   H10938417   0.169   0.422   4.213 -0.1445 -0.0899 -2.9112
  315MOL   C11038418   0.360   0.402   4.306  0.5260 -0.5895  0.5276
  315MOL   F11138419   0.458   0.304   4.303 -0.1518  0.4680 -0.1325
  315MOL   F11238420   0.414   0.524   4.301 -0.3203 -0.3798 -0.3688
  315MOL   C11338421   0.295   0.391   4.449 -0.9979 -0.1859  0.0286
  315MOL   H11438422   0.253   0.292   4.466 -0.9602 -0.7538 -2.9132
  315MOL   H11538423   0.204   0.451   4.456  1.2014  3.0513  3.4449
  315MOL   C11638424   0.379   0.419   4.579 -0.8039 -0.8004  0.6832
  315MOL   F11738425   0.303   0.384   4.683  0.0133  0.2827 -0.4939
  315MOL   F11838426   0.487   0.345   4.588  0.5810 -0.0620  0.2092
  315MOL   C11938427   0.421   0.566   4.601 -0.8260 -0.4716  0.1595
  315MOL   H12038428   0.343   0.642   4.595  0.4769  0.9515  0.9603
  315MOL   H12138429   0.502   0.600   4.536  0.6469 -3.0129  0.5659
  315MOL   H12238430   0.456   0.576   4.704  2.0245 -0.7193 -0.7227
  316MOL     C138431   5.416   0.390   4.722 -0.0385  0.6025 -0.5593
  316MOL     F238432   5.308   0.309   4.705 -0.0873  0.5253  0.4502
  316MOL     F338433   5.437   0.417   4.851  0.1905  0.3543  0.2058
  316MOL     C438434   5.390   0.518   4.638  0.0949 -0.5121 -0.0974
  316MOL     H538435   5.317   0.591   4.674  1.3101  1.1579 -0.9126
  316MOL     H638436   5.346   0.485   4.545  1.3031 -1.2995 -0.3928
  316MOL     H738437   5.502   0.338   4.680 -1.3209 -1.4900 -0.6667
  316MOL     C838438   5.525   0.596   4.614  0.0666  0.0074  0.7131
  316MOL     F938439   5.583   0.597   4.735  0.3485 -0.3160  0.5435
  316MOL    F1038440   5.593   0.521   4.528  0.2990  0.2130  0.0837
  316MOL    C1138441   5.520   0.739   4.552  0.9918 -1.0553  0.6878
  316MOL    H1238442   5.618   0.787   4.564 -0.0674  0.9065  1.8635
  316MOL    H1338443   5.455   0.782   4.629 -1.0382 -1.5462 -0.7170
  316MOL    C1438444   5.444   0.770   4.420 -0.1558 -0.2274 -0.1690
  316MOL    F1538445   5.314   0.732   4.433 -0.5156  0.3808 -0.2674
  316MOL    F1638446   5.447   0.902   4.403 -0.5324  0.0509 -0.2784
  316MOL    C1738447   5.506   0.704   4.292 -0.1911 -0.4268 -0.5672
  316MOL    H1838448   5.529   0.598   4.308 -1.6927 -0.4817  1.4559
  316MOL    H1938449   5.602   0.755   4.290 -0.4295  0.0566  0.2506
  316MOL    C2038450   5.433   0.734   4.158 -0.3824  0.8432 -0.1429
  316MOL    F2138451   5.471   0.644   4.072  0.8390  0.4516 -0.4910
  316MOL    F2238452   5.300   0.724   4.180 -0.0893  0.8492 -0.3315
  316MOL    C2338453   5.461   0.873   4.090  1.0801  0.6385 -0.0851
  316MOL    H2438454   5.565   0.906   4.086  1.3322 -0.3935 -2.4492
  316MOL    H2538455   5.405   0.947   4.147  0.8497 -0.5078  1.1981
  316MOL    C2638456   5.402   0.876   3.947  0.0689  0.3647 -0.8564
  316MOL    F2738457   5.480   0.815   3.855 -0.2762  0.2930 -0.1356
  316MOL    F2838458   5.295   0.802   3.946  0.4296 -0.0778 -0.7893
  316MOL    C2938459   5.364   1.016   3.888 -0.1230  0.1035  0.7000
  316MOL    H3038460   5.355   1.025   3.780 -1.8195  2.4627  1.0095
  316MOL    H3138461   5.454   1.076   3.900 -0.6948  1.2835 -0.8637
  316MOL    C3238462   5.239   1.085   3.947  0.0997  0.0121  0.1449
  316MOL    F3338463   5.268   1.113   4.073 -0.1644  0.4960 -0.2002
  316MOL    F3438464   5.221   1.197   3.882 -0.2766 -0.2078  0.3204
  316MOL    C3538465   5.109   1.004   3.936  0.3630 -0.5905 -0.2275
  316MOL    H3638466   5.121   0.926   4.011 -0.1716 -0.8306 -0.3880
  316MOL    H3738467   5.120   0.949   3.843 -0.7912 -0.1282 -0.6521
  316MOL    C3838468   4.973   1.081   3.946 -0.4573 -0.1144 -0.3507
  316MOL    F3938469   4.979   1.158   4.053  0.3001 -0.0917  0.2129
  316MOL    F4038470   4.958   1.159   3.841 -0.6917 -0.5885 -0.0755
  316MOL    C4138471   4.854   0.994   3.964  1.0747  0.2324 -1.2262
  316MOL    H4238472   4.772   1.064   3.972  2.2267  1.8096 -3.0014
  316MOL    H4338473   4.854   0.948   4.063  2.0369 -0.8545 -1.7107
  316MOL    C4438474   4.833   0.883   3.861  0.3029  0.2548 -0.7276
  316MOL    F4538475   4.855   0.935   3.744  0.0043 -0.0929  0.7590
  316MOL    F4638476   4.926   0.792   3.880  0.3814 -0.3446  0.5419
  316MOL    C4738477   4.697   0.821   3.855  0.2049 -0.2149  0.0061
  316MOL    H4838478   4.671   0.802   3.959 -0.7809  0.6780 -0.0667
  316MOL    H4938479   4.697   0.736   3.787 -0.4114 -0.2889  0.0976
  316MOL    C5038480   4.588   0.917   3.793 -0.4297 -0.1182  0.7413
  316MOL    F5138481   4.574   1.032   3.860  0.2697  0.1447  0.2211
  316MOL    F5238482   4.604   0.948   3.665  0.0757 -0.4117 -0.6545
  316MOL    C5338483   4.452   0.846   3.798 -0.1590  0.6339 -0.1531
  316MOL    H5438484   4.415   0.829   3.900 -0.3204 -2.5386 -0.6818
  316MOL    H5538485   4.462   0.740   3.775 -0.4244  0.5096  0.2840
  316MOL    C5638486   4.330   0.895   3.713  0.0058 -0.3918  0.5235
  316MOL    F5738487   4.355   0.900   3.587  0.3336 -0.0402 -0.4185
  316MOL    F5838488   4.228   0.804   3.723  0.2008  0.1145 -0.5754
  316MOL    C5938489   4.275   1.040   3.746  0.6059 -0.0396  0.0146
  316MOL    H6038490   4.183   1.055   3.689  0.3572  0.8237  0.6368
  316MOL    H6138491   4.340   1.123   3.717 -0.2221  1.0312  1.1488
  316MOL    C6238492   4.244   1.064   3.897  0.4046 -0.5350  0.0363
  316MOL    F6338493   4.355   1.051   3.971 -0.3418  0.5420  0.3231
  316MOL    F6438494   4.209   1.194   3.901 -0.0897  0.3726  0.2836
  316MOL    C6538495   4.129   0.967   3.953  0.8261  0.8295  0.5043
  316MOL    H6638496   4.119   0.984   4.060  0.7562 -1.9798  0.9584
  316MOL    H6738497   4.155   0.863   3.935 -0.4910  0.6502 -0.4032
  316MOL    C6838498   3.989   0.976   3.896 -0.4720  1.1338  0.1423
  316MOL    F6938499   3.975   0.931   3.769  0.6290  0.2699  0.2240
  316MOL    F7038500   3.914   0.890   3.968 -0.4203 -0.3168  0.7333
  316MOL    C7138501   3.917   1.118   3.892  0.1105  0.0002 -0.2560
  316MOL    H7238502   3.976   1.179   3.823 -0.4623  0.5468 -0.2669
  316MOL    H7338503   3.924   1.177   3.984 -1.2421  1.1528 -0.8756
  316MOL    C7438504   3.766   1.115   3.859 -0.5963  0.2322  0.0550
  316MOL    F7538505   3.701   1.062   3.963 -0.2533  0.1288  0.1050
  316MOL    F7638506   3.743   1.247   3.865 -0.2673  0.2378  0.0224
  316MOL    C7738507   3.727   1.057   3.726 -0.3735  0.2184 -0.8961
  316MOL    H7838508   3.740   0.949   3.741 -0.7322  0.1636 -0.9746
  316MOL    H7938509   3.794   1.097   3.650 -1.3927  2.5286 -0.6055
  316MOL    C8038510   3.581   1.083   3.684 -0.5649  0.6351 -0.3144
  316MOL    F8138511   3.563   1.019   3.570 -0.3165  0.3004 -0.3154
  316MOL    F8238512   3.495   1.045   3.779  0.1138  0.1100  0.3624
  316MOL    C8338513   3.558   1.233   3.653  0.1860  0.0912  0.4571
  316MOL    H8438514   3.640   1.265   3.588  0.5192 -1.5371  0.0578
  316MOL    H8538515   3.551   1.296   3.741  3.5951 -0.7769  1.4159
  316MOL    C8638516   3.433   1.259   3.570 -0.2602 -0.4397 -0.0939
  316MOL    F8738517   3.434   1.382   3.535  0.4678 -0.5463 -0.2174
  316MOL    F8838518   3.434   1.194   3.459 -0.0883  0.4876 -1.3030
  316MOL    C8938519   3.292   1.231   3.642  0.4413  0.6291  0.4305
  316MOL    H9038520   3.287   1.128   3.677 -1.1375  0.1629 -1.0886
  316MOL    H9138521   3.213   1.237   3.567 -2.0118  0.4173  2.9192
  316MOL    C9238522   3.258   1.317   3.766 -0.3573 -0.0841 -0.1559
  316MOL    F9338523   3.341   1.289   3.869  0.3019  0.5898 -0.2256
  316MOL    F9438524   3.282   1.445   3.728  0.1408  0.4817 -0.2622
  316MOL    C9538525   3.118   1.301   3.814 -0.9033  0.7238 -0.2413
  316MOL    H9638526   3.123   1.205   3.865  1.6703  0.1295 -1.5275
  316MOL    H9738527   3.055   1.276   3.729 -1.6458 -0.8566  0.7658
  316MOL    C9838528   3.050   1.406   3.903  0.1952 -0.8007  0.3901
  316MOL    F9938529   3.031   1.525   3.841 -0.3405  0.1959  0.0054
  316MOL   F10038530   2.924   1.366   3.913 -0.1910 -0.1516 -0.9711
  316MOL   C10138531   3.110   1.430   4.041  0.1085  0.1493 -0.9029
  316MOL   H10238532   3.211   1.466   4.026  0.2561 -0.3486 -1.1267
  316MOL   H10338533   3.124   1.336   4.095 -2.7888  0.0402 -0.2474
  316MOL   C10438534   3.028   1.517   4.136  0.3638  0.0011 -0.0549
  316MOL   F10538535   3.041   1.645   4.104 -0.0720  0.1583  0.1651
  316MOL   F10638536   2.900   1.484   4.145 -0.1104  0.6683 -0.4912
  316MOL   C10738537   3.076   1.501   4.283  0.3159 -0.1627 -0.6316
  316MOL   H10838538   3.184   1.509   4.273  0.3586  0.1103  0.0518
  316MOL   H10938539   3.070   1.395   4.309  3.6106 -0.2314  0.0333
  316MOL   C11038540   3.008   1.591   4.384 -0.7184 -0.0697  0.0858
  316MOL   F11138541   3.023   1.715   4.348 -0.5094  0.7460 -0.2939
  316MOL   F11238542   2.875   1.563   4.400 -0.2512  0.1866  0.3064
  316MOL   C11338543   3.080   1.578   4.519 -0.5407 -0.2012  0.2070
  316MOL   H11438544   3.077   1.476   4.558 -0.6966  0.0840  0.9428
  316MOL   H11538545   3.044   1.644   4.598  0.5901  1.0365 -0.3041
  316MOL   C11638546   3.232   1.604   4.523 -0.0799 -0.4082 -0.8451
  316MOL   F11738547   3.302   1.504   4.481  0.3476  0.3841 -0.5857
  316MOL   F11838548   3.276   1.708   4.450  1.0971  0.0290  1.3451
  316MOL   C11938549   3.280   1.617   4.669 -0.3150 -0.3173 -0.0059
  316MOL   H12038550   3.388   1.602   4.671  0.0070  1.7067 -1.4372
  316MOL   H12138551   3.242   1.533   4.728 -1.0045 -0.4350 -0.6068
  316MOL   H12238552   3.254   1.708   4.723 -1.5283  0.2560 -1.5244
  317MOL     C138553   3.682   2.617   2.018  0.0057 -0.5534  0.0482
  317MOL     F238554   3.563   2.613   1.963  0.8153 -0.0269  0.0192
  317MOL     F338555   3.713   2.735   2.069  0.0243 -0.0656 -0.6900
  317MOL     C438556   3.795   2.577   1.922 -0.1450 -0.5182  0.5455
  317MOL     H538557   3.891   2.593   1.972 -0.6185  1.3839  0.9173
  317MOL     H638558   3.801   2.644   1.836  0.5678  0.8170  1.6046
  317MOL     H738559   3.686   2.549   2.103  2.4131  0.5650  0.8962
  317MOL     C838560   3.805   2.429   1.893 -0.4043  0.0329 -0.5753
  317MOL     F938561   3.841   2.364   2.003 -0.0481 -0.0378  0.3680
  317MOL    F1038562   3.681   2.395   1.865  0.3672 -0.2907 -0.0194
  317MOL    C1138563   3.895   2.386   1.775  0.3585 -0.6105  0.2387
  317MOL    H1238564   3.870   2.428   1.677  3.7101 -0.9479 -0.8261
  317MOL    H1338565   3.889   2.278   1.756 -0.6683 -0.3730 -0.8479
  317MOL    C1438566   4.045   2.416   1.792 -0.5667  0.3174  0.2229
  317MOL    F1538567   4.061   2.551   1.810 -0.3879  0.0922  0.2805
  317MOL    F1638568   4.092   2.356   1.904 -0.0734 -0.6386 -0.1712
  317MOL    C1738569   4.142   2.383   1.671 -0.4112  0.3517  1.0064
  317MOL    H1838570   4.241   2.420   1.697 -0.0894 -0.0043  0.2835
  317MOL    H1938571   4.108   2.449   1.592  0.7150 -1.7763 -1.3065
  317MOL    C2038572   4.157   2.239   1.626  0.3381 -0.1996 -0.2645
  317MOL    F2138573   4.038   2.202   1.578  0.1709  0.2258 -0.6330
  317MOL    F2238574   4.250   2.242   1.531 -0.0407 -0.2910 -0.0483
  317MOL    C2338575   4.199   2.144   1.726 -0.0501  0.3050 -0.6863
  317MOL    H2438576   4.135   2.141   1.814  2.1151  2.0413  1.0092
  317MOL    H2538577   4.298   2.181   1.755  0.4670 -0.5230 -1.3613
  317MOL    C2638578   4.235   2.005   1.686  0.1429 -0.2573 -0.6929
  317MOL    F2738579   4.338   2.015   1.600  0.0787  0.1968  0.8867
  317MOL    F2838580   4.292   1.950   1.796  0.4830 -0.6778  0.2086
  317MOL    C2938581   4.120   1.921   1.628  0.5528  0.2787 -0.2048
  317MOL    H3038582   4.067   1.958   1.541 -0.0654  0.9864  0.4697
  317MOL    H3138583   4.044   1.909   1.706 -0.0202 -1.8096 -1.0506
  317MOL    C3238584   4.164   1.771   1.603 -0.6106 -0.2302  0.1142
  317MOL    F3338585   4.287   1.771   1.551  0.8184  0.4651 -0.0615
  317MOL    F3438586   4.160   1.707   1.724  0.2294  0.0661  0.0206
  317MOL    C3538587   4.070   1.700   1.502 -0.4256  0.7509 -0.1222
  317MOL    H3638588   4.123   1.610   1.470 -2.2969  0.4596 -2.6345
  317MOL    H3738589   4.055   1.760   1.412  1.7989 -1.2054 -1.8489
  317MOL    C3838590   3.932   1.656   1.551 -0.6919  0.4106  0.5666
  317MOL    F3938591   3.949   1.552   1.636  0.1148  0.0540  0.4311
  317MOL    F4038592   3.877   1.761   1.611 -0.3148 -0.1755  0.2030
  317MOL    C4138593   3.829   1.619   1.436  0.3281  0.4066 -0.4603
  317MOL    H4238594   3.806   1.704   1.372  1.2820  0.1355 -1.1787
  317MOL    H4338595   3.738   1.601   1.493 -0.1026 -1.1317 -1.6092
  317MOL    C4438596   3.866   1.492   1.352 -0.0104 -0.7841 -0.3953
  317MOL    F4538597   3.986   1.506   1.301  0.4416  0.1283  0.2028
  317MOL    F4638598   3.868   1.392   1.442 -0.2655  0.4213 -0.1858
  317MOL    C4738599   3.756   1.463   1.250  0.9900 -0.8625 -0.1135
  317MOL    H4838600   3.723   1.560   1.212 -1.2195 -1.9142 -1.0105
  317MOL    H4938601   3.671   1.424   1.306  2.1225  0.5648  2.7039
  317MOL    C5038602   3.796   1.369   1.130  0.1011 -0.7541 -0.4474
  317MOL    F5138603   3.697   1.359   1.043 -0.0365 -0.2486  0.4144
  317MOL    F5238604   3.889   1.433   1.058 -0.4235 -0.3570 -0.1593
  317MOL    C5338605   3.833   1.224   1.164  0.1507 -0.5528 -0.1685
  317MOL    H5438606   3.745   1.182   1.212 -0.2245  0.1183 -0.2658
  317MOL    H5538607   3.918   1.228   1.232 -0.5368  0.3568  0.6540
  317MOL    C5638608   3.886   1.133   1.057  0.2006  0.6387 -0.3295
  317MOL    F5738609   3.902   1.015   1.120 -0.3096 -0.3761  0.1809
  317MOL    F5838610   3.788   1.110   0.974 -0.4215 -0.1426 -0.2234
  317MOL    C5938611   4.016   1.167   0.981  0.7377  0.6479 -0.1788
  317MOL    H6038612   4.104   1.170   1.046 -0.5021  2.0006  1.5016
  317MOL    H6138613   4.006   1.274   0.961  0.3976  1.3325  3.3477
  317MOL    C6238614   4.051   1.100   0.848  0.1995  0.3886 -0.4823
  317MOL    F6338615   3.967   1.155   0.761 -0.5407  0.0711 -0.3323
  317MOL    F6438616   4.177   1.125   0.814  0.5763 -0.0560  0.8588
  317MOL    C6538617   4.015   0.950   0.842 -0.0042 -0.8041  0.8146
  317MOL    H6638618   3.909   0.944   0.864  0.0837 -1.9011  0.9537
  317MOL    H6738619   4.071   0.903   0.924  0.7694 -0.1963  0.6424
  317MOL    C6838620   4.034   0.881   0.707  0.3805  0.2298 -0.2091
  317MOL    F6938621   3.976   0.954   0.615  0.1710  0.1605 -0.1243
  317MOL    F7038622   4.159   0.872   0.686  0.2352 -0.3112 -0.3702
  317MOL    C7138623   3.967   0.741   0.716  0.1327  0.7047  0.2214
  317MOL    H7238624   3.859   0.753   0.723 -0.0875 -1.2365  0.4660
  317MOL    H7338625   4.002   0.693   0.807  0.2115 -0.9912 -0.6816
  317MOL    C7438626   3.996   0.640   0.608  0.7054  0.1951  0.3583
  317MOL    F7538627   4.123   0.612   0.598 -0.2725 -0.1896  0.2262
  317MOL    F7638628   3.922   0.528   0.634  0.0688 -0.3274 -0.0631
  317MOL    C7738629   3.960   0.685   0.464  0.0080 -1.2149  0.3950
  317MOL    H7838630   4.002   0.784   0.442  0.0254 -1.4311 -0.5503
  317MOL    H7938631   3.852   0.695   0.474 -0.1052 -1.2936 -0.7029
  317MOL    C8038632   3.998   0.586   0.366  0.1108  0.3363  0.5818
  317MOL    F8138633   4.129   0.574   0.352  0.1174  0.0388  0.4233
  317MOL    F8238634   3.950   0.470   0.398 -0.0218  0.5414  0.5634
  317MOL    C8338635   3.923   0.608   0.225 -1.1210 -0.1599 -0.1232
  317MOL    H8438636   3.817   0.592   0.244 -0.9808 -0.6598  0.2425
  317MOL    H8538637   3.954   0.515   0.178  0.2108  0.0026  0.4069
  317MOL    C8638638   3.953   0.739   0.149  0.4079  0.6798  0.2427
  317MOL    F8738639   3.928   0.847   0.223  0.6247 -0.1153  0.0479
  317MOL    F8838640   4.082   0.734   0.117  0.1117  0.0398 -0.3798
  317MOL    C8938641   3.858   0.739   0.022  0.0432 -0.2076  0.2271
  317MOL    H9038642   3.765   0.684   0.033 -1.0558  1.0325 -2.2002
  317MOL    H9138643   3.908   0.676   8.298 -1.2272 -2.0332  0.9047
  317MOL    C9238644   3.843   0.873   8.307  0.4358  0.5531  0.0340
  317MOL    F9338645   3.759   0.856   8.209  0.0564 -0.4117  0.2111
  317MOL    F9438646   3.792   0.956   0.045  0.2908  0.4777  0.2298
  317MOL    C9538647   3.980   0.924   8.246  0.2241 -0.1544  0.3893
  317MOL    H9638648   4.042   0.845   8.202 -2.1676 -0.8018 -1.9889
  317MOL    H9738649   4.045   0.960   8.326  1.1825  0.0951 -0.4889
  317MOL    C9838650   3.958   1.024   8.121  0.1278 -0.0824 -0.4565
  317MOL    F9938651   4.086   1.040   8.084  0.7772  0.1502  0.8721
  317MOL   F10038652   3.898   0.960   8.027  0.1027 -0.4351  0.0521
  317MOL   C10138653   3.882   1.155   8.155 -0.3160 -0.0069 -0.7783
  317MOL   H10238654   3.784   1.119   8.186  1.4810 -3.2139  1.4716
  317MOL   H10338655   3.874   1.204   8.058  0.3774  2.3499  0.3231
  317MOL   C10438656   3.948   1.257   8.254 -0.4291  0.2181  0.3200
  317MOL   F10538657   3.867   1.362   8.275  0.3509 -0.8117 -0.4001
  317MOL   F10638658   3.961   1.195   0.019 -0.2335  0.5353 -0.1995
  317MOL   C10738659   4.081   1.324   8.202 -0.1875 -0.1569 -0.5331
  317MOL   H10838660   4.065   1.349   8.097  1.0768  2.3652 -0.1745
  317MOL   H10938661   4.159   1.248   8.202  0.6369  0.6278 -3.7571
  317MOL   C11038662   4.142   1.448   8.273  0.3111  0.6533 -0.2351
  317MOL   F11138663   4.058   1.550   8.284  0.4481 -0.0247  0.0795
  317MOL   F11238664   4.185   1.409   0.042  0.3398  0.3637  0.5514
  317MOL   C11338665   4.268   1.505   8.197  0.2983  0.4277 -0.3286
  317MOL   H11438666   4.302   1.586   8.262 -1.1813  1.5085 -0.8867
  317MOL   H11538667   4.235   1.551   8.105  1.0496 -2.7618 -2.2938
  317MOL   C11638668   4.378   1.400   8.169 -0.3906 -0.0592  0.4213
  317MOL   F11738669   4.338   1.301   8.085  0.2719  0.0530 -0.2338
  317MOL   F11838670   4.474   1.481   8.125 -0.6692  0.0788  0.5711
  317MOL   C11938671   4.439   1.332   8.295  0.1572 -0.0229  0.4369
  317MOL   H12038672   4.526   1.274   8.265 -0.9593 -1.2626 -0.4644
  317MOL   H12138673   4.373   1.257   8.339  2.5731 -0.8589  2.7142
  317MOL   H12238674   4.474   1.397   0.025  1.0945 -0.6893  0.5773
  318MOL     C138675   0.842   5.778   7.465 -1.2478  0.5221 -0.6864
  318MOL     F238676   0.972   5.743   7.496 -0.4895  0.7725  0.3322
  318MOL     F338677   0.830   5.757   7.335 -0.0619 -0.4228  0.3285
  318MOL     C438678   0.817   5.921   7.502 -0.0538  0.0561 -0.2696
  318MOL     H538679   0.878   5.988   7.441 -0.7562 -0.1269 -1.1794
  318MOL     H638680   0.837   5.948   7.606  0.5747 -0.7551 -0.1754
  318MOL     H738681   0.782   5.705   7.520  1.1874  0.4132  1.9432
  318MOL     C838682   0.665   5.960   7.473 -0.3672  0.4554 -0.5169
  318MOL     F938683   0.625   5.950   7.350  0.0728  0.1910  0.3487
  318MOL    F1038684   0.580   5.878   7.538  0.0166  0.2583 -0.8153
  318MOL    C1138685   0.638   6.107   7.512 -0.1215 -0.3148  0.5176
  318MOL    H1238686   0.650   6.119   7.620 -0.6945 -2.5016  0.8589
  318MOL    H1338687   0.530   6.105   7.501  0.0095  1.6498 -1.3028
  318MOL    C1438688   0.712   6.220   7.438 -0.1865  0.6206  0.1787
  318MOL    F1538689   0.841   6.222   7.474 -0.6223  0.3938  0.0143
  318MOL    F1638690   0.698   6.207   7.303 -0.1966 -0.0967 -0.7669
  318MOL    C1738691   0.657   6.360   7.467  0.1942  0.4920 -0.0494
  318MOL    H1838692   0.671   6.386   7.572 -0.6351  1.2649 -0.1286
  318MOL    H1938693   0.549   6.359   7.451  0.2669 -2.3833 -0.6820
  318MOL    C2038694   0.719   6.476   7.391  0.0763 -0.2798 -0.4808
  318MOL    F2138695   0.852   6.482   7.417  0.1304 -0.0703  0.1925
  318MOL    F2238696   0.705   6.464   7.260  0.1228  0.7524 -0.5218
  318MOL    C2338697   0.679   6.617   7.427 -0.2531 -0.1708 -0.3929
  318MOL    H2438698   0.732   6.691   7.367 -0.9795 -1.1466 -2.2769
  318MOL    H2538699   0.722   6.642   7.524  2.6191  0.3088 -1.7480
  318MOL    C2638700   0.531   6.643   7.458  0.1487  0.1988 -0.3080
  318MOL    F2738701   0.466   6.607   7.343 -0.6870 -0.1998 -0.1363
  318MOL    F2838702   0.477   6.573   7.557  0.1417 -0.6920 -0.2657
  318MOL    C2938703   0.502   6.796   7.483 -0.0401 -0.0075 -0.4979
  318MOL    H3038704   0.515   6.854   7.392 -1.1807  1.6360  0.3557
  318MOL    H3138705   0.579   6.843   7.543  0.5202 -1.5883  0.0652
  318MOL    C3238706   0.354   6.832   7.525  0.3565  0.8090  0.5172
  318MOL    F3338707   0.335   6.784   7.649  0.0371  0.4258  0.0107
  318MOL    F3438708   0.343   6.965   7.544  0.1034  0.8647  0.4980
  318MOL    C3538709   0.243   6.782   7.427 -0.3763 -0.4406 -0.0661
  318MOL    H3638710   0.240   6.673   7.432  0.3195 -0.3542  3.1345
  318MOL    H3738711   0.278   6.807   7.326 -0.0727  1.8532  0.5611
  318MOL    C3838712   0.104   6.838   7.451  0.2291 -0.3778 -0.7720
  318MOL    F3938713   0.103   6.969   7.409  0.2597 -0.1791 -0.0658
  318MOL    F4038714   0.013   6.768   7.378 -0.0910 -0.3037  0.1882
  318MOL    C4138715   0.037   6.843   7.591  0.1167  0.1640 -0.0757
  318MOL    H4238716   8.298   6.906   7.589 -0.5510 -0.7466  0.3402
  318MOL    H4338717   0.103   6.900   7.657  0.8847 -0.5656 -0.2097
  318MOL    C4438718   0.010   6.714   7.651  0.4279  0.1448  0.1042
  318MOL    F4538719   8.247   6.658   7.605 -0.0828  0.0695 -0.0634
  318MOL    F4638720   0.114   6.629   7.624 -0.3732 -0.3558 -0.3825
  318MOL    C4738721   0.006   6.724   7.804 -0.3163 -0.5729 -0.6332
  318MOL    H4838722   0.101   6.770   7.831 -0.6517 -0.3391  0.1779
  318MOL    H4938723   0.016   6.623   7.845 -1.3055 -0.3316  0.2335
  318MOL    C5038724   8.247   6.814   7.875  0.6884  0.6290  0.3120
  318MOL    F5138725   8.269   6.807   8.002 -0.2354  0.2418 -0.0902
  318MOL    F5238726   8.268   6.942   7.841  0.2250  0.0940 -0.2352
  318MOL    C5338727   8.100   6.767   7.854  0.1141 -0.4865  0.2942
  318MOL    H5438728   8.087   6.760   7.746 -1.7544  3.3032  0.1795
  318MOL    H5538729   8.031   6.850   7.872 -1.3437 -1.6797  0.3316
  318MOL    C5638730   8.059   6.625   7.900 -0.4734 -0.1412  0.4227
  318MOL    F5738731   7.944   6.610   7.839 -0.2090 -0.3829 -0.1417
  318MOL    F5838732   8.141   6.541   7.843 -0.2783  0.1418  0.0538
  318MOL    C5938733   8.036   6.599   8.049 -0.4014  0.1455  0.7332
  318MOL    H6038734   7.946   6.652   8.083 -1.5172 -1.2878  0.0703
  318MOL    H6138735   8.117   6.635   8.113  1.0373 -1.5574 -0.1017
  318MOL    C6238736   8.005   6.455   8.087 -0.5621  1.0169 -0.0809
  318MOL    F6338737   8.117   6.386   8.055  0.2622  0.2878 -0.6748
  318MOL    F6438738   7.989   6.453   8.219 -0.7078 -0.0444 -0.1647
  318MOL    C6538739   7.884   6.387   8.029 -0.3740  0.0319 -0.0515
  318MOL    H6638740   7.878   6.281   8.053 -1.4047  0.0760 -0.1089
  318MOL    H6738741   7.891   6.384   7.920 -0.8797 -1.3662 -0.0538
  318MOL    C6838742   7.737   6.431   8.071 -0.9051  0.1410  0.0554
  318MOL    F6938743   7.728   6.565   8.049 -0.2273 -0.6333 -0.0068
  318MOL    F7038744   7.644   6.364   8.001  0.2404  0.3608  0.3579
  318MOL    C7138745   7.699   6.411   8.214 -0.4736  0.3323  0.5125
  318MOL    H7238746   7.769   6.463   8.281  0.0002  0.2819  0.0556
  318MOL    H7338747   7.716   6.307   8.241 -1.8026  0.6357  2.6859
  318MOL    C7438748   7.559   6.432   8.270  0.2859 -0.0459  0.9216
  318MOL    F7538749   7.457   6.384   8.190  0.0233  0.4830 -0.0860
  318MOL    F7638750   7.552   6.364   0.038 -0.1917 -0.5739 -0.2897
  318MOL    C7738751   7.516   6.576   8.285 -0.4204  0.6702  0.5471
  318MOL    H7838752   7.517   6.629   8.190 -0.4029  0.5079  0.4570
  318MOL    H7938753   7.592   6.627   8.345  0.6820 -0.7026  0.3501
  318MOL    C8038754   7.376   6.606   8.345 -1.2575 -0.4354 -0.3007
  318MOL    F8138755   7.282   6.590   8.255  0.1593 -0.3138  0.0013
  318MOL    F8238756   7.358   6.515   0.092  0.1161 -0.4151 -0.0213
  318MOL    C8338757   7.360   6.741   0.073 -0.1717  0.0964 -0.0459
  318MOL    H8438758   7.413   6.749   0.168 -0.6848  2.5317  0.0752
  318MOL    H8538759   7.258   6.729   0.109 -0.2501 -2.1101 -0.9370
  318MOL    C8638760   7.369   6.868   8.338 -0.3779  0.6067 -0.0142
  318MOL    F8738761   7.491   6.885   8.286  0.1332 -0.2855 -0.3275
  318MOL    F8838762   7.286   6.859   8.231 -0.0624 -0.6023  0.1839
  318MOL    C8938763   7.313   7.000   0.058 -0.4880  0.1721 -0.0688
  318MOL    H9038764   7.332   7.088   8.348 -0.9981 -0.5321 -1.3013
  318MOL    H9138765   7.369   7.026   0.147 -1.7645  1.0907  0.4743
  318MOL    C9238766   7.163   7.001   0.101  0.6814  0.0934 -0.4350
  318MOL    F9338767   7.139   6.909   0.190 -0.5346  0.2573 -0.2526
  318MOL    F9438768   7.151   7.115   0.167 -0.1186 -0.4064 -0.2645
  318MOL    C9538769   7.049   6.985   0.001 -0.9033  0.5871  0.1266
  318MOL    H9638770   6.951   6.976   0.048 -1.1303  1.4786 -0.1630
  318MOL    H9738771   7.066   6.894   8.293 -1.9396  0.7779 -0.5121
  318MOL    C9838772   7.043   7.097   8.249  0.6915  0.0492 -0.1520
  318MOL    F9938773   7.160   7.120   8.200 -0.1872  0.2969  0.0407
  318MOL   F10038774   6.976   7.052   8.139 -0.1610 -0.1938 -0.6085
  318MOL   C10138775   6.990   7.230   8.308  0.5232  0.0630  0.2994
  318MOL   H10238776   7.065   7.274   0.025  1.0459 -1.1588  0.5437
  318MOL   H10338777   6.900   7.205   0.016 -0.0233  0.8417 -0.2179
  318MOL   C10438778   6.949   7.341   8.206 -0.3604 -1.1537 -0.0662
  318MOL   F10538779   7.051   7.371   8.132 -0.2277 -0.2232 -0.3569
  318MOL   F10638780   6.859   7.291   8.128  0.4591 -0.1024  0.0209
  318MOL   C10738781   6.895   7.462   8.280 -0.0941  0.1728  0.0407
  318MOL   H10838782   6.963   7.513   8.349  0.0151 -0.9465  0.7645
  318MOL   H10938783   6.812   7.427   8.341 -1.4234 -1.0766 -2.3996
  318MOL   C11038784   6.837   7.569   8.180  0.0666 -0.2386  0.2603
  318MOL   F11138785   6.750   7.515   8.099  0.5337 -0.3847  0.2840
  318MOL   F11238786   6.769   7.659   8.259  0.1721  0.4819 -0.8555
  318MOL   C11338787   6.944   7.640   8.098 -0.6593  0.1529  0.5217
  318MOL   H11438788   6.892   7.712   8.034 -1.4233  0.9147  1.9717
  318MOL   H11538789   7.000   7.575   8.031  0.4835 -0.0284  1.6405
  318MOL   C11638790   7.037   7.732   8.176 -0.8502 -0.4338 -0.1265
  318MOL   F11738791   6.969   7.820   8.241 -0.2822 -0.1936 -0.5220
  318MOL   F11838792   7.117   7.669   8.263  0.3935  0.1003 -0.1996
  318MOL   C11938793   7.124   7.818   8.089  0.0105 -0.4967 -0.8474
  318MOL   H12038794   7.167   7.898   8.151 -1.0816  0.4144 -1.2502
  318MOL   H12138795   7.056   7.871   8.022 -1.3513 -0.4208  0.5533
  318MOL   H12238796   7.196   7.761   8.031  1.5335  1.0300 -0.5104
  319MOL     C138797   2.252   6.911   4.963  0.5709 -0.6788  0.6779
  319MOL     F238798   2.267   7.044   4.986  0.2489 -0.3405 -0.2151
  319MOL     F338799   2.125   6.875   4.947  0.1869  1.0036 -0.1864
  319MOL     C438800   2.330   6.830   5.078  0.0495  0.4911  0.4129
  319MOL     H538801   2.266   6.846   5.165 -1.8582  3.3966 -1.4041
  319MOL     H638802   2.424   6.885   5.082  1.1360 -1.2021 -0.9278
  319MOL     H738803   2.299   6.894   4.866 -1.7563 -0.9022 -0.4400
  319MOL     C838804   2.358   6.682   5.032  0.2237  0.2677  0.7654
  319MOL     F938805   2.441   6.687   4.928  0.1973  0.2148  0.0121
  319MOL    F1038806   2.422   6.616   5.131 -0.3082  0.1338  0.7943
  319MOL    C1138807   2.229   6.600   4.980  0.7921  0.3991 -1.5752
  319MOL    H1238808   2.175   6.659   4.906 -1.3017  3.9454  2.5563
  319MOL    H1338809   2.165   6.590   5.067 -0.0734 -2.0029 -2.4594
  319MOL    C1438810   2.233   6.459   4.917  0.5216  0.0766 -0.5926
  319MOL    F1538811   2.110   6.420   4.889 -0.2062 -0.0878  0.7430
  319MOL    F1638812   2.303   6.471   4.805 -0.2365 -0.7278  0.0144
  319MOL    C1738813   2.299   6.345   4.996  0.0321  0.6024  0.3874
  319MOL    H1838814   2.251   6.343   5.094  0.1886  1.7169  0.4908
  319MOL    H1938815   2.399   6.381   5.019 -0.4591  1.1322  1.7460
  319MOL    C2038816   2.290   6.197   4.942 -0.2340  0.5156  0.0169
  319MOL    F2138817   2.166   6.149   4.951 -0.3363  0.3301  0.0464
  319MOL    F2238818   2.331   6.199   4.813 -0.0834 -0.5745 -0.1799
  319MOL    C2338819   2.373   6.096   5.018  0.3425  0.4714  0.1015
  319MOL    H2438820   2.351   6.107   5.124 -0.1851 -2.1818  0.3080
  319MOL    H2538821   2.481   6.114   5.015  0.4271 -0.1307 -1.5219
  319MOL    C2638822   2.361   5.941   4.980  0.0777  1.0765  0.9098
  319MOL    F2738823   2.239   5.909   4.964 -0.1539 -0.0754 -0.1480
  319MOL    F2838824   2.416   5.925   4.859 -0.4913 -0.2184 -0.2697
  319MOL    C2938825   2.427   5.848   5.079  0.2127 -0.3842 -0.5772
  319MOL    H3038826   2.388   5.877   5.177 -0.5740  0.3189 -1.0963
  319MOL    H3138827   2.535   5.862   5.087  0.5180 -1.4411 -2.6336
  319MOL    C3238828   2.402   5.697   5.073 -0.1796  0.4969  0.2072
  319MOL    F3338829   2.482   5.635   5.166  0.3162  0.1189 -0.2465
  319MOL    F3438830   2.274   5.671   5.102 -0.4520 -0.5089 -0.1779
  319MOL    C3538831   2.432   5.628   4.942 -0.0752 -0.2839 -0.1774
  319MOL    H3638832   2.370   5.662   4.860 -0.2108 -1.3326 -0.5186
  319MOL    H3738833   2.397   5.526   4.956  0.2570 -0.4990 -0.9072
  319MOL    C3838834   2.584   5.630   4.895 -0.5185 -0.2344 -0.2830
  319MOL    F3938835   2.627   5.756   4.892  0.3996 -0.3358  0.0317
  319MOL    F4038836   2.661   5.562   4.986  0.4451  0.1793  0.0637
  319MOL    C4138837   2.590   5.567   4.754 -0.5699 -0.1408  0.1249
  319MOL    H4238838   2.528   5.630   4.690  1.5443  0.1980 -1.6606
  319MOL    H4338839   2.532   5.477   4.775 -1.1014  0.7219  2.5073
  319MOL    C4438840   2.731   5.534   4.694  0.0047 -0.3093 -0.7590
  319MOL    F4538841   2.809   5.640   4.688 -0.1704 -0.0616  0.4499
  319MOL    F4638842   2.798   5.441   4.762  0.1506  0.4754 -0.3273
  319MOL    C4738843   2.703   5.481   4.549  0.0033  0.0352 -0.4976
  319MOL    H4838844   2.636   5.558   4.510 -0.8555 -0.0419  0.8082
  319MOL    H4938845   2.637   5.395   4.548  0.6020 -0.4204 -1.5849
  319MOL    C5038846   2.819   5.445   4.448  0.2975 -0.3860  0.3950
  319MOL    F5138847   2.772   5.380   4.341 -0.0272  0.4862 -0.4973
  319MOL    F5238848   2.858   5.565   4.404 -0.7947  0.4603 -0.1273
  319MOL    C5338849   2.924   5.349   4.512  0.5322 -0.1406 -0.5066
  319MOL    H5438850   2.870   5.264   4.553 -0.7519  1.7106  1.7601
  319MOL    H5538851   2.969   5.396   4.599 -1.4509  1.1781 -0.1628
  319MOL    C5638852   3.038   5.289   4.415  0.4849 -0.2254  0.1555
  319MOL    F5738853   3.091   5.194   4.486 -0.3051 -0.2399 -0.1731
  319MOL    F5838854   2.983   5.239   4.304 -0.1673 -0.0479 -0.3176
  319MOL    C5938855   3.141   5.401   4.372 -0.9691  0.5803  0.4608
  319MOL    H6038856   3.152   5.471   4.455  3.3307  0.2886  0.2083
  319MOL    H6138857   3.091   5.453   4.290  0.2286  1.3334  0.2032
  319MOL    C6238858   3.282   5.351   4.309 -0.4041  0.5133  0.5016
  319MOL    F6338859   3.354   5.277   4.391  0.5149  0.0670  0.3259
  319MOL    F6438860   3.262   5.277   4.194  0.5682 -0.0381 -0.7462
  319MOL    C6538861   3.373   5.466   4.263 -0.0577 -0.4581 -0.2380
  319MOL    H6638862   3.338   5.502   4.167 -0.3221  1.9139  0.6986
  319MOL    H6738863   3.462   5.411   4.231  0.1953 -0.1627 -0.0463
  319MOL    C6838864   3.412   5.578   4.364  0.1980  0.1714  0.2997
  319MOL    F6938865   3.320   5.671   4.377  0.4168 -0.1158  0.6095
  319MOL    F7038866   3.444   5.533   4.482  0.4337 -0.0484  0.0260
  319MOL    C7138867   3.526   5.663   4.309 -1.0010  0.2072  0.7386
  319MOL    H7238868   3.538   5.746   4.378 -1.2585  1.3095 -0.5207
  319MOL    H7338869   3.503   5.711   4.213  1.6957 -0.2011 -0.1506
  319MOL    C7438870   3.668   5.599   4.288  0.1581 -0.2503  0.1339
  319MOL    F7538871   3.716   5.548   4.400 -0.3434 -0.0865  0.3520
  319MOL    F7638872   3.651   5.507   4.193  0.1809 -0.2317 -0.4765
  319MOL    C7738873   3.775   5.701   4.232  0.3221  0.1788  0.2194
  319MOL    H7838874   3.766   5.729   4.127  0.4565 -3.7063 -0.9193
  319MOL    H7938875   3.868   5.643   4.229 -1.2091 -2.3333 -0.0559
  319MOL    C8038876   3.799   5.827   4.312 -0.7034  0.1599 -0.2666
  319MOL    F8138877   3.700   5.911   4.295 -0.2749 -0.1148  0.2266
  319MOL    F8238878   3.807   5.786   4.435 -0.6362 -0.3829  0.5113
  319MOL    C8338879   3.932   5.903   4.278 -0.5935  0.1479  0.1434
  319MOL    H8438880   3.918   5.959   4.186  1.9026  1.4549  0.5235
  319MOL    H8538881   4.009   5.837   4.239 -0.1397 -0.7246  2.4105
  319MOL    C8638882   4.010   5.978   4.391 -0.2151 -0.1953  0.4581
  319MOL    F8738883   4.030   5.899   4.503  0.2764 -0.2770  0.1625
  319MOL    F8838884   4.136   6.013   4.337  0.1035 -0.0700  0.2863
  319MOL    C8938885   3.934   6.100   4.442  0.2993  0.4621  0.2299
  319MOL    H9038886   3.984   6.121   4.536  1.4787  0.7420 -0.4440
  319MOL    H9138887   3.836   6.070   4.479  0.5296  2.2665  2.3855
  319MOL    C9238888   3.907   6.217   4.347  0.3973  0.2016 -0.8380
  319MOL    F9338889   4.021   6.255   4.285  0.0452 -0.0251 -0.1758
  319MOL    F9438890   3.816   6.179   4.254 -0.8168  0.1268 -0.1150
  319MOL    C9538891   3.821   6.329   4.416 -0.1807 -0.0926  0.1947
  319MOL    H9638892   3.735   6.278   4.459  1.2519 -1.1790  1.8654
  319MOL    H9738893   3.777   6.396   4.343  0.3939  0.0833  0.0061
  319MOL    C9838894   3.892   6.415   4.520 -0.2038  0.9867 -0.3686
  319MOL    F9938895   3.960   6.337   4.612  0.5465 -0.1021 -0.4592
  319MOL   F10038896   3.984   6.492   4.473 -0.5390  0.1656  0.0942
  319MOL   C10138897   3.796   6.492   4.610  0.0979 -0.4670 -0.8733
  319MOL   H10238898   3.855   6.546   4.684 -0.9129  0.3114 -0.6257
  319MOL   H10338899   3.726   6.435   4.671 -0.1497  0.7715  0.0220
  319MOL   C10438900   3.707   6.596   4.536  0.4164  0.1527 -0.2929
  319MOL   F10538901   3.776   6.649   4.433  0.5000 -0.6259 -0.1974
  319MOL   F10638902   3.606   6.534   4.482  0.0029  0.1084 -0.3177
  319MOL   C10738903   3.661   6.710   4.622 -0.0367  0.1843  0.0439
  319MOL   H10838904   3.629   6.795   4.563 -1.0132  1.4769  2.3534
  319MOL   H10938905   3.748   6.748   4.675  0.2656 -0.7523  0.2146
  319MOL   C11038906   3.548   6.691   4.723  0.2027 -0.3178  0.0496
  319MOL   F11138907   3.571   6.588   4.802 -0.1137 -0.7571 -0.1180
  319MOL   F11238908   3.533   6.798   4.797  0.3556 -0.5995 -0.0809
  319MOL   C11338909   3.410   6.673   4.654  0.0263  0.5184  0.1075
  319MOL   H11438910   3.404   6.587   4.589  1.8062  0.2781  0.2431
  319MOL   H11538911   3.374   6.760   4.599 -0.0424  2.3290  2.9071
  319MOL   C11638912   3.297   6.648   4.757 -0.8992  0.3312  0.7884
  319MOL   F11738913   3.326   6.541   4.825 -0.1646  0.6372  0.4960
  319MOL   F11838914   3.288   6.750   4.842  0.6478 -0.4843  0.5934
  319MOL   C11938915   3.152   6.618   4.698  0.1322  0.7368 -0.1276
  319MOL   H12038916   3.153   6.515   4.662  0.3830  1.0530 -1.0563
  319MOL   H12138917   3.133   6.691   4.619  1.6482 -0.0477 -1.2481
  319MOL   H12238918   3.073   6.626   4.771  1.1424  0.3563  1.0193
  320MOL     C138919   2.954   0.654   1.181  0.4968 -0.1566  0.6372
  320MOL     F238920   3.018   0.541   1.199 -0.3479 -0.1833  0.1686
  320MOL     F338921   2.828   0.634   1.226 -0.6383 -0.5853 -0.2004
  320MOL     C438922   2.961   0.694   1.036 -0.3166 -0.0127  0.0777
  320MOL     H538923   2.907   0.788   1.024 -1.8516 -0.9723 -0.8707
  320MOL     H638924   2.898   0.628   0.976  2.0538  0.2764 -2.8459
  320MOL     H738925   2.992   0.718   1.262  0.0471 -0.0470  0.7634
  320MOL     C838926   3.102   0.713   0.976  0.1573 -0.8665 -0.0937
  320MOL     F938927   3.155   0.807   1.065 -0.5317 -0.4221  0.2414
  320MOL    F1038928   3.171   0.596   0.975 -0.7040 -0.2206 -0.0022
  320MOL    C1138929   3.105   0.788   0.840  0.5576 -0.4308  0.1438
  320MOL    H1238930   3.209   0.810   0.814  0.6992 -1.2437 -0.0068
  320MOL    H1338931   3.059   0.886   0.840  0.2092 -0.5915 -0.1660
  320MOL    C1438932   3.038   0.699   0.734  0.4010  0.4724  0.2726
  320MOL    F1538933   3.089   0.577   0.742 -0.4251  0.0512  0.3621
  320MOL    F1638934   2.906   0.699   0.754 -0.1869  0.2262  0.6999
  320MOL    C1738935   3.080   0.736   0.596  0.1873  0.1677  0.9281
  320MOL    H1838936   3.189   0.733   0.593  0.3412  3.3616  1.1043
  320MOL    H1938937   3.038   0.833   0.568 -0.1343  0.1107  1.2154
  320MOL    C2038938   3.035   0.652   0.476  0.0926  0.4833  0.7968
  320MOL    F2138939   3.080   0.716   0.366  0.1552  0.0410 -0.3238
  320MOL    F2238940   3.092   0.528   0.475  0.4308 -0.5114  0.0191
  320MOL    C2338941   2.882   0.632   0.479  0.5320 -0.1754 -0.9182
  320MOL    H2438942   2.830   0.721   0.515 -0.0298 -1.6211  1.9564
  320MOL    H2538943   2.865   0.557   0.555  1.9031  1.4969  1.1000
  320MOL    C2638944   2.803   0.600   0.351 -0.4774  0.1658 -0.7525
  320MOL    F2738945   2.674   0.582   0.369 -0.0861 -0.0665 -0.6848
  320MOL    F2838946   2.816   0.698   0.263  0.0171 -0.3919 -0.5476
  320MOL    C2938947   2.855   0.472   0.267 -0.3449  0.0187 -0.3478
  320MOL    H3038948   2.963   0.481   0.255 -0.5686  1.7462 -1.1180
  320MOL    H3138949   2.812   0.474   0.167 -2.4651 -1.0012  0.5037
  320MOL    C3238950   2.828   0.330   0.327 -0.9470 -0.3021 -0.0924
  320MOL    F3338951   2.892   0.244   0.240 -0.0933  0.0919  0.3910
  320MOL    F3438952   2.890   0.321   0.444 -0.4100 -0.5724  0.1635
  320MOL    C3538953   2.678   0.292   0.351  0.1558 -0.5821 -0.0160
  320MOL    H3638954   2.631   0.298   0.254 -0.5355 -2.6240  0.1897
  320MOL    H3738955   2.617   0.355   0.416 -0.5498 -2.1867  0.8999
  320MOL    C3838956   2.650   0.145   0.396  0.2115  0.6654 -0.3206
  320MOL    F3938957   2.521   0.132   0.380  0.4649 -0.5267  0.3489
  320MOL    F4038958   2.716   0.068   0.310 -0.0157 -0.3139 -0.2161
  320MOL    C4138959   2.692   0.115   0.542 -0.2888 -0.2545  0.1908
  320MOL    H4238960   2.639   0.193   0.596 -1.2691  0.5145 -1.8309
  320MOL    H4338961   2.800   0.130   0.552 -0.1968  0.2397 -1.3632
  320MOL    C4438962   2.637   8.328   0.585  0.5502  0.4756 -0.1894
  320MOL    F4538963   2.502   8.341   0.598  0.4153  0.5335  0.6877
  320MOL    F4638964   2.658   8.239   0.493 -0.4232  0.5348  0.3689
  320MOL    C4738965   2.693   8.281   0.721 -0.1744 -0.2113 -0.4226
  320MOL    H4838966   2.675   0.007   0.798 -0.8516 -1.4493  0.6622
  320MOL    H4938967   2.801   8.277   0.710 -0.3901 -0.7136 -2.7333
  320MOL    C5038968   2.649   8.149   0.781 -1.0498 -0.8744 -0.2266
  320MOL    F5138969   2.525   8.168   0.815  0.3773 -0.4334 -0.6767
  320MOL    F5238970   2.651   8.047   0.698  0.9456 -0.1595  0.5473
  320MOL    C5338971   2.738   8.105   0.901 -0.5878 -1.5784 -0.3511
  320MOL    H5438972   2.769   8.189   0.963  0.6220 -1.7623 -0.6964
  320MOL    H5538973   2.834   8.068   0.866 -0.0126 -2.0980  1.7163
  320MOL    C5638974   2.667   8.006   0.994  0.2357  0.3328 -0.2394
  320MOL    F5738975   2.560   8.071   1.035 -0.3511 -0.2559 -0.4677
  320MOL    F5838976   2.634   7.893   0.932 -0.3005  0.1714  0.6403
  320MOL    C5938977   2.733   7.964   1.127 -0.2964  0.9365 -0.5610
  320MOL    H6038978   2.665   7.912   1.196  1.0386  2.6149  2.1090
  320MOL    H6138979   2.763   8.059   1.171  3.4295  0.5325 -2.0762
  320MOL    C6238980   2.863   7.883   1.112 -0.4665  0.8223 -0.3928
  320MOL    F6338981   2.938   7.951   1.027  0.2410  0.7011 -0.2410
  320MOL    F6438982   2.932   7.878   1.230  0.0974  0.3091  0.1381
  320MOL    C6538983   2.855   7.738   1.065  0.3953  0.1850 -0.2429
  320MOL    H6638984   2.827   7.730   0.960 -1.8321  0.8524  0.2697
  320MOL    H6738985   2.786   7.678   1.125  0.7331 -0.4539 -0.4887
  320MOL    C6838986   2.989   7.651   1.082 -0.7965 -0.2711  0.2343
  320MOL    F6938987   3.088   7.707   1.006 -0.1290 -0.0919  0.5683
  320MOL    F7038988   3.021   7.645   1.212  0.2580  0.0881  0.5312
  320MOL    C7138989   2.974   7.504   1.035  0.3790  0.1009  0.1960
  320MOL    H7238990   2.898   7.454   1.095 -0.2020  0.6583 -0.0706
  320MOL    H7338991   3.063   7.448   1.066 -0.8756 -1.5649  0.8615
  320MOL    C7438992   2.937   7.475   0.888 -0.2432  0.0300 -0.3537
  320MOL    F7538993   2.815   7.527   0.868 -0.1578  0.3528  0.1667
  320MOL    F7638994   3.035   7.544   0.821 -0.7409  0.0978  0.1216
  320MOL    C7738995   2.939   7.324   0.854  0.0367  0.0427 -0.0724
  320MOL    H7838996   2.853   7.270   0.892  0.4527  0.0044  0.8157
  320MOL    H7938997   3.031   7.278   0.891  0.4629  0.1157 -1.0328
  320MOL    C8038998   2.920   7.311   0.703 -0.2152  0.3741 -0.2820
  320MOL    F8138999   2.824   7.395   0.658 -0.7450  0.0680  0.2256
  320MOL    F8239000   3.039   7.329   0.643  0.1584  0.3179 -0.0273
  320MOL    C8339001   2.881   7.168   0.656  0.1021  0.5035 -0.5501
  320MOL    H8439002   2.909   7.174   0.550  2.3337  3.3982  0.1474
  320MOL    H8539003   2.775   7.152   0.677  0.2378  2.7060  1.9897
  320MOL    C8639004   2.960   7.044   0.700  0.0521 -0.3817  0.3673
  320MOL    F8739005   3.091   7.074   0.696 -0.5430  0.5874 -0.1164
  320MOL    F8839006   2.933   7.011   0.827  0.2401 -0.1547  0.1779
  320MOL    C8939007   2.913   6.924   0.616  0.0743 -0.2706  0.2848
  320MOL    H9039008   2.958   6.943   0.518 -2.0780  1.8847 -0.3536
  320MOL    H9139009   2.805   6.930   0.600 -0.0153  0.5495  1.1860
  320MOL    C9239010   2.954   6.785   0.665 -0.2478 -0.3634 -0.1071
  320MOL    F9339011   2.898   6.752   0.780 -0.6364 -0.5101  0.2895
  320MOL    F9439012   2.912   6.697   0.577 -0.3096  0.0845 -0.4931
  320MOL    C9539013   3.104   6.779   0.665  0.0330  0.2490 -0.2467
  320MOL    H9639014   3.129   6.851   0.743 -1.8154 -0.3071  0.8917
  320MOL    H9739015   3.147   6.800   0.567 -0.4229 -2.6159 -1.0967
  320MOL    C9839016   3.164   6.645   0.705 -0.4031  0.2365 -1.3412
  320MOL    F9939017   3.085   6.584   0.795 -0.5865  0.4886 -0.2618
  320MOL   F10039018   3.151   6.563   0.595  0.5307  0.2990 -0.6886
  320MOL   C10139019   3.307   6.648   0.757  0.5974  0.5167 -0.4730
  320MOL   H10239020   3.327   6.546   0.791  2.9450  0.3904 -2.1663
  320MOL   H10339021   3.308   6.701   0.852  0.8772 -0.8151  0.2895
  320MOL   C10439022   3.426   6.688   0.671 -0.4232 -1.0693 -0.3500
  320MOL   F10539023   3.408   6.818   0.623 -0.3725 -0.4635  0.1124
  320MOL   F10639024   3.545   6.665   0.747  0.2241  0.4534  0.2037
  320MOL   C10739025   3.441   6.599   0.546  0.0571  0.8142 -0.2085
  320MOL   H10839026   3.352   6.617   0.486  0.0067 -0.9073 -0.6754
  320MOL   H10939027   3.447   6.495   0.578  1.4622  1.2764  1.1170
  320MOL   C11039028   3.564   6.623   0.457 -0.3061  0.5137 -0.2826
  320MOL   F11139029   3.585   6.754   0.442 -0.0033 -0.8566 -0.0858
  320MOL   F11239030   3.676   6.568   0.513 -0.2917  0.3934  0.4699
  320MOL   C11339031   3.554   6.563   0.313  0.6247  0.7776 -0.2840
  320MOL   H11439032   3.587   6.458   0.313  0.1516  0.6274  0.0597
  320MOL   H11539033   3.631   6.603   0.247  0.1185  2.1090 -0.0681
  320MOL   C11639034   3.426   6.582   0.227 -0.6660 -0.0144 -0.2966
  320MOL   F11739035   3.317   6.520   0.268 -0.1095  0.6794 -0.1571
  320MOL   F11839036   3.411   6.715   0.233 -0.4863 -0.3577 -0.0638
  320MOL   C11939037   3.451   6.555   0.079 -0.1571  0.5563  0.2412
  320MOL   H12039038   3.536   6.600   0.029  0.4086 -1.3167 -0.5305
  320MOL   H12139039   3.359   6.566   0.021  0.3075  0.6763 -0.4707
  320MOL   H12239040   3.467   6.447   0.076 -0.3437  0.4855  1.3444
  321MOL     C139041   4.310   3.595   8.072 -0.3718 -0.0906 -0.4652
  321MOL     F239042   4.233   3.584   8.176  0.1653  0.0408  0.0701
  321MOL     F339043   4.436   3.617   8.121  0.4593 -0.1069 -0.2683
  321MOL     C439044   4.267   3.714   7.981 -0.1131  0.6129  0.0908
  321MOL     H539045   4.352   3.727   7.914  0.6443 -3.3347  0.1516
  321MOL     H639046   4.267   3.807   8.037 -1.2180  0.5276  0.2427
  321MOL     H739047   4.314   3.496   8.027  1.2722  0.1140 -0.7871
  321MOL     C839048   4.139   3.681   7.910 -0.3788  0.4761  0.0371
  321MOL     F939049   4.142   3.563   7.851  0.1480 -0.0998 -0.1951
  321MOL    F1039050   4.043   3.680   8.002 -0.1075 -0.0007  0.1867
  321MOL    C1139051   4.103   3.777   7.791  0.4388 -0.4222  0.2824
  321MOL    H1239052   4.011   3.739   7.745  1.0150 -0.4068 -0.8998
  321MOL    H1339053   4.179   3.771   7.713 -0.0567 -0.7796 -0.1782
  321MOL    C1439054   4.080   3.926   7.829 -0.1980  0.6440  0.2100
  321MOL    F1539055   4.177   3.961   7.914  0.1732  0.0701 -0.4310
  321MOL    F1639056   4.096   3.996   7.715 -0.3163  0.0557  0.5538
  321MOL    C1739057   3.940   3.962   7.896  0.9454  0.0694 -0.6841
  321MOL    H1839058   3.905   3.881   7.960  2.3875 -0.5125 -0.6174
  321MOL    H1939059   3.881   3.961   7.804 -0.4066  1.0774  0.1509
  321MOL    C2039060   3.916   4.093   7.978 -0.0711  0.4764 -0.5073
  321MOL    F2139061   4.005   4.099   8.073  0.1878 -0.2661  0.2701
  321MOL    F2239062   3.945   4.183   7.890  0.0288  0.1480  0.3270
  321MOL    C2339063   3.769   4.104   8.025 -0.2078 -0.0510 -0.9064
  321MOL    H2439064   3.749   4.016   8.086  1.1616  1.1092  1.2884
  321MOL    H2539065   3.696   4.116   7.945 -1.0689  0.3169 -0.0750
  321MOL    C2639066   3.740   4.231   8.107 -0.1608 -0.3280  0.5090
  321MOL    F2739067   3.814   4.215   8.217 -0.3823 -0.1023  0.2823
  321MOL    F2839068   3.793   4.333   8.039 -0.1440 -0.7006 -0.3941
  321MOL    C2939069   3.590   4.265   8.151 -0.4920  0.0538  0.3132
  321MOL    H3039070   3.532   4.284   8.061  1.5182 -0.1759 -1.0734
  321MOL    H3139071   3.592   4.365   8.193  0.1436 -0.1897  0.8685
  321MOL    C3239072   3.522   4.170   8.241 -0.2783  0.4617  0.1739
  321MOL    F3339073   3.505   4.043   8.185 -0.1635 -0.6169  0.5377
  321MOL    F3439074   3.585   4.171   0.011 -1.3625  0.7934  0.0050
  321MOL    C3539075   3.384   4.231   8.266  0.1067  0.2644 -0.4861
  321MOL    H3639076   3.320   4.242   8.179  1.9850 -1.6051 -2.1828
  321MOL    H3739077   3.403   4.330   8.307 -0.6043 -0.9134  2.8710
  321MOL    C3839078   3.309   4.162   0.025  0.1092  0.3601  0.3527
  321MOL    F3939079   3.277   4.038   8.334  0.2048 -0.3228 -0.2098
  321MOL    F4039080   3.382   4.157   0.134  0.1596  0.9800 -0.4623
  321MOL    C4139081   3.189   4.237   0.065 -0.1815 -0.8339  0.3901
  321MOL    H4239082   3.120   4.257   8.333  1.0420 -0.7999 -0.6611
  321MOL    H4339083   3.217   4.338   0.095 -1.1935 -0.8135  1.3095
  321MOL    C4439084   3.108   4.173   0.173 -0.4963  0.2804 -0.2956
  321MOL    F4539085   3.096   4.039   0.161  0.0915  0.1433  0.3918
  321MOL    F4639086   3.180   4.199   0.279 -0.0191  0.3187  0.8423
  321MOL    C4739087   2.962   4.221   0.185 -0.0564  0.1468 -0.3543
  321MOL    H4839088   2.913   4.188   0.277 -2.9562  3.2993 -0.6655
  321MOL    H4939089   2.912   4.165   0.106  0.4897 -1.0088  0.0983
  321MOL    C5039090   2.943   4.370   0.175 -0.1589 -0.6080 -0.6081
  321MOL    F5139091   3.030   4.438   0.249  0.2608  0.0701  0.2055
  321MOL    F5239092   2.952   4.413   0.049  0.3964  0.3027 -0.3913
  321MOL    C5339093   2.790   4.402   0.200 -0.0386 -0.2670 -0.0081
  321MOL    H5439094   2.777   4.506   0.231 -1.0120 -1.1487  2.5974
  321MOL    H5539095   2.769   4.358   0.297  0.7626 -0.1994  0.1993
  321MOL    C5639096   2.683   4.360   0.096  0.4300  0.5126  0.1362
  321MOL    F5739097   2.699   4.426   8.329 -0.3219 -0.1555 -0.6159
  321MOL    F5839098   2.678   4.226   0.066  0.3735 -0.2864 -0.6565
  321MOL    C5939099   2.542   4.405   0.141  0.4727  0.2489 -0.2964
  321MOL    H6039100   2.478   4.382   0.056  2.0334  0.4132 -1.5239
  321MOL    H6139101   2.532   4.513   0.146  0.8170  0.3397 -1.4481
  321MOL    C6239102   2.476   4.345   0.279 -0.1823 -1.1334  0.2007
  321MOL    F6339103   2.476   4.211   0.277  0.5988  0.7369  0.4425
  321MOL    F6439104   2.557   4.389   0.382  0.3710  0.0768  0.0278
  321MOL    C6539105   2.334   4.382   0.307 -0.3719  0.0431 -0.4814
  321MOL    H6639106   2.313   4.352   0.410 -0.4397  0.3143 -0.4137
  321MOL    H6739107   2.260   4.327   0.250  0.6822  0.2076 -2.0436
  321MOL    C6839108   2.293   4.525   0.292 -0.3770  0.2394 -0.7271
  321MOL    F6939109   2.377   4.598   0.370 -0.0081 -0.5768 -0.3282
  321MOL    F7039110   2.309   4.561   0.165  0.2813 -0.2129  0.4904
  321MOL    C7139111   2.145   4.546   0.339 -0.4965 -1.0767 -0.5708
  321MOL    H7239112   2.133   4.533   0.446 -0.9829 -0.2621 -0.5216
  321MOL    H7339113   2.081   4.465   0.302 -1.7833 -0.5898  0.5769
  321MOL    C7439114   2.099   4.694   0.303 -0.1827  0.3140  0.3177
  321MOL    F7539115   2.178   4.781   0.350  0.4083  0.5288 -0.6101
  321MOL    F7639116   2.091   4.719   0.172  0.6874 -0.6418  0.0978
  321MOL    C7739117   1.959   4.722   0.379 -0.5445 -0.0957  0.1318
  321MOL    H7839118   1.912   4.820   0.369 -2.5555 -1.0506 -0.0931
  321MOL    H7939119   1.984   4.716   0.485 -0.4356  0.7759  0.1623
  321MOL    C8039120   1.837   4.622   0.365  0.1024 -0.2458  0.8038
  321MOL    F8139121   1.873   4.498   0.414 -0.1966  0.2341 -0.5457
  321MOL    F8239122   1.737   4.677   0.438  0.0187 -0.0233 -0.0809
  321MOL    C8339123   1.784   4.604   0.224  0.3646  0.2569 -0.2443
  321MOL    H8439124   1.697   4.538   0.226  1.1498 -0.8046 -0.6982
  321MOL    H8539125   1.858   4.553   0.162 -0.0700 -0.3408 -0.2791
  321MOL    C8639126   1.726   4.729   0.145  0.3032  0.1766 -0.1276
  321MOL    F8739127   1.618   4.768   0.217 -0.2601  0.0634 -0.3312
  321MOL    F8839128   1.823   4.816   0.153 -0.0466 -0.4081 -0.2753
  321MOL    C8939129   1.679   4.699   0.001 -0.2656 -0.3114  0.2014
  321MOL    H9039130   1.645   4.797   8.316  1.5062 -0.0685 -0.9198
  321MOL    H9139131   1.593   4.633   8.348 -0.1255 -0.4677 -0.5969
  321MOL    C9239132   1.784   4.648   8.243  0.6244 -1.2216 -0.3309
  321MOL    F9339133   1.819   4.531   8.282  0.2084 -0.3074 -0.0823
  321MOL    F9439134   1.721   4.645   8.121 -0.2514  0.3013 -0.1899
  321MOL    C9539135   1.910   4.728   8.223  0.0838 -0.3938 -0.0312
  321MOL    H9639136   1.982   4.669   8.166  0.2748  1.7289 -2.0609
  321MOL    H9739137   1.966   4.729   8.316  1.9546  0.4346 -1.1360
  321MOL    C9839138   1.883   4.867   8.173 -0.3548  0.7927 -0.2929
  321MOL    F9939139   1.827   4.871   8.052  0.1470  0.7172 -0.2567
  321MOL   F10039140   1.804   4.939   8.252 -0.1297  0.2457 -0.5970
  321MOL   C10139141   2.007   4.965   8.166  0.1026  0.2444  0.0100
  321MOL   H10239142   2.056   4.983   8.262 -0.4524  0.7032  0.2064
  321MOL   H10339143   1.965   5.064   8.147 -3.7429 -1.5493 -1.2281
  321MOL   C10439144   2.113   4.936   8.057  0.2216  1.1417  0.5544
  321MOL   F10539145   2.151   4.807   8.071 -0.0424 -0.4257 -0.5917
  321MOL   F10639146   2.071   4.936   7.929 -0.4246  0.1341 -0.1038
  321MOL   C10739147   2.221   5.038   8.068  0.2868  0.1468  0.3175
  321MOL   H10839148   2.221   5.066   8.174  1.4470  0.3900  0.2544
  321MOL   H10939149   2.188   5.130   8.020 -2.0179 -0.9180 -0.1964
  321MOL   C11039150   2.361   4.989   8.012 -0.2961 -0.3183  0.2324
  321MOL   F11139151   2.388   4.872   8.055 -0.1336  0.4150 -0.5304
  321MOL   F11239152   2.350   4.970   7.873  0.2889 -0.4248 -0.1031
  321MOL   C11339153   2.470   5.085   8.046 -0.5912 -0.3422  0.4663
  321MOL   H11439154   2.494   5.085   8.152 -0.8219  1.1257  0.5399
  321MOL   H11539155   2.422   5.180   8.021  0.7419 -0.1068 -1.2270
  321MOL   C11639156   2.607   5.067   7.976  0.0382  0.5736 -0.3867
  321MOL   F11739157   2.676   4.958   8.023 -0.3465  0.1280  0.0395
  321MOL   F11839158   2.599   5.042   7.841 -0.5082  0.1636 -0.2052
  321MOL   C11939159   2.705   5.189   7.982 -0.4769  0.2294 -0.1392
  321MOL   H12039160   2.731   5.214   8.085 -1.0785 -0.5340  0.2008
  321MOL   H12139161   2.649   5.278   7.954  0.4291  0.6054 -0.8036
  321MOL   H12239162   2.801   5.176   7.931 -0.8825  0.3285 -0.9287
  322MOL     C139163   2.235   8.345   0.934 -0.5139  1.1553 -0.0708
  322MOL     F239164   2.260   8.217   0.960 -0.1230 -0.0316  0.1299
  322MOL     F339165   2.332   0.074   0.973 -0.1587  0.0342  0.4931
  322MOL     C439166   2.093   0.037   0.992  0.3805 -0.0112  0.6223
  322MOL     H539167   2.081   0.030   1.101  1.7806  0.0356  0.7862
  322MOL     H639168   2.017   8.323   0.948 -0.5750  0.5327  1.4635
  322MOL     H739169   2.224   0.005   0.826  0.2681  0.3155 -0.2328
  322MOL     C839170   2.056   0.183   0.963  0.0193  0.9711  0.1831
  322MOL     F939171   2.136   0.271   1.028 -0.3853  0.0141 -0.6898
  322MOL    F1039172   2.060   0.201   0.828 -0.5022 -0.3831 -0.0141
  322MOL    C1139173   1.919   0.227   1.016  0.6226  0.5808 -0.1765
  322MOL    H1239174   1.905   0.180   1.113  3.9867  1.1864  0.6674
  322MOL    H1339175   1.845   0.194   0.943 -0.1829 -1.7349  1.6470
  322MOL    C1439176   1.901   0.381   1.045 -0.4206  0.4248  0.1627
  322MOL    F1539177   1.776   0.389   1.071 -0.4130  0.0727  0.0849
  322MOL    F1639178   1.960   0.418   1.154 -0.4357  0.1911  0.2633
  322MOL    C1739179   1.952   0.463   0.925 -0.6841 -0.0450 -0.0447
  322MOL    H1839180   1.907   0.422   0.835  0.5931  1.4829 -1.4033
  322MOL    H1939181   2.061   0.459   0.924 -0.6277  0.1738  1.9664
  322MOL    C2039182   1.908   0.611   0.915  0.3615 -0.2117 -0.3717
  322MOL    F2139183   1.778   0.611   0.897  0.3972 -0.3719  0.1867
  322MOL    F2239184   1.933   0.674   1.027  0.1956 -0.0530  0.0508
  322MOL    C2339185   1.977   0.681   0.793  0.1726  0.0160  0.2944
  322MOL    H2439186   1.958   0.625   0.701  0.1320  3.0617 -1.6340
  322MOL    H2539187   2.085   0.672   0.802  0.1630  0.2277  0.6273
  322MOL    C2639188   1.950   0.835   0.758  0.0603  0.6461  0.1759
  322MOL    F2739189   2.024   0.873   0.651  0.0619  0.5169 -0.1024
  322MOL    F2839190   1.821   0.862   0.732 -0.0109  0.7085 -0.6869
  322MOL    C2939191   1.990   0.923   0.875  1.0300 -0.1297 -0.3288
  322MOL    H3039192   2.067   0.881   0.939 -0.3311  1.6277  2.5650
  322MOL    H3139193   1.901   0.940   0.937  0.2697 -0.3994 -1.3265
  322MOL    C3239194   2.048   1.064   0.842  0.4119  0.1063  0.4890
  322MOL    F3339195   2.160   1.066   0.766 -0.6431 -0.3646 -0.0541
  322MOL    F3439196   1.949   1.132   0.788  0.1974 -0.0560 -0.3433
  322MOL    C3539197   2.087   1.143   0.972 -0.1733 -0.0652  0.1584
  322MOL    H3639198   1.996   1.145   1.031  0.0584 -0.3778  0.5291
  322MOL    H3739199   2.106   1.248   0.948  1.1328 -0.0114  1.3464
  322MOL    C3839200   2.221   1.092   1.050 -0.3171 -0.2555 -0.5048
  322MOL    F3939201   2.209   0.972   1.103  0.6299  0.4974 -0.1197
  322MOL    F4039202   2.317   1.069   0.960 -0.3342 -0.6236 -0.1247
  322MOL    C4139203   2.263   1.184   1.169  0.9050  0.1351 -0.0613
  322MOL    H4239204   2.303   1.123   1.250  1.6718  2.3380  1.2514
  322MOL    H4339205   2.168   1.210   1.215  1.0848 -1.1334  1.0911
  322MOL    C4439206   2.340   1.316   1.147 -0.6371 -0.2540 -0.2671
  322MOL    F4539207   2.443   1.283   1.066  0.0858 -0.0038 -0.0788
  322MOL    F4639208   2.258   1.396   1.080  0.3075  0.1032  0.6857
  322MOL    C4739209   2.373   1.382   1.282  0.3084  0.2031 -0.2425
  322MOL    H4839210   2.446   1.314   1.325 -1.6387 -1.0925  1.1068
  322MOL    H4939211   2.285   1.378   1.346  1.9005  3.8702  2.2853
  322MOL    C5039212   2.420   1.529   1.287  0.8187  0.2941  0.3121
  322MOL    F5139213   2.534   1.533   1.215  0.2326 -0.3669 -0.3980
  322MOL    F5239214   2.327   1.613   1.241 -0.6876 -0.0795 -0.2909
  322MOL    C5339215   2.440   1.580   1.430 -0.2326  0.1174  0.0186
  322MOL    H5439216   2.493   1.504   1.488  1.0695  1.2439  0.3382
  322MOL    H5539217   2.338   1.596   1.465 -0.5248  0.0411 -0.7832
  322MOL    C5639218   2.508   1.713   1.459 -0.1154 -0.6061  0.2203
  322MOL    F5739219   2.640   1.720   1.430 -0.0501  0.1455  0.3699
  322MOL    F5839220   2.451   1.812   1.392  0.5874 -0.5114  0.0699
  322MOL    C5939221   2.518   1.745   1.600  0.6675  0.6089 -0.4111
  322MOL    H6039222   2.576   1.837   1.607  3.1854 -0.9950 -0.0186
  322MOL    H6139223   2.566   1.669   1.660 -0.2069 -0.9289 -1.6154
  322MOL    C6239224   2.382   1.771   1.677 -0.2178  0.7176  0.0761
  322MOL    F6339225   2.310   1.850   1.604 -0.0610 -0.2915 -0.4200
  322MOL    F6439226   2.319   1.657   1.687 -0.1033 -0.0849 -0.4504
  322MOL    C6539227   2.401   1.842   1.816  0.5254 -0.5945 -0.3763
  322MOL    H6639228   2.450   1.939   1.807 -1.5556  0.7898  2.3464
  322MOL    H6739229   2.476   1.796   1.880  2.2768  3.4750  0.7097
  322MOL    C6839230   2.281   1.873   1.904  0.1010  0.8133 -0.0476
  322MOL    F6939231   2.224   1.758   1.939  0.0917  0.0860 -0.1239
  322MOL    F7039232   2.321   1.928   2.025  0.1080 -0.5141 -0.1693
  322MOL    C7139233   2.188   1.976   1.828  0.3633 -0.0034 -0.8096
  322MOL    H7239234   2.131   1.937   1.743  0.2541 -0.7603 -0.3934
  322MOL    H7339235   2.239   2.068   1.801 -4.0937  2.9929  0.2764
  322MOL    C7439236   2.077   2.027   1.919 -0.0026 -0.0188  0.9329
  322MOL    F7539237   2.126   2.122   2.002 -0.4607 -0.2900  0.3432
  322MOL    F7639238   1.980   2.079   1.840  0.0884  0.0739  0.3726
  322MOL    C7739239   2.001   1.915   2.009 -0.3715 -0.8396  0.9350
  322MOL    H7839240   2.077   1.865   2.069 -0.8403 -1.8755  0.6818
  322MOL    H7939241   1.975   1.833   1.942 -0.4692 -0.9831  1.1472
  322MOL    C8039242   1.874   1.963   2.088 -0.1531 -0.1180  1.3918
  322MOL    F8139243   1.925   2.038   2.193 -0.2914  0.4503 -0.6797
  322MOL    F8239244   1.783   2.031   2.010 -0.2153  0.6774  0.1348
  322MOL    C8339245   1.785   1.853   2.142  0.8228 -0.2574 -1.6933
  322MOL    H8439246   1.844   1.777   2.192 -1.5347 -0.7168  0.5025
  322MOL    H8539247   1.720   1.812   2.064  0.3494  1.7640 -2.3757
  322MOL    C8639248   1.681   1.901   2.240 -0.0044  0.4745  0.3210
  322MOL    F8739249   1.735   1.944   2.355  0.3501 -0.6174  0.5535
  322MOL    F8839250   1.601   1.998   2.193  0.0546 -0.1954  0.1384
  322MOL    C8939251   1.587   1.783   2.295  0.1948 -0.2933 -0.1935
  322MOL    H9039252   1.516   1.833   2.360  1.5305  0.2795  0.8409
  322MOL    H9139253   1.643   1.722   2.366 -1.1176  1.3543  2.2941
  322MOL    C9239254   1.509   1.706   2.187 -0.2358  0.2665 -0.2427
  322MOL    F9339255   1.485   1.788   2.087  0.4786 -0.0518 -0.2159
  322MOL    F9439256   1.582   1.606   2.135  0.7640 -0.4860 -0.1550
  322MOL    C9539257   1.375   1.642   2.242 -0.0172  0.0095 -0.1142
  322MOL    H9639258   1.326   1.728   2.288  1.4026  0.4202  0.6507
  322MOL    H9739259   1.397   1.577   2.327 -0.3038 -0.4200 -0.3700
  322MOL    C9839260   1.268   1.576   2.144 -0.3345 -0.8429 -0.4182
  322MOL    F9939261   1.240   1.673   2.065 -0.1349 -0.5277  0.1592
  322MOL   F10039262   1.318   1.470   2.076 -0.4133 -0.1131 -0.4627
  322MOL   C10139263   1.135   1.522   2.204 -0.4396 -0.7167  0.1476
  322MOL   H10239264   1.084   1.454   2.135  1.0396 -1.9197  0.1999
  322MOL   H10339265   1.067   1.606   2.217 -0.0594 -0.5182  0.8760
  322MOL   C10439266   1.147   1.461   2.346 -0.0756  0.6961 -0.6613
  322MOL   F10539267   1.245   1.373   2.338  0.1516 -0.4673 -0.0213
  322MOL   F10639268   1.181   1.558   2.439 -0.1664  0.2066  0.5329
  322MOL   C10739269   1.015   1.384   2.389 -0.2764  0.5044  0.1032
  322MOL   H10839270   1.009   1.305   2.315  0.8407 -0.8483  1.4221
  322MOL   H10939271   0.928   1.446   2.368 -1.1644 -0.2181  1.5673
  322MOL   C11039272   1.016   1.332   2.536  0.6448  0.0875  0.5055
  322MOL   F11139273   1.139   1.306   2.578  0.2921 -0.4013 -0.3615
  322MOL   F11239274   0.969   1.425   2.612 -0.3683 -0.4223  0.3464
  322MOL   C11339275   0.932   1.204   2.560 -0.7282 -0.7444  0.6136
  322MOL   H11439276   0.975   1.117   2.511 -2.5017  0.2306 -2.8021
  322MOL   H11539277   0.841   1.215   2.501  0.5719 -2.7747 -1.8264
  322MOL   C11639278   0.890   1.183   2.707 -0.0702 -0.0988  0.1083
  322MOL   F11739279   0.799   1.272   2.747 -0.4504  0.2617  0.1146
  322MOL   F11839280   0.824   1.070   2.715 -0.1335 -0.2265  0.1017
  322MOL   C11939281   1.007   1.174   2.805 -0.0224 -0.1407  0.0188
  322MOL   H12039282   1.067   1.264   2.815 -1.6310  0.7316  2.2216
  322MOL   H12139283   1.072   1.092   2.775  0.4261  0.5424 -0.9083
  322MOL   H12239284   0.974   1.152   2.906  0.3466 -0.1606  0.1351
  323MOL     C139285   7.269   8.142   3.942  0.1362 -0.6205  0.4628
  323MOL     F239286   7.329   8.020   3.941  0.2108 -0.4818  0.1974
  323MOL     F339287   7.145   8.121   3.906  0.1115 -0.7403 -0.1980
  323MOL     C439288   7.333   8.225   3.829  0.2045  0.4811  0.2173
  323MOL     H539289   7.281   8.319   3.810  0.9855  0.5823 -1.5596
  323MOL     H639290   7.316   8.174   3.734 -0.6788  0.3294  0.4571
  323MOL     H739291   7.267   8.195   4.037  0.7797 -0.1313  0.2114
  323MOL     C839292   7.489   8.253   3.852 -0.0813 -0.1890  0.6878
  323MOL     F939293   7.499   8.315   3.969 -0.4665  0.0912  0.4557
  323MOL    F1039294   7.570   8.143   3.847 -0.0443 -0.2809  0.3992
  323MOL    C1139295   7.543   8.347   3.747 -0.4307 -0.1800 -0.0440
  323MOL    H1239296   7.631   0.041   3.793  0.1415 -1.2170 -0.1193
  323MOL    H1339297   7.483   0.087   3.736  1.4071  1.2945  1.7084
  323MOL    C1439298   7.566   8.295   3.610 -0.3173  0.0573  0.2936
  323MOL    F1539299   7.639   8.179   3.622 -0.1933 -0.1356  0.3050
  323MOL    F1639300   7.449   8.258   3.558 -0.2448 -0.0511  0.4339
  323MOL    C1739301   7.644   0.045   3.518  0.5871 -0.8280 -0.3103
  323MOL    H1839302   7.741   0.060   3.564 -0.2700 -1.1946  1.6430
  323MOL    H1939303   7.590   0.139   3.526  0.0074 -1.1856 -0.0275
  323MOL    C2039304   7.660   0.009   3.371 -0.2307  1.2820  0.1698
  323MOL    F2139305   7.713   8.232   3.340  0.0904  0.1931  0.6015
  323MOL    F2239306   7.536   0.009   3.318 -0.4535 -0.1410  0.0948
  323MOL    C2339307   7.734   0.121   3.292 -0.1531  0.4802  0.1202
  323MOL    H2439308   7.676   0.211   3.312 -0.9384 -0.2900  1.3512
  323MOL    H2539309   7.722   0.108   3.185  1.9387 -0.6492 -0.0059
  323MOL    C2639310   7.879   0.149   3.342  0.0448 -0.3472 -0.3085
  323MOL    F2739311   7.890   0.211   3.465 -0.0085 -0.0058  0.1345
  323MOL    F2839312   7.934   0.030   3.350  0.3594  0.0666  0.6927
  323MOL    C2939313   7.963   0.230   3.239 -0.3251 -0.5057  0.1835
  323MOL    H3039314   7.964   0.185   3.139  1.3586 -0.5789  0.2101
  323MOL    H3139315   8.067   0.223   3.270 -0.1245 -1.8288 -0.7180
  323MOL    C3239316   7.923   0.380   3.218 -0.2699 -0.5159  0.5057
  323MOL    F3339317   7.799   0.377   3.180  0.2316 -0.1101 -0.3340
  323MOL    F3439318   7.924   0.439   3.340 -0.2790 -0.1591  0.1883
  323MOL    C3539319   7.998   0.461   3.113 -0.0774  0.3608 -0.6238
  323MOL    H3639320   8.012   0.400   3.024 -1.0740 -0.2698 -0.3539
  323MOL    H3739321   8.096   0.486   3.155 -1.6669  2.3601  2.0793
  323MOL    C3839322   7.937   0.595   3.061  0.3253  0.7716  0.0258
  323MOL    F3939323   8.039   0.637   2.985  0.4368 -0.1006  0.0881
  323MOL    F4039324   7.829   0.574   2.992 -0.3489 -0.3003  0.1647
  323MOL    C4139325   7.901   0.700   3.167 -0.3990  1.4905 -0.0283
  323MOL    H4239326   7.812   0.673   3.223 -1.2378  0.1101 -1.9470
  323MOL    H4339327   7.874   0.785   3.103 -3.4606 -0.3828 -1.3453
  323MOL    C4439328   8.018   0.735   3.266 -0.1910  0.2334  0.6286
  323MOL    F4539329   8.076   0.630   3.333 -0.4288  0.2826  0.4125
  323MOL    F4639330   8.121   0.794   3.194  0.4662 -0.0616  0.0611
  323MOL    C4739331   7.969   0.827   3.375  0.6548  0.0834  0.2243
  323MOL    H4839332   7.899   0.780   3.444 -0.3427  0.3020 -0.6334
  323MOL    H4939333   7.911   0.908   3.332 -0.2939  0.1215  1.5312
  323MOL    C5039334   8.080   0.884   3.473  0.1443 -0.2250 -0.2671
  323MOL    F5139335   8.152   0.785   3.526 -0.2891 -0.8484 -0.2018
  323MOL    F5239336   8.164   0.969   3.413 -0.1959  0.5256  0.2879
  323MOL    C5339337   8.000   0.969   3.577  0.3599 -0.2722 -0.6511
  323MOL    H5439338   7.913   0.913   3.609  0.2413  0.2363 -0.0778
  323MOL    H5539339   7.967   1.050   3.513  0.8459  1.1078  0.8059
  323MOL    C5639340   8.072   1.027   3.699  0.8624 -0.1358  0.3840
  323MOL    F5739341   7.965   1.065   3.774  0.2116 -0.6108  0.0937
  323MOL    F5839342   8.138   0.922   3.747 -0.2162  0.2301 -0.2704
  323MOL    C5939343   8.163   1.146   3.657  0.2418  0.1839 -0.5910
  323MOL    H6039344   8.107   1.189   3.573  0.7275 -1.2552 -1.6694
  323MOL    H6139345   8.245   1.092   3.609 -2.9618 -3.6252 -2.0417
  323MOL    C6239346   8.190   1.250   3.762  0.2181  0.0658 -0.3644
  323MOL    F6339347   8.076   1.320   3.771  0.2035 -0.7851 -0.2051
  323MOL    F6439348   8.218   1.199   3.883 -0.4117  0.1304  0.1872
  323MOL    C6539349   8.288   1.361   3.717 -0.5245 -0.3538  0.6524
  323MOL    H6639350   8.282   1.438   3.794 -0.6957  0.1021  0.1840
  323MOL    H6739351   8.251   1.411   3.627 -0.1555  0.5368  0.9974
  323MOL    C6839352   0.089   1.322   3.716  0.1066 -0.0716 -0.6434
  323MOL    F6939353   0.135   1.288   3.839 -1.2564  0.1532  0.0680
  323MOL    F7039354   0.102   1.217   3.641  0.4164  0.0882 -0.0703
  323MOL    C7139355   0.180   1.439   3.676 -0.6717 -0.4235 -0.7557
  323MOL    H7239356   0.285   1.410   3.688 -1.2776 -2.8997 -1.1297
  323MOL    H7339357   0.162   1.514   3.754  2.1054  2.1279 -2.4358
  323MOL    C7439358   0.153   1.515   3.544  0.3583 -0.0453  0.0224
  323MOL    F7539359   0.139   1.430   3.439 -0.4390  0.0300  0.3541
  323MOL    F7639360   0.048   1.595   3.548  0.4555  0.2560 -0.1743
  323MOL    C7739361   0.279   1.598   3.495 -0.4031  0.2651 -0.0469
  323MOL    H7839362   0.245   1.661   3.413 -0.2367  0.5596  0.1122
  323MOL    H7939363   0.351   1.527   3.454 -1.3677 -0.2963 -0.7791
  323MOL    C8039364   0.356   1.675   3.599 -0.1554  0.2001 -0.0541
  323MOL    F8139365   0.282   1.735   3.687 -0.2476  0.4477  0.1879
  323MOL    F8239366   0.439   1.603   3.671 -0.0158  0.3937 -0.3064
  323MOL    C8339367   0.451   1.783   3.539 -0.1053 -0.1172  0.1795
  323MOL    H8439368   0.501   1.830   3.624 -2.6044  0.5670  1.2970
  323MOL    H8539369   0.393   1.867   3.501 -0.2135  0.4780  1.6133
  323MOL    C8639370   0.550   1.736   3.430 -0.3618 -0.0417  0.4813
  323MOL    F8739371   0.623   1.633   3.475 -0.3745  0.3880  0.6863
  323MOL    F8839372   0.487   1.685   3.321  0.2024  0.5033 -0.5424
  323MOL    C8939373   0.642   1.854   3.383  0.4920 -0.3980 -0.5149
  323MOL    H9039374   0.703   1.885   3.468  0.6423 -0.2683 -0.6682
  323MOL    H9139375   0.576   1.938   3.364  0.8040  0.6014  2.5571
  323MOL    C9239376   0.739   1.835   3.266  0.2647  0.1280  0.1683
  323MOL    F9339377   0.818   1.734   3.311  0.0109 -0.0058 -0.0058
  323MOL    F9439378   0.687   1.782   3.153  0.1070  0.1607 -0.0222
  323MOL    C9539379   0.830   1.959   3.251  0.6636 -0.3089  0.5343
  323MOL    H9639380   0.921   1.939   3.194 -0.7893 -0.1360 -1.9109
  323MOL    H9739381   0.864   1.989   3.350 -1.1880  1.3937  0.7036
  323MOL    C9839382   0.764   2.081   3.180  0.0107  0.5183 -0.7554
  323MOL    F9939383   0.701   2.021   3.083 -0.0047  0.5627 -0.2611
  323MOL   F10039384   0.671   2.143   3.262 -0.5401 -0.5669 -0.2363
  323MOL   C10139385   0.877   2.180   3.118 -0.1204 -0.2988  0.1612
  323MOL   H10239386   0.949   2.131   3.052  0.0984  0.7918 -0.4076
  323MOL   H10339387   0.936   2.212   3.204  1.5529 -1.7055 -0.4343
  323MOL   C10439388   0.830   2.305   3.055 -0.1399  0.1969 -0.7717
  323MOL   F10539389   0.737   2.276   2.970 -0.1355  0.3948 -0.3234
  323MOL   F10639390   0.776   2.384   3.155  0.2121 -0.0778 -0.2195
  323MOL   C10739391   0.936   2.389   2.977  0.4370  0.0813  0.0272
  323MOL   H10839392   0.990   2.322   2.911 -1.2985 -0.0110 -1.3302
  323MOL   H10939393   1.013   2.417   3.049  1.0587  1.7344 -1.2388
  323MOL   C11039394   0.890   2.514   2.889 -0.5272 -0.5586 -0.0477
  323MOL   F11139395   0.993   2.552   2.812  0.6055  0.3610  0.8395
  323MOL   F11239396   0.798   2.465   2.806  0.2709 -0.3736 -0.2439
  323MOL   C11339397   0.826   2.630   2.958  0.5479  0.8633  0.1436
  323MOL   H11439398   0.739   2.580   3.000  1.1355 -0.9576 -0.7571
  323MOL   H11539399   0.789   2.699   2.883  0.5708  1.7688  0.9542
  323MOL   C11639400   0.904   2.716   3.061 -0.0724 -0.1774  0.4487
  323MOL   F11739401   0.954   2.634   3.156 -0.1507 -0.1071 -0.3300
  323MOL   F11839402   0.996   2.789   3.000  0.1605  0.6989  0.0624
  323MOL   C11939403   0.817   2.815   3.136 -0.2776  0.3734  0.2125
  323MOL   H12039404   0.883   2.897   3.163 -0.3545  0.8260 -0.9557
  323MOL   H12139405   0.771   2.782   3.229 -2.2901  1.2522 -0.4568
  323MOL   H12239406   0.731   2.857   3.084 -0.6255 -0.8438 -0.2070
  324MOL     C139407   0.113   4.728   7.708 -0.1681 -0.2598  0.3032
  324MOL     F239408   0.224   4.647   7.725 -0.0027 -0.2869 -1.1428
  324MOL     F339409   0.028   4.652   7.647 -0.1220 -0.1945  0.1786
  324MOL     C439410   0.161   4.848   7.621 -0.4859  0.4278 -0.1346
  324MOL     H539411   0.164   4.821   7.516 -1.0040  0.1517 -0.0810
  324MOL     H639412   0.266   4.858   7.648 -1.0216  1.6470  1.5997
  324MOL     H739413   0.066   4.745   7.804 -0.6272  2.3818 -0.3488
  324MOL     C839414   0.075   4.976   7.644 -0.8334 -0.3165  0.5345
  324MOL     F939415   0.072   4.988   7.777  0.2118  0.5727  0.1955
  324MOL    F1039416   0.136   5.085   7.603 -0.6296 -0.0169  0.0752
  324MOL    C1139417   8.274   4.956   7.606  0.0392  0.6837 -0.3053
  324MOL    H1239418   8.236   4.878   7.673  1.0870  0.0103 -0.4889
  324MOL    H1339419   8.256   4.920   7.505  2.2389  1.2818 -0.9213
  324MOL    C1439420   8.190   5.079   7.608 -0.2783  0.5646 -0.2521
  324MOL    F1539421   8.071   5.030   7.597  0.5046  0.1379 -0.1400
  324MOL    F1639422   8.189   5.134   7.728 -0.1135  0.3849  0.2086
  324MOL    C1739423   8.224   5.182   7.497 -0.0033  0.4627  0.4288
  324MOL    H1839424   8.229   5.120   7.407 -3.9460 -1.5516  1.4552
  324MOL    H1939425   8.322   5.227   7.511  0.2035  0.8147 -1.8708
  324MOL    C2039426   8.122   5.306   7.483 -0.8247 -0.4821 -0.8290
  324MOL    F2139427   8.175   5.392   7.394  0.1406  0.0983  0.0380
  324MOL    F2239428   8.015   5.266   7.425 -0.2510 -0.5176  0.3046
  324MOL    C2339429   8.090   5.375   7.620  0.0331 -0.6442  0.3280
  324MOL    H2439430   8.047   5.306   7.694 -0.3590 -1.6571 -0.8292
  324MOL    H2539431   8.010   5.441   7.587  0.1435 -0.3137  0.7179
  324MOL    C2639432   8.207   5.450   7.686 -0.0962 -0.1677  0.1810
  324MOL    F2739433   8.298   5.359   7.723 -0.8227 -0.2081 -0.0583
  324MOL    F2839434   8.269   5.528   7.596 -0.2950  0.3538  0.7079
  324MOL    C2939435   8.178   5.525   7.815  1.2182  0.5011 -0.6398
  324MOL    H3039436   8.273   5.547   7.864  1.2913  1.2346 -1.1055
  324MOL    H3139437   8.119   5.460   7.880  0.9739 -1.3938 -2.6982
  324MOL    C3239438   8.093   5.658   7.806 -0.1520 -0.1839  0.3953
  324MOL    F3339439   8.162   5.752   7.736  0.0349 -0.0181 -0.0251
  324MOL    F3439440   7.987   5.629   7.729 -0.2804 -0.2089  0.4698
  324MOL    C3539441   8.061   5.719   7.941 -0.1132 -0.6121 -0.0714
  324MOL    H3639442   8.154   5.761   7.981 -0.4550 -0.0640  0.1532
  324MOL    H3739443   8.027   5.645   8.013  0.3208 -0.1325  0.6358
  324MOL    C3839444   7.972   5.847   7.952 -0.3406 -0.2872  0.8175
  324MOL    F3939445   7.959   5.873   8.085 -0.3549  0.0300 -0.1803
  324MOL    F4039446   8.039   5.950   7.901 -0.5389  0.4068  0.1387
  324MOL    C4139447   7.839   5.850   7.883 -0.4456 -0.0844 -0.0793
  324MOL    H4239448   7.852   5.829   7.777 -0.9012  0.3809 -0.2281
  324MOL    H4339449   7.789   5.946   7.891 -1.7188 -0.6433 -1.2435
  324MOL    C4439450   7.743   5.749   7.930  0.1247 -0.4372 -0.3973
  324MOL    F4539451   7.799   5.629   7.911 -0.5201 -0.4264  0.3785
  324MOL    F4639452   7.729   5.769   8.062  0.1434  0.3478 -0.1542
  324MOL    C4739453   7.608   5.767   7.859 -0.3818  0.3345  0.4970
  324MOL    H4839454   7.627   5.765   7.752  0.2199  3.0593  0.5326
  324MOL    H4939455   7.555   5.858   7.883 -0.2633 -0.0327  2.2317
  324MOL    C5039456   7.500   5.665   7.881  0.9504  0.1759  0.3469
  324MOL    F5139457   7.376   5.710   7.844 -0.1757  0.4778  0.1923
  324MOL    F5239458   7.539   5.561   7.805 -0.1557 -0.0332 -0.0930
  324MOL    C5339459   7.475   5.620   8.029  0.0167 -0.2811 -0.2335
  324MOL    H5439460   7.450   5.714   8.078  0.1143 -0.5955  0.4190
  324MOL    H5539461   7.564   5.584   8.080  0.0417 -0.0560 -0.1187
  324MOL    C5639462   7.355   5.531   8.054 -1.0275  0.1030 -0.5676
  324MOL    F5739463   7.239   5.589   8.027 -0.2771 -0.3916  0.0266
  324MOL    F5839464   7.370   5.422   7.979  0.5226  0.4453 -0.0491
  324MOL    C5939465   7.342   5.481   8.206 -0.6299  0.4187  1.1582
  324MOL    H6039466   7.434   5.437   8.244 -0.1482 -0.4687 -0.9438
  324MOL    H6139467   7.266   5.404   8.192  1.0025 -1.1784  0.8505
  324MOL    C6239468   7.304   5.581   8.318  0.1876 -0.6209  0.3339
  324MOL    F6339469   7.408   5.657   0.010 -0.1511  0.0837  0.4812
  324MOL    F6439470   7.210   5.666   8.272 -0.0671 -0.2319  0.5551
  324MOL    C6539471   7.246   5.514   0.093 -0.8900  0.0126  0.4881
  324MOL    H6639472   7.167   5.447   0.059 -1.3931  0.7180  0.2517
  324MOL    H6739473   7.189   5.594   0.142  0.1978  1.7422 -0.9991
  324MOL    C6839474   7.343   5.444   0.191 -0.0986  0.3045  1.1118
  324MOL    F6939475   7.396   5.341   0.121  0.4146  0.0379 -0.3075
  324MOL    F7039476   7.452   5.517   0.237  0.4727 -0.0302 -0.5676
  324MOL    C7139477   7.263   5.393   0.315 -0.5915  0.4655 -0.3519
  324MOL    H7239478   7.158   5.383   0.289 -0.8630  1.1358  0.4572
  324MOL    H7339479   7.268   5.480   0.380 -0.7914 -0.3382  0.7710
  324MOL    C7439480   7.319   5.261   0.389  0.2534 -0.7234 -0.0527
  324MOL    F7539481   7.249   5.252   0.502 -0.2871  0.1198  0.1199
  324MOL    F7639482   7.298   5.157   0.304  0.0547 -0.2012  0.0545
  324MOL    C7739483   7.464   5.268   0.431 -0.1627  0.4129 -0.1695
  324MOL    H7839484   7.477   5.359   0.489  0.3534  0.0363  0.3094
  324MOL    H7939485   7.506   5.288   0.333 -0.8958  1.3303 -0.2996
  324MOL    C8039486   7.535   5.149   0.500 -0.0552 -0.2709  0.1751
  324MOL    F8139487   7.488   5.139   0.627  0.2980 -0.5256 -0.3788
  324MOL    F8239488   7.499   5.040   0.432 -0.9080 -0.4780 -0.0613
  324MOL    C8339489   7.684   5.176   0.517  0.5696 -0.1525 -0.6479
  324MOL    H8439490   7.678   5.267   0.578 -0.8787 -0.3836 -0.4220
  324MOL    H8539491   7.736   5.193   0.423  0.2701 -3.1133 -1.4021
  324MOL    C8639492   7.764   5.073   0.588 -0.3319 -0.2730 -0.7359
  324MOL    F8739493   7.729   4.951   0.543 -0.2034 -0.0949 -0.1469
  324MOL    F8839494   7.895   5.096   0.557 -1.1792 -0.4510  0.1606
  324MOL    C8939495   7.769   5.079   0.749  0.3340  0.1000  0.8831
  324MOL    H9039496   7.673   5.045   0.789  0.6004  0.3757  1.7562
  324MOL    H9139497   7.777   5.183   0.779  0.2026  0.1241  0.8352
  324MOL    C9239498   7.888   4.999   0.822  0.2642 -0.5556  0.0266
  324MOL    F9339499   8.002   5.049   0.783 -0.5458 -0.7995 -0.5023
  324MOL    F9439500   7.870   5.022   0.951  0.2434  0.8571 -0.0109
  324MOL    C9539501   7.877   4.848   0.809  0.6539  0.2541  0.3367
  324MOL    H9639502   7.844   4.819   0.709 -0.1928  0.5552  0.5212
  324MOL    H9739503   7.796   4.814   0.872 -0.6750 -0.9009 -1.9235
  324MOL    C9839504   8.004   4.767   0.823  0.3162  0.0833 -0.3889
  324MOL    F9939505   8.100   4.814   0.740  0.2386 -0.4108 -0.0530
  324MOL   F10039506   8.044   4.787   0.950 -0.0876 -0.0520  0.2259
  324MOL   C10139507   7.985   4.612   0.816  0.2691 -0.6165  0.3097
  324MOL   H10239508   7.921   4.571   0.894 -1.6276 -0.7095 -1.2531
  324MOL   H10339509   8.083   4.572   0.840  1.7505  2.6834  0.0548
  324MOL   C10439510   7.932   4.556   0.682  0.3724 -0.4202 -0.3390
  324MOL   F10539511   7.799   4.581   0.676  0.2356  0.2966  0.1901
  324MOL   F10639512   7.983   4.622   0.575  0.5002  0.0294 -0.1843
  324MOL   C10739513   7.963   4.405   0.673 -0.3076  0.0453  0.5142
  324MOL   H10839514   7.927   4.348   0.759  0.4742  1.1491  1.5930
  324MOL   H10939515   8.072   4.396   0.676  0.0510  2.9937 -1.5618
  324MOL   C11039516   7.910   4.341   0.542  1.1361  1.0400  0.5272
  324MOL   F11139517   7.774   4.362   0.532 -0.1745  0.5824 -0.1500
  324MOL   F11239518   7.972   4.400   0.441  0.1190  0.0395  0.3509
  324MOL   C11339519   7.939   4.187   0.527 -0.1789 -0.2506  0.2946
  324MOL   H11439520   7.904   4.154   0.429 -1.4540 -0.8122  0.9290
  324MOL   H11539521   7.874   4.130   0.594  0.4832  0.1135  1.2534
  324MOL   C11639522   8.084   4.138   0.549 -0.1518  0.0480  0.1761
  324MOL   F11739523   8.169   4.208   0.489 -0.5160 -0.3108  0.4110
  324MOL   F11839524   8.113   4.154   0.678  0.1690 -0.3496 -0.6328
  324MOL   C11939525   8.107   3.983   0.522 -0.2376  0.4906 -0.4641
  324MOL   H12039526   8.207   3.953   0.553  0.3670  2.1179 -0.8407
  324MOL   H12139527   8.099   3.960   0.416 -0.5289  2.0818 -0.7969
  324MOL   H12239528   8.039   3.925   0.585 -1.2897 -1.5452 -3.3715
  325MOL     C139529   6.272   5.774   6.083  0.3670  0.4620  0.1842
  325MOL     F239530   6.277   5.887   6.150 -0.3572 -0.6393 -0.0237
  325MOL     F339531   6.217   5.796   5.964 -0.4549 -0.2202 -0.1289
  325MOL     C439532   6.193   5.673   6.168  0.6806 -0.5861 -0.0870
  325MOL     H539533   6.188   5.579   6.114  0.8859 -2.0006  2.2929
  325MOL     H639534   6.092   5.711   6.189  0.4415 -0.9717 -0.5250
  325MOL     H739535   6.375   5.741   6.074 -0.1342 -1.5985  1.4431
  325MOL     C839536   6.271   5.631   6.288 -0.2920 -0.3065  0.1885
  325MOL     F939537   6.382   5.570   6.241  0.7741  0.1677 -0.3246
  325MOL    F1039538   6.310   5.731   6.365 -0.1948 -0.0217  0.8852
  325MOL    C1139539   6.192   5.522   6.369  1.1733  0.1598  0.0846
  325MOL    H1239540   6.249   5.502   6.460  0.7281  2.9925  1.0162
  325MOL    H1339541   6.185   5.431   6.309  0.5688 -1.3569  2.4091
  325MOL    C1439542   6.049   5.554   6.424  1.1568  0.0962  0.7477
  325MOL    F1539543   5.961   5.536   6.326 -0.5662  0.8186  0.0242
  325MOL    F1639544   6.025   5.469   6.519 -0.2136  0.2098  0.0197
  325MOL    C1739545   6.035   5.697   6.481 -0.6034  0.5949  0.3317
  325MOL    H1839546   6.035   5.782   6.413 -0.2461 -1.1336 -1.8791
  325MOL    H1939547   6.124   5.724   6.537  0.8441  0.1975 -1.7339
  325MOL    C2039548   5.904   5.707   6.566  0.4834  0.5031  0.4160
  325MOL    F2139549   5.798   5.657   6.497  0.0140 -0.5384 -0.1955
  325MOL    F2239550   5.915   5.635   6.676 -0.5680  0.0621 -0.4893
  325MOL    C2339551   5.862   5.852   6.597  0.3035  0.0530  0.0210
  325MOL    H2439552   5.779   5.840   6.666  0.5152  0.6956  0.3888
  325MOL    H2539553   5.843   5.911   6.507 -1.8768  0.0090  0.4177
  325MOL    C2639554   5.965   5.940   6.673 -0.1622  0.1697  1.0090
  325MOL    F2739555   5.991   5.878   6.784 -0.1343  0.0127 -0.5257
  325MOL    F2839556   6.087   5.938   6.608 -0.6073  0.2187  0.1042
  325MOL    C2939557   5.909   6.086   6.699 -0.6904  0.1732 -0.7639
  325MOL    H3039558   5.816   6.090   6.755 -0.6415  0.8007 -0.7168
  325MOL    H3139559   5.904   6.138   6.603 -0.3925  1.6422 -0.0071
  325MOL    C3239560   6.004   6.176   6.785  0.1734 -0.4180  0.1160
  325MOL    F3339561   6.113   6.168   6.720  0.0104 -0.0038 -0.4529
  325MOL    F3439562   5.961   6.294   6.772  0.1053 -0.0639  0.8487
  325MOL    C3539563   6.028   6.148   6.938 -0.0843 -0.3556  0.1852
  325MOL    H3639564   6.078   6.234   6.981  0.4163 -1.7336  2.4528
  325MOL    H3739565   6.090   6.059   6.952  0.5031  0.3414  2.2612
  325MOL    C3839566   5.902   6.146   7.025  0.8904 -0.5615  0.2424
  325MOL    F3939567   5.827   6.262   7.008 -0.3748  0.1953  0.4044
  325MOL    F4039568   5.821   6.049   6.984 -0.1169  0.3452 -0.1208
  325MOL    C4139569   5.920   6.145   7.179 -0.0397 -0.3139 -0.1582
  325MOL    H4239570   5.832   6.168   7.239  1.3364  1.0729  1.3746
  325MOL    H4339571   5.979   6.234   7.199 -2.2922  0.7930  1.7836
  325MOL    C4439572   5.990   6.015   7.241  0.1183 -0.0447 -0.5027
  325MOL    F4539573   6.092   5.976   7.170  0.1427 -0.0220 -0.3922
  325MOL    F4639574   6.041   6.046   7.363  0.2474  0.0308 -0.3099
  325MOL    C4739575   5.896   5.895   7.247  0.5154 -0.0460  0.4819
  325MOL    H4839576   5.862   5.889   7.144 -1.5624 -1.6948  1.2121
  325MOL    H4939577   5.806   5.922   7.303 -0.5328  0.0240 -1.2013
  325MOL    C5039578   5.954   5.749   7.276  0.3838  0.1023 -0.2429
  325MOL    F5139579   5.871   5.661   7.227  0.2418  0.0338 -0.4808
  325MOL    F5239580   6.072   5.726   7.215  0.3414 -0.3972 -0.4341
  325MOL    C5339581   5.959   5.734   7.428  0.0941 -0.8499 -1.0715
  325MOL    H5439582   5.873   5.776   7.479 -0.7055 -2.6733 -0.8576
  325MOL    H5539583   6.036   5.803   7.462 -1.9597  0.6573  0.6581
  325MOL    C5639584   5.977   5.597   7.496  0.0144 -0.3251  0.2231
  325MOL    F5739585   6.093   5.540   7.464  0.4865  0.5287  0.2872
  325MOL    F5839586   5.975   5.622   7.626 -0.6572 -0.2527  0.0816
  325MOL    C5939587   5.861   5.499   7.467 -0.8155 -0.3789  0.3115
  325MOL    H6039588   5.848   5.481   7.360  1.9595 -0.3146 -0.0640
  325MOL    H6139589   5.766   5.538   7.505  0.3076  0.8235  1.9443
  325MOL    C6239590   5.879   5.361   7.526  0.1124  0.5787 -0.4325
  325MOL    F6339591   5.985   5.291   7.485 -0.4547  0.0911 -0.0429
  325MOL    F6439592   5.890   5.367   7.655  0.3378  0.0329 -0.6196
  325MOL    C6539593   5.760   5.270   7.488 -0.0530 -0.3771  0.8119
  325MOL    H6639594   5.744   5.278   7.380 -0.1224 -1.8915  0.7021
  325MOL    H6739595   5.666   5.309   7.526 -0.0393 -1.3545  1.8625
  325MOL    C6839596   5.766   5.119   7.521  0.4198 -0.2414 -0.4242
  325MOL    F6939597   5.850   5.055   7.437 -0.2214  0.2036  0.6343
  325MOL    F7039598   5.807   5.116   7.646  0.0533  0.2830 -0.3672
  325MOL    C7139599   5.628   5.050   7.524  0.3195 -0.5772 -0.3057
  325MOL    H7239600   5.569   5.099   7.602  0.5175  1.1534 -1.2227
  325MOL    H7339601   5.640   4.955   7.576  0.9576  0.8579  2.2824
  325MOL    C7439602   5.550   5.048   7.391  0.4135 -0.2036 -0.0510
  325MOL    F7539603   5.443   4.969   7.418 -0.4154  0.1012 -0.5793
  325MOL    F7639604   5.509   5.174   7.374 -0.2641  0.2669 -0.1832
  325MOL    C7739605   5.621   4.982   7.270  0.5534  0.0554  1.0308
  325MOL    H7839606   5.659   4.883   7.294 -1.7362 -1.0064  0.4499
  325MOL    H7939607   5.711   5.042   7.255  0.2968 -0.0205 -1.0253
  325MOL    C8039608   5.533   4.981   7.145  0.4103 -0.1831  0.1987
  325MOL    F8139609   5.463   5.101   7.136  0.2810 -0.0007 -0.2610
  325MOL    F8239610   5.622   4.984   7.052 -0.1006 -0.0900 -0.2925
  325MOL    C8339611   5.460   4.850   7.134 -0.2482  0.0192 -0.0506
  325MOL    H8439612   5.392   4.852   7.219  0.8732  2.3012  0.8558
  325MOL    H8539613   5.535   4.771   7.139  0.4701  0.7310  0.6447
  325MOL    C8639614   5.367   4.857   7.004  0.0056  0.3535  0.1055
  325MOL    F8739615   5.281   4.760   7.028  0.2303 -0.2586 -0.0671
  325MOL    F8839616   5.285   4.959   7.001  0.0223  0.7051  0.1252
  325MOL    C8939617   5.432   4.839   6.864  0.2873 -0.3036  0.3036
  325MOL    H9039618   5.501   4.756   6.875 -0.9015 -1.3808 -0.1975
  325MOL    H9139619   5.497   4.924   6.846  0.3320  0.2252  2.8737
  325MOL    C9239620   5.345   4.837   6.727  0.2951  0.0662  0.1233
  325MOL    F9339621   5.263   4.732   6.726  0.0044 -0.6569  0.0928
  325MOL    F9439622   5.272   4.949   6.726  0.0702 -0.2438  0.2801
  325MOL    C9539623   5.427   4.838   6.598 -0.1643 -0.3607 -0.1529
  325MOL    H9639624   5.463   4.941   6.590 -1.3717  0.0341 -0.6401
  325MOL    H9739625   5.358   4.832   6.514 -0.6742  0.3406  0.2116
  325MOL    C9839626   5.548   4.744   6.577 -0.6314 -0.4413 -0.0319
  325MOL    F9939627   5.643   4.786   6.667 -0.1882 -0.4508  0.1180
  325MOL   F10039628   5.520   4.617   6.610  0.2006  0.2440  0.1619
  325MOL   C10139629   5.602   4.757   6.430  0.3047 -0.2466  0.0082
  325MOL   H10239630   5.654   4.851   6.413 -1.0854  0.4842 -0.2462
  325MOL   H10339631   5.517   4.746   6.362 -0.4983 -1.7215  1.2097
  325MOL   C10439632   5.695   4.638   6.382  0.6439  0.4622  0.1825
  325MOL   F10539633   5.623   4.523   6.386 -0.0043 -0.7571 -0.1200
  325MOL   F10639634   5.703   4.649   6.246  0.3437  0.2474  0.4784
  325MOL   C10739635   5.827   4.617   6.449  0.3381 -0.1939 -0.0402
  325MOL   H10839636   5.824   4.591   6.555 -1.0712 -0.2742 -0.0877
  325MOL   H10939637   5.892   4.704   6.436 -0.1880  0.7108  2.8187
  325MOL   C11039638   5.918   4.509   6.392  0.2597 -0.5671 -0.2184
  325MOL   F11139639   5.971   4.545   6.277 -0.2763 -0.1663 -0.3956
  325MOL   F11239640   6.020   4.494   6.475 -0.1999 -0.0538  0.2656
  325MOL   C11339641   5.851   4.376   6.380 -0.2696  0.1328  0.2525
  325MOL   H11439642   5.776   4.383   6.301  0.5714 -1.7046 -0.7219
  325MOL   H11539643   5.800   4.349   6.473  0.1985 -3.3026 -0.4001
  325MOL   C11639644   5.945   4.257   6.347  0.2500 -0.1195 -0.6046
  325MOL   F11739645   6.033   4.246   6.446 -0.3696 -0.4807  0.0410
  325MOL   F11839646   5.866   4.150   6.366 -0.4075  0.1885 -0.0007
  325MOL   C11939647   6.009   4.255   6.206  0.1331  0.2040 -0.3650
  325MOL   H12039648   6.078   4.173   6.187 -0.5415 -0.6487  0.7732
  325MOL   H12139649   6.070   4.344   6.188  2.9882 -1.4257  0.7602
  325MOL   H12239650   5.929   4.255   6.133 -0.8636 -0.2349  0.6989
  326MOL     C139651   6.730   2.001   2.827 -0.0818  0.3525 -0.9371
  326MOL     F239652   6.646   1.945   2.910 -0.0210  0.0696  0.4813
  326MOL     F339653   6.804   1.905   2.782 -0.0016  0.2408  0.1809
  326MOL     C439654   6.808   2.098   2.903  0.7814 -0.1332 -0.0029
  326MOL     H539655   6.874   2.042   2.969  0.9444  1.2696  1.0448
  326MOL     H639656   6.737   2.154   2.963  1.7634  0.1399  0.9238
  326MOL     H739657   6.668   2.040   2.746  0.7511  0.8043 -1.3706
  326MOL     C839658   6.880   2.204   2.816 -0.8689  0.2422  0.1318
  326MOL     F939659   6.980   2.137   2.761  0.2877  0.0728 -0.2517
  326MOL    F1039660   6.800   2.247   2.718  0.0187  0.4179  0.5682
  326MOL    C1139661   6.941   2.334   2.884 -0.6849  0.1007 -0.1496
  326MOL    H1239662   7.006   2.380   2.809 -0.0109 -0.7812 -0.1167
  326MOL    H1339663   7.007   2.308   2.966 -2.7086 -0.4634  1.3416
  326MOL    C1439664   6.839   2.446   2.927  0.1604  0.4963  0.5505
  326MOL    F1539665   6.745   2.402   3.000  0.3160  0.0539  0.2190
  326MOL    F1639666   6.914   2.519   3.009 -0.0482  0.1333  0.1624
  326MOL    C1739667   6.782   2.528   2.810  0.5300 -0.1727  0.3289
  326MOL    H1839668   6.710   2.468   2.755  0.2531 -2.4820  3.0948
  326MOL    H1939669   6.870   2.537   2.746  0.0619 -1.0808 -0.4323
  326MOL    C2039670   6.712   2.664   2.835  0.0309 -0.4179  0.1761
  326MOL    F2139671   6.799   2.734   2.907  0.6626 -0.1133 -0.5818
  326MOL    F2239672   6.686   2.724   2.727 -0.5069 -0.1903 -0.0776
  326MOL    C2339673   6.584   2.647   2.918  0.1662 -0.5206  0.5825
  326MOL    H2439674   6.590   2.584   3.006  1.0110 -1.6854 -0.3004
  326MOL    H2539675   6.516   2.595   2.851  1.0295  0.2094 -0.8976
  326MOL    C2639676   6.513   2.776   2.966 -0.2516 -0.0645 -0.4360
  326MOL    F2739677   6.481   2.851   2.855 -0.3052  0.4879  0.3561
  326MOL    F2839678   6.404   2.739   3.028  0.9419 -0.3275 -0.3593
  326MOL    C2939679   6.580   2.881   3.058 -0.5946 -0.0128 -0.1474
  326MOL    H3039680   6.507   2.960   3.074  0.5654  1.8180 -3.5127
  326MOL    H3139681   6.657   2.935   3.003  0.7000 -0.8993  0.7548
  326MOL    C3239682   6.636   2.821   3.180  0.2200 -0.0057 -0.7362
  326MOL    F3339683   6.531   2.815   3.260  0.4522  0.6875 -0.2223
  326MOL    F3439684   6.698   2.705   3.169  0.2099 -0.0210 -0.2151
  326MOL    C3539685   6.744   2.907   3.243  0.1248 -0.0402  1.0976
  326MOL    H3639686   6.686   2.996   3.268 -3.2636 -2.2108  1.3029
  326MOL    H3739687   6.829   2.932   3.180 -0.3463  0.9217  0.8256
  326MOL    C3839688   6.808   2.848   3.373  0.2021  0.0861 -0.1697
  326MOL    F3939689   6.897   2.758   3.341  0.4911 -1.0444 -0.5898
  326MOL    F4039690   6.885   2.942   3.428 -0.4453  0.2061 -0.1032
  326MOL    C4139691   6.705   2.792   3.482  0.7485  0.2585  0.3857
  326MOL    H4239692   6.658   2.707   3.433 -0.8977  2.5541 -2.1955
  326MOL    H4339693   6.625   2.860   3.512 -0.0267 -0.5804  0.2347
  326MOL    C4439694   6.760   2.756   3.622 -0.1286  0.2523 -0.1735
  326MOL    F4539695   6.848   2.654   3.606 -0.2637 -0.2636 -0.4423
  326MOL    F4639696   6.815   2.870   3.664  0.0018  0.3674  0.0660
  326MOL    C4739697   6.640   2.708   3.713  0.0543 -0.3987 -0.3023
  326MOL    H4839698   6.586   2.627   3.666 -1.4479 -1.2147  2.6926
  326MOL    H4939699   6.572   2.793   3.725  1.0689  0.3335  0.4314
  326MOL    C5039700   6.688   2.664   3.857  0.0973  0.2933 -1.1759
  326MOL    F5139701   6.779   2.573   3.835  0.0884 -0.2028  0.2737
  326MOL    F5239702   6.756   2.769   3.909  0.1183 -0.3831 -0.0463
  326MOL    C5339703   6.581   2.624   3.958  0.2692 -0.2609  0.5565
  326MOL    H5439704   6.514   2.705   3.986  1.3592  0.6893  0.4566
  326MOL    H5539705   6.629   2.602   4.054 -2.0881  1.8371  2.2896
  326MOL    C5639706   6.490   2.502   3.913  0.4922  0.1981 -0.1713
  326MOL    F5739707   6.417   2.533   3.806 -0.4985  0.3816 -0.2898
  326MOL    F5839708   6.578   2.409   3.878 -0.6633 -0.1584 -0.3178
  326MOL    C5939709   6.403   2.453   4.034 -0.0365 -0.5680 -0.0791
  326MOL    H6039710   6.342   2.532   4.078 -1.1420 -0.1624 -2.2515
  326MOL    H6139711   6.468   2.419   4.115 -1.4672  0.6456  1.6159
  326MOL    C6239712   6.303   2.331   3.998 -0.2959 -0.4490  0.2275
  326MOL    F6339713   6.228   2.315   4.099 -0.2909 -0.7154  0.6459
  326MOL    F6439714   6.228   2.372   3.892  0.3380  0.9176 -0.1626
  326MOL    C6539715   6.366   2.190   3.971 -0.7785 -0.0381 -0.5331
  326MOL    H6639716   6.427   2.169   4.060  0.6893  1.0727 -1.2590
  326MOL    H6739717   6.440   2.197   3.891 -1.9267  0.3422 -1.5727
  326MOL    C6839718   6.260   2.086   3.938 -0.3225  0.5313  0.3518
  326MOL    F6939719   6.166   2.066   4.031 -0.2239 -0.1251  0.0429
  326MOL    F7039720   6.199   2.116   3.820 -0.5397  0.1385  0.3490
  326MOL    C7139721   6.312   1.947   3.906  0.2266 -0.2037 -0.1758
  326MOL    H7239722   6.374   1.969   3.819  2.3086  1.1149  1.5865
  326MOL    H7339723   6.228   1.886   3.873  0.2647 -0.3474 -0.0069
  326MOL    C7439724   6.402   1.879   4.008  0.6137 -0.0421  0.5752
  326MOL    F7539725   6.441   1.765   3.955  0.4722 -0.1030  0.4798
  326MOL    F7639726   6.508   1.956   4.029 -0.0425 -0.3121  0.0998
  326MOL    C7739727   6.314   1.839   4.134 -0.1261  0.4484 -0.1499
  326MOL    H7839728   6.239   1.762   4.115  1.3097 -0.3817 -2.6473
  326MOL    H7939729   6.263   1.924   4.180  0.6078  0.4938  0.5798
  326MOL    C8039730   6.400   1.786   4.251  0.3730  0.4967 -0.4611
  326MOL    F8139731   6.477   1.690   4.207  0.0141  0.2613 -0.3787
  326MOL    F8239732   6.482   1.882   4.302 -0.5664  0.3847  0.0917
  326MOL    C8339733   6.331   1.712   4.367  0.1163  0.0667  0.2316
  326MOL    H8439734   6.407   1.689   4.442 -3.0919 -1.5429  3.1751
  326MOL    H8539735   6.288   1.621   4.326  2.0530 -0.9989  0.4960
  326MOL    C8639736   6.218   1.787   4.444 -0.4398  0.3728  0.2055
  326MOL    F8739737   6.117   1.770   4.362  0.5049  0.1814  0.0356
  326MOL    F8839738   6.184   1.715   4.548  0.2049  0.0275 -0.0748
  326MOL    C8939739   6.252   1.939   4.485  0.2802  0.1067  0.4897
  326MOL    H9039740   6.294   2.000   4.406  1.4993 -0.4878  0.6710
  326MOL    H9139741   6.337   1.925   4.552  2.0760 -1.7557 -2.0610
  326MOL    C9239742   6.125   2.017   4.537  0.4666  0.4519 -0.1241
  326MOL    F9339743   6.056   2.040   4.422 -0.1410 -0.0732  0.5667
  326MOL    F9439744   6.059   1.924   4.613  0.6095 -0.2983  0.4439
  326MOL    C9539745   6.153   2.148   4.617 -0.6562 -0.1209 -0.1134
  326MOL    H9639746   6.215   2.218   4.561 -0.1470 -0.7559 -0.3467
  326MOL    H9739747   6.217   2.123   4.701 -1.8067  0.5565  0.9804
  326MOL    C9839748   6.034   2.224   4.684 -0.5562 -0.1865 -0.6190
  326MOL    F9939749   6.083   2.301   4.775  0.0884  0.6948 -0.1289
  326MOL   F10039750   5.978   2.302   4.589 -0.9221  0.4619  0.1349
  326MOL   C10139751   5.924   2.138   4.748 -0.4988  0.7780 -1.1762
  326MOL   H10239752   5.976   2.084   4.828 -0.4037 -0.4714 -2.0551
  326MOL   H10339753   5.879   2.063   4.682 -0.9128  0.2745 -0.3183
  326MOL   C10439754   5.799   2.210   4.806 -0.2703 -0.3454  0.5131
  326MOL   F10539755   5.843   2.310   4.884 -0.0080 -0.5900 -0.8034
  326MOL   F10639756   5.727   2.257   4.707 -0.0242 -0.4813  0.5856
  326MOL   C10739757   5.710   2.127   4.899 -0.3774 -0.2175  0.0429
  326MOL   H10839758   5.631   2.194   4.931 -0.7628 -0.1553 -1.0028
  326MOL   H10939759   5.775   2.106   4.983 -0.0250 -0.2243 -0.2282
  326MOL   C11039760   5.652   1.999   4.852  0.3620  0.5398 -0.0922
  326MOL   F11139761   5.598   2.016   4.727 -0.0672  0.0649  0.3674
  326MOL   F11239762   5.750   1.911   4.841  0.2656  0.1974 -0.3876
  326MOL   C11339763   5.536   1.935   4.932 -0.3893 -0.0888  0.3528
  326MOL   H11439764   5.483   1.864   4.869 -0.0123  0.2528 -0.3500
  326MOL   H11539765   5.473   2.016   4.967 -1.9101 -1.1288  0.0955
  326MOL   C11639766   5.577   1.868   5.065 -0.0869  0.4480 -0.6081
  326MOL   F11739767   5.679   1.781   5.043  0.0022 -0.0474 -0.0266
  326MOL   F11839768   5.636   1.947   5.154  0.2092  0.3081 -0.3379
  326MOL   C11939769   5.459   1.793   5.130  0.3120 -0.7221  0.2320
  326MOL   H12039770   5.368   1.850   5.146  0.3860 -0.5259 -0.0390
  326MOL   H12139771   5.487   1.716   5.202 -0.9442 -0.5587  0.8901
  326MOL   H12239772   5.423   1.733   5.046 -1.4205  1.2201 -0.4399
  327MOL     C139773   8.331   5.193   0.537 -0.2013 -0.3068 -0.0129
  327MOL     F239774   0.021   5.192   0.669 -0.4503  0.1544 -0.7232
  327MOL     F339775   8.245   5.295   0.528  0.3559  0.2345 -0.2664
  327MOL     C439776   8.253   5.066   0.506  0.3496  0.1965 -0.3446
  327MOL     H539777   8.180   5.050   0.585  1.0284 -0.6410  0.1219
  327MOL     H639778   8.321   4.988   0.539 -2.0781 -1.4439  0.8920
  327MOL     H739779   0.062   5.219   0.469  1.3614 -1.0174  1.5463
  327MOL     C839780   8.197   5.065   0.366  0.2877 -0.2753  0.1379
  327MOL     F939781   8.132   5.177   0.327  0.9054  0.2212 -0.1573
  327MOL    F1039782   8.305   5.061   0.286 -0.6360  0.5592  0.5820
  327MOL    C1139783   8.102   4.935   0.346 -0.0978  0.4791  0.3630
  327MOL    H1239784   8.023   4.926   0.421  0.1176  0.6899  0.6164
  327MOL    H1339785   8.160   4.845   0.366 -0.2335  0.1248 -0.8232
  327MOL    C1439786   8.032   4.929   0.203 -0.1461  0.1306 -0.1509
  327MOL    F1539787   7.946   5.030   0.192 -0.1965 -0.4103  0.2893
  327MOL    F1639788   8.131   4.926   0.108 -0.0804  0.0232 -0.3437
  327MOL    C1739789   7.939   4.806   0.188 -0.2117 -0.2422  0.2091
  327MOL    H1839790   7.885   4.823   0.095  1.2362  1.5273 -0.3451
  327MOL    H1939791   7.860   4.797   0.263 -0.7800  2.4800 -0.0141
  327MOL    C2039792   8.011   4.667   0.186 -0.0484 -0.1203  0.5529
  327MOL    F2139793   8.092   4.666   0.084 -0.6691  0.2414  0.8867
  327MOL    F2239794   8.089   4.645   0.294  0.0643 -0.0980  0.2839
  327MOL    C2339795   7.914   4.544   0.164 -0.5607  0.0210 -0.2769
  327MOL    H2439796   7.837   4.555   0.241 -0.5881 -1.8399 -0.0152
  327MOL    H2539797   7.968   4.456   0.199  0.4565  1.2015  1.2085
  327MOL    C2639798   7.846   4.525   0.025 -0.0011 -0.7974 -0.8029
  327MOL    F2739799   7.786   4.633   8.326 -0.2357 -0.1333 -0.1656
  327MOL    F2839800   7.940   4.492   8.285 -0.2158  0.0197 -0.5303
  327MOL    C2939801   7.734   4.418   0.033 -0.2681  0.3173  0.1466
  327MOL    H3039802   7.680   4.421   8.288 -0.7693  3.2907  0.4555
  327MOL    H3139803   7.659   4.456   0.102  0.0883  3.2568 -1.0002
  327MOL    C3239804   7.772   4.276   0.073 -0.4864  0.2738 -0.4510
  327MOL    F3339805   7.878   4.234   8.345  0.3576 -0.5354  0.3214
  327MOL    F3439806   7.801   4.277   0.202  0.0343 -0.4919 -0.4773
  327MOL    C3539807   7.660   4.178   0.055 -0.4626  0.2565  0.5646
  327MOL    H3639808   7.644   4.184   8.297 -1.1385  1.2994  0.7142
  327MOL    H3739809   7.565   4.211   0.097 -0.7923 -0.2065  0.1879
  327MOL    C3839810   7.701   4.033   0.094 -0.3467 -0.0987 -0.8412
  327MOL    F3939811   7.801   3.974   0.018  0.2601  0.2215 -0.6297
  327MOL    F4039812   7.739   4.039   0.219  0.1268 -0.1875 -0.0059
  327MOL    C4139813   7.589   3.935   0.092 -0.2194 -0.6734 -0.4650
  327MOL    H4239814   7.496   3.988   0.112  0.6647  1.2724 -1.3146
  327MOL    H4339815   7.601   3.861   0.171  1.1795 -0.2282 -0.2524
  327MOL    C4439816   7.560   3.864   8.310  0.5216  0.6167  0.5281
  327MOL    F4539817   7.520   3.954   8.224 -0.6634  0.2708 -0.6441
  327MOL    F4639818   7.664   3.795   8.264 -0.1366  0.3975  0.1747
  327MOL    C4739819   7.449   3.759   8.323  0.2265 -0.6803  0.1943
  327MOL    H4839820   7.372   3.810   0.031  0.3995 -0.1463 -0.0424
  327MOL    H4939821   7.497   3.682   0.034  0.8588 -0.5527 -0.1398
  327MOL    C5039822   7.380   3.701   8.196 -0.1953 -0.2506  0.0503
  327MOL    F5139823   7.297   3.608   8.244 -0.4185 -0.6086 -0.1972
  327MOL    F5239824   7.299   3.797   8.135 -0.3985  0.0144  0.2509
  327MOL    C5339825   7.483   3.633   8.107 -0.0829 -0.1398  0.1567
  327MOL    H5439826   7.539   3.559   8.165 -2.8358 -0.8150  2.0354
  327MOL    H5539827   7.567   3.695   8.075  0.4550 -0.6293  0.5875
  327MOL    C5639828   7.424   3.578   7.980 -0.3123 -0.1237  0.4775
  327MOL    F5739829   7.386   3.681   7.902 -0.0571 -0.3882 -0.1148
  327MOL    F5839830   7.529   3.519   7.922  0.5931  0.2524 -0.3127
  327MOL    C5939831   7.308   3.485   7.998  0.0245  0.2997  0.2580
  327MOL    H6039832   7.225   3.527   8.054  0.6756 -0.0756  1.5040
  327MOL    H6139833   7.350   3.401   8.052 -0.7796 -0.1350  0.2129
  327MOL    C6239834   7.234   3.435   7.867  0.2222 -0.2174  0.0361
  327MOL    F6339835   7.151   3.527   7.838  0.0735  0.0710 -0.0201
  327MOL    F6439836   7.326   3.416   7.769 -0.2383  0.0888 -0.5619
  327MOL    C6539837   7.178   3.294   7.897 -0.1254 -0.4942  0.0433
  327MOL    H6639838   7.148   3.280   8.000 -0.4444  0.9645  0.1690
  327MOL    H6739839   7.264   3.227   7.890 -0.4277 -0.9471  0.7370
  327MOL    C6839840   7.071   3.239   7.805  0.7891 -0.1598 -0.6677
  327MOL    F6939841   7.046   3.116   7.835  0.1547 -0.2835  0.1698
  327MOL    F7039842   6.967   3.313   7.847 -0.3008  0.0430  0.2478
  327MOL    C7139843   7.110   3.266   7.660  0.2797 -0.2925 -0.1401
  327MOL    H7239844   7.185   3.201   7.615 -2.2166 -2.3272 -1.4556
  327MOL    H7339845   7.134   3.372   7.648 -1.1898  0.2119  1.1225
  327MOL    C7439846   6.984   3.241   7.566  0.1569 -0.5815 -0.1145
  327MOL    F7539847   6.871   3.296   7.625  0.1818 -0.8712 -0.0291
  327MOL    F7639848   7.016   3.312   7.465 -0.3481  0.3374 -0.0737
  327MOL    C7739849   6.960   3.088   7.529  0.1105  0.6347 -0.4668
  327MOL    H7839850   6.948   3.029   7.620 -0.7647  0.8327 -0.4424
  327MOL    H7939851   7.051   3.052   7.481  0.5195  0.5195  0.3845
  327MOL    C8039852   6.835   3.064   7.446 -0.6596  0.5949  0.1193
  327MOL    F8139853   6.730   3.084   7.525  0.1525  0.6328 -0.2606
  327MOL    F8239854   6.818   3.135   7.336 -0.2775  0.1528 -0.2291
  327MOL    C8339855   6.829   2.923   7.392  0.2919  0.0555  0.0027
  327MOL    H8439856   6.909   2.913   7.318 -0.8837  1.9995 -1.5712
  327MOL    H8539857   6.735   2.920   7.337 -1.4571  0.7946  2.8851
  327MOL    C8639858   6.818   2.800   7.489  0.4907 -0.7895 -0.1261
  327MOL    F8739859   6.938   2.779   7.552  0.6034 -0.3169 -0.0633
  327MOL    F8839860   6.723   2.838   7.581  0.4810  0.5229 -0.2078
  327MOL    C8939861   6.779   2.676   7.408 -0.1536 -0.7376  0.1633
  327MOL    H9039862   6.855   2.663   7.331 -0.9655 -1.2552 -0.5583
  327MOL    H9139863   6.683   2.694   7.360 -0.2248  0.7420  0.8342
  327MOL    C9239864   6.769   2.550   7.500  0.4151  0.4945 -0.2034
  327MOL    F9339865   6.894   2.504   7.525  0.2509  0.1981  0.2821
  327MOL    F9439866   6.700   2.578   7.607 -0.9130 -0.2628 -0.5565
  327MOL    C9539867   6.687   2.432   7.433  0.1172 -0.1759 -0.3766
  327MOL    H9639868   6.713   2.409   7.330  1.8155  2.9463 -0.6830
  327MOL    H9739869   6.580   2.454   7.436 -0.7770 -4.2308  1.0842
  327MOL    C9839870   6.693   2.297   7.515  0.5696 -0.1761  0.3823
  327MOL    F9939871   6.819   2.257   7.513 -0.4827  0.0864 -0.2538
  327MOL   F10039872   6.673   2.316   7.644 -0.0337  0.0229 -0.2424
  327MOL   C10139873   6.601   2.180   7.466 -0.1218 -1.1153 -0.2280
  327MOL   H10239874   6.610   2.104   7.543 -1.8330 -0.6199  0.4878
  327MOL   H10339875   6.646   2.136   7.377  2.7881 -0.2954  0.7864
  327MOL   C10439876   6.453   2.211   7.427 -0.4985 -0.2304  0.4189
  327MOL   F10539877   6.394   2.256   7.538  0.1427 -0.3583  0.0560
  327MOL   F10639878   6.440   2.305   7.340  0.1063 -0.2933 -0.3330
  327MOL   C10739879   6.373   2.105   7.356  0.5419  0.1609 -0.3711
  327MOL   H10839880   6.403   2.089   7.253  1.2409  2.1792 -0.4995
  327MOL   H10939881   6.267   2.130   7.353 -0.2028 -2.5490  1.3426
  327MOL   C11039882   6.372   1.966   7.419 -0.0551  0.5926 -0.1003
  327MOL   F11139883   6.491   1.906   7.398 -0.1169  0.0238 -0.5898
  327MOL   F11239884   6.355   1.974   7.553 -0.1267  0.0822  0.2417
  327MOL   C11339885   6.263   1.886   7.353 -0.7950  0.4757 -0.3185
  327MOL   H11439886   6.241   1.915   7.250  1.2061  0.2594 -0.8369
  327MOL   H11539887   6.172   1.916   7.404 -1.4050  0.5201 -1.4207
  327MOL   C11639888   6.289   1.739   7.358  0.5122 -0.1171 -0.2376
  327MOL   F11739889   6.203   1.672   7.292 -0.5054 -0.8852  0.7406
  327MOL   F11839890   6.403   1.713   7.290  0.3157  0.1313  0.3124
  327MOL   C11939891   6.283   1.678   7.499 -0.4426 -0.5353 -1.0383
  327MOL   H12039892   6.324   1.577   7.503  1.9247  0.4715  1.4309
  327MOL   H12139893   6.188   1.685   7.550 -1.1134 -0.6669 -2.2476
  327MOL   H12239894   6.343   1.737   7.569 -3.1544 -1.5171  2.2171
  328MOL     C139895   0.490   5.965   7.008  0.2509 -0.2795 -0.0472
  328MOL     F239896   0.559   5.853   7.010 -0.0677  0.4970 -0.3764
  328MOL     F339897   0.394   5.957   7.095 -0.1187  0.6715  0.1088
  328MOL     C439898   0.436   5.997   6.870 -0.1733  0.3533 -0.2520
  328MOL     H539899   0.342   6.053   6.875 -1.0702 -1.0519 -0.9919
  328MOL     H639900   0.393   5.908   6.823 -0.2231 -0.1509  0.7333
  328MOL     H739901   0.559   6.042   7.041  1.6757 -1.2351 -0.7593
  328MOL     C839902   0.529   6.036   6.767  0.5433 -0.3339 -0.1610
  328MOL     F939903   0.591   6.148   6.805  0.3619  0.1794  0.3935
  328MOL    F1039904   0.623   5.940   6.747  0.2460 -0.2002 -0.3031
  328MOL    C1139905   0.459   6.063   6.627 -0.5497 -0.2210  0.4329
  328MOL    H1239906   0.383   6.137   6.654  1.1166  0.1878  4.2753
  328MOL    H1339907   0.418   5.970   6.588 -1.2830 -0.0048  0.6635
  328MOL    C1439908   0.542   6.141   6.521 -0.1676  1.0300 -0.3310
  328MOL    F1539909   0.467   6.134   6.410  0.2002 -0.2969  0.2011
  328MOL    F1639910   0.556   6.273   6.546  0.2524  0.2679  0.2532
  328MOL    C1739911   0.681   6.081   6.502 -0.6968 -0.4199  0.1340
  328MOL    H1839912   0.683   5.972   6.494  0.7721 -0.1428 -5.2986
  328MOL    H1939913   0.731   6.095   6.598 -0.2977  0.3909 -0.1857
  328MOL    C2039914   0.769   6.142   6.390 -0.1253  0.5060  0.0668
  328MOL    F2139915   0.888   6.075   6.390 -0.1123  0.1604  0.0922
  328MOL    F2239916   0.714   6.132   6.267 -0.9095 -0.2496 -0.6575
  328MOL    C2339917   0.806   6.289   6.406 -0.3678 -0.5512 -0.0520
  328MOL    H2439918   0.725   6.356   6.379  0.9578 -0.0579 -2.9681
  328MOL    H2539919   0.868   6.314   6.320 -0.5642 -1.4497 -0.4550
  328MOL    C2639920   0.880   6.329   6.540  0.1026 -0.1019  0.4080
  328MOL    F2739921   0.787   6.348   6.638 -0.1320  0.1285 -0.3529
  328MOL    F2839922   0.972   6.241   6.571  0.0477 -0.0739 -0.2079
  328MOL    C2939923   0.970   6.456   6.523 -0.0018 -0.1883 -0.2345
  328MOL    H3039924   1.054   6.430   6.459 -0.8642 -1.8469 -0.7279
  328MOL    H3139925   1.004   6.473   6.625 -1.1977 -0.6654  0.2593
  328MOL    C3239926   0.895   6.590   6.486 -0.0806  1.0042  0.2929
  328MOL    F3339927   0.842   6.578   6.363  0.2052 -0.8135 -0.3134
  328MOL    F3439928   0.795   6.596   6.564  0.3622 -0.0450 -0.3612
  328MOL    C3539929   0.967   6.728   6.504  0.2360  0.5875  0.2168
  328MOL    H3639930   1.002   6.720   6.607 -0.5601  1.1022  0.5311
  328MOL    H3739931   0.885   6.799   6.503  0.6244  1.0278 -2.3518
  328MOL    C3839932   1.088   6.761   6.419  0.3857 -0.1784 -0.4035
  328MOL    F3939933   1.196   6.694   6.460 -0.2307 -0.2389 -0.1205
  328MOL    F4039934   1.063   6.715   6.303 -0.2524 -0.1729  0.0846
  328MOL    C4139935   1.125   6.914   6.399 -0.1459  0.1274  0.1672
  328MOL    H4239936   1.039   6.969   6.363  0.7051 -0.1756 -2.4058
  328MOL    H4339937   1.191   6.905   6.313 -1.7348  2.3142 -1.3198
  328MOL    C4439938   1.196   6.987   6.515  0.0292 -0.5361 -0.0349
  328MOL    F4539939   1.189   7.110   6.486 -0.0430  0.3456 -0.2743
  328MOL    F4639940   1.113   6.979   6.620 -0.2434 -0.1092  0.1506
  328MOL    C4739941   1.328   6.930   6.567  0.7065  0.0209  0.2857
  328MOL    H4839942   1.305   6.830   6.604 -0.0845  0.5550  1.2905
  328MOL    H4939943   1.359   6.983   6.657  1.4506 -0.6844  0.4482
  328MOL    C5039944   1.449   6.936   6.475 -0.3907  0.5012 -0.2237
  328MOL    F5139945   1.552   6.896   6.552  0.2716 -0.4042  0.1440
  328MOL    F5239946   1.427   6.845   6.380 -0.0495 -0.5784 -0.2939
  328MOL    C5339947   1.477   7.075   6.427 -0.5045 -0.3619 -0.1457
  328MOL    H5439948   1.450   7.145   6.507 -4.3195  0.8465 -2.3517
  328MOL    H5539949   1.404   7.107   6.353  0.1924  1.3298 -0.1413
  328MOL    C5639950   1.617   7.097   6.367 -0.0898 -0.3287  0.1641
  328MOL    F5739951   1.716   7.065   6.445 -0.0158 -0.1184 -0.0604
  328MOL    F5839952   1.631   7.014   6.255  0.5117  0.4838 -0.0912
  328MOL    C5939953   1.641   7.245   6.336  0.1640 -0.2411  0.0617
  328MOL    H6039954   1.652   7.303   6.428  1.0535 -0.2704 -0.0247
  328MOL    H6139955   1.547   7.285   6.298 -0.7009 -1.6900  0.6354
  328MOL    C6239956   1.764   7.283   6.249 -0.2633  0.7038  0.2790
  328MOL    F6339957   1.749   7.236   6.125  0.1551  0.1953 -0.8610
  328MOL    F6439958   1.760   7.408   6.235  0.0615 -0.4213  0.1672
  328MOL    C6539959   1.899   7.240   6.310 -0.0747 -0.0494  0.2608
  328MOL    H6639960   1.903   7.132   6.327  0.7183  0.1632  1.4953
  328MOL    H6739961   1.904   7.271   6.414  0.0135  2.3548 -0.4358
  328MOL    C6839962   2.035   7.277   6.231 -0.5134  0.0659 -0.3961
  328MOL    F6939963   2.137   7.281   6.313  0.3169  0.4067  0.5875
  328MOL    F7039964   2.058   7.182   6.141 -0.3921  0.2901  0.5204
  328MOL    C7139965   2.025   7.416   6.162 -0.5503 -0.0097  0.0350
  328MOL    H7239966   2.000   7.490   6.238  0.7546  1.5586 -1.0236
  328MOL    H7339967   1.940   7.426   6.094  0.2171  3.8751 -0.4420
  328MOL    C7439968   2.144   7.458   6.079 -0.1531  0.1059 -0.1675
  328MOL    F7539969   2.163   7.382   5.972  0.6013 -0.2130 -0.0593
  328MOL    F7639970   2.104   7.574   6.030 -0.3388  0.0057  0.5783
  328MOL    C7739971   2.276   7.472   6.160  0.7191 -0.2073 -0.4675
  328MOL    H7839972   2.325   7.374   6.158  0.7499 -0.2176  0.7499
  328MOL    H7939973   2.267   7.489   6.267  1.2124 -1.0322 -0.2904
  328MOL    C8039974   2.380   7.580   6.098  0.6718 -0.0395  0.1157
  328MOL    F8139975   2.328   7.699   6.126  0.4918  0.3579  0.1862
  328MOL    F8239976   2.493   7.572   6.172 -0.3227  0.2019  0.1816
  328MOL    C8339977   2.398   7.555   5.945 -0.2684  0.0410  0.2751
  328MOL    H8439978   2.311   7.541   5.880  0.1137  1.9385 -0.6789
  328MOL    H8539979   2.440   7.455   5.936 -0.3468 -0.0643  1.0968
  328MOL    C8639980   2.501   7.655   5.880  0.1767 -0.1892  0.0239
  328MOL    F8739981   2.609   7.661   5.951 -0.1481 -0.3325 -0.2828
  328MOL    F8839982   2.535   7.599   5.766  0.4470  0.1879  0.3915
  328MOL    C8939983   2.452   7.796   5.851 -0.4372  0.9223 -0.0332
  328MOL    H9039984   2.534   7.861   5.821 -1.3683  3.1987  2.1286
  328MOL    H9139985   2.434   7.846   5.947  2.4674  2.0884 -0.0697
  328MOL    C9239986   2.329   7.817   5.754 -0.2289 -0.1530  0.0820
  328MOL    F9339987   2.221   7.763   5.817 -0.0748 -0.5926  1.2690
  328MOL    F9439988   2.302   7.948   5.759  0.0859  0.3074 -0.1262
  328MOL    C9539989   2.335   7.758   5.612 -0.2429  0.3280  0.6658
  328MOL    H9639990   2.236   7.778   5.570 -0.1990 -2.9034 -1.2200
  328MOL    H9739991   2.336   7.650   5.598  0.5307  0.3991  0.0820
  328MOL    C9839992   2.442   7.812   5.508 -0.2333  0.2538  0.0632
  328MOL    F9939993   2.431   7.942   5.506  0.4922  0.3779  0.0203
  328MOL   F10039994   2.562   7.788   5.558  0.2161  0.0504  0.0874
  328MOL   C10139995   2.435   7.761   5.364 -0.6374 -0.3324  0.1041
  328MOL   H10239996   2.464   7.656   5.359 -0.4426 -0.2980  0.4780
  328MOL   H10339997   2.507   7.813   5.300  0.7970  0.7167  2.5207
  328MOL   C10439998   2.303   7.772   5.290 -0.4281 -0.4572 -0.6905
  328MOL   F10539999   2.337   7.735   5.164  0.4660 -0.1840  0.1615
  328MOL   F10640000   2.213   7.683   5.334 -0.1414 -0.3473  0.5370
  328MOL   C10740001   2.246   7.914   5.285  0.6904 -0.3623  0.4326
  328MOL   H10840002   2.328   7.974   5.248  2.1449 -2.3329  0.4027
  328MOL   H10940003   2.213   7.961   5.378  0.3921 -0.1582  0.2274
  328MOL   C11040004   2.130   7.916   5.185 -0.3977 -0.2940  0.3377
  328MOL   F11140005   2.169   7.889   5.061  0.3281  0.1718  0.4391
  328MOL   F11240006   2.033   7.833   5.225 -0.3882  0.1015 -0.2393
  328MOL   C11340007   2.058   8.053   5.172 -1.0918  0.0565  0.6582
  328MOL   H11440008   2.044   8.087   5.275  0.0648 -1.7967  1.4763
  328MOL   H11540009   1.956   8.043   5.137  0.0709  1.5673 -3.3729
  328MOL   C11640010   2.130   8.160   5.086  0.2246 -0.6351 -0.3538
  328MOL   F11740011   2.236   8.199   5.148  0.7242 -0.5125 -0.2786
  328MOL   F11840012   2.176   8.114   4.964  0.5631 -0.2206 -0.3439
  328MOL   C11940013   2.058   8.294   5.072  0.5374  0.4811 -0.6872
  328MOL   H12040014   1.971   8.275   5.010 -0.2054 -0.3829  0.6132
  328MOL   H12140015   2.122   0.018   5.021  1.1565  1.0980  0.9450
  328MOL   H12240016   2.024   8.348   5.160 -1.3530 -1.8949  0.0784
  329MOL     C140017   1.412   4.574   5.101  0.2059 -0.2901 -0.1953
  329MOL     F240018   1.489   4.644   5.176  0.0609  0.0856  0.0868
  329MOL     F340019   1.457   4.557   4.974  0.0131  0.4718 -0.1696
  329MOL     C440020   1.272   4.635   5.103  0.1711  0.2890  0.0974
  329MOL     H540021   1.231   4.604   5.199  0.5567 -2.2341 -0.5349
  329MOL     H640022   1.208   4.587   5.030  0.0948  0.1669  0.2436
  329MOL     H740023   1.410   4.473   5.142 -2.2576 -0.6954 -1.1898
  329MOL     C840024   1.269   4.793   5.070 -1.2093 -0.2437  0.2708
  329MOL     F940025   1.147   4.836   5.081 -0.3968 -0.3098 -0.1382
  329MOL    F1040026   1.336   4.850   5.166  0.2314 -0.4556  0.6777
  329MOL    C1140027   1.328   4.823   4.930  0.0237  0.3774  0.4580
  329MOL    H1240028   1.275   4.762   4.856 -2.3119  1.9034  0.8175
  329MOL    H1340029   1.435   4.809   4.939 -0.1575 -0.3099  1.7490
  329MOL    C1440030   1.307   4.973   4.889 -0.6583 -0.3437 -0.4837
  329MOL    F1540031   1.176   4.995   4.884  0.3962 -0.4710  0.6602
  329MOL    F1640032   1.361   5.047   4.985 -0.1385  0.4664 -0.2723
  329MOL    C1740033   1.380   5.010   4.763 -0.0025 -0.1866  1.1365
  329MOL    H1840034   1.352   4.939   4.685  0.8393  0.5323  0.1716
  329MOL    H1940035   1.486   4.989   4.772  0.1191  0.6405  1.7287
  329MOL    C2040036   1.360   5.157   4.711  0.2584  0.4015  0.3810
  329MOL    F2140037   1.406   5.240   4.799 -0.0749 -0.6146 -0.0569
  329MOL    F2240038   1.427   5.180   4.599  0.3385 -0.4323 -0.1099
  329MOL    C2340039   1.214   5.194   4.679 -0.5859  0.0799 -0.9816
  329MOL    H2440040   1.225   5.293   4.635 -0.5288  1.7771  2.6629
  329MOL    H2540041   1.160   5.218   4.770  1.8292 -2.0817  1.1021
  329MOL    C2640042   1.135   5.101   4.584 -0.5934  0.2053  0.3282
  329MOL    F2740043   1.143   4.975   4.624  0.1763  0.1608  0.0037
  329MOL    F2840044   1.002   5.139   4.582 -0.3427 -0.0511 -0.1327
  329MOL    C2940045   1.193   5.109   4.437  0.1975  0.2596  0.2962
  329MOL    H3040046   1.292   5.064   4.443 -0.1621 -0.6116 -0.1927
  329MOL    H3140047   1.205   5.213   4.408 -0.2378  1.5752  4.4589
  329MOL    C3240048   1.123   5.021   4.328  0.2427 -0.2007 -0.8828
  329MOL    F3340049   1.200   5.044   4.222 -0.1523  0.0816 -0.1827
  329MOL    F3440050   1.137   4.901   4.384  0.0899 -0.3519  0.5774
  329MOL    C3540051   0.977   5.060   4.302 -0.0220  0.0864 -0.9621
  329MOL    H3640052   0.958   5.167   4.298 -0.3693 -0.0360 -3.1697
  329MOL    H3740053   0.913   5.024   4.383 -0.4552 -1.0013 -1.7670
  329MOL    C3840054   0.928   4.984   4.170  0.3247  0.4694 -0.1045
  329MOL    F3940055   0.984   5.035   4.059 -0.0523 -0.3552 -0.7629
  329MOL    F4040056   0.954   4.856   4.189 -0.0544 -0.1149  0.3605
  329MOL    C4140057   0.774   5.007   4.155 -0.4116  0.5036  0.5090
  329MOL    H4240058   0.764   5.111   4.186 -4.8698 -0.0848  1.4026
  329MOL    H4340059   0.728   4.941   4.230 -0.4052 -1.7841 -1.4352
  329MOL    C4440060   0.710   4.958   4.014 -0.2059 -0.1062  0.0862
  329MOL    F4540061   0.582   4.973   4.031  0.3446 -0.2142  0.7012
  329MOL    F4640062   0.754   5.030   3.912 -0.0926  0.0608 -0.3412
  329MOL    C4740063   0.738   4.806   3.993  0.1090 -0.4338  0.2560
  329MOL    H4840064   0.728   4.758   4.090  1.0459 -0.1909  0.4819
  329MOL    H4940065   0.845   4.814   3.972 -0.0801 -0.6239 -0.8228
  329MOL    C5040066   0.663   4.726   3.886 -0.1509 -0.2089  0.1761
  329MOL    F5140067   0.736   4.741   3.780  0.2063 -0.3933 -0.0160
  329MOL    F5240068   0.679   4.599   3.920 -0.3403  0.2192  0.4459
  329MOL    C5340069   0.515   4.772   3.853 -1.1114 -0.7777 -0.3310
  329MOL    H5440070   0.517   4.865   3.798 -0.8149  0.0615  1.0752
  329MOL    H5540071   0.479   4.795   3.953 -1.2690 -0.2647 -0.5079
  329MOL    C5640072   0.415   4.666   3.798  0.1783  0.1745  0.6409
  329MOL    F5740073   0.383   4.581   3.896 -0.0710 -0.9070 -0.1175
  329MOL    F5840074   0.307   4.739   3.768  0.2772  0.7559  0.0862
  329MOL    C5940075   0.467   4.595   3.671  1.0971 -1.0106 -0.2793
  329MOL    H6040076   0.554   4.534   3.694  2.2361  0.4038 -0.7520
  329MOL    H6140077   0.510   4.669   3.604 -0.8012 -0.5721 -1.0506
  329MOL    C6240078   0.358   4.514   3.592  0.0681 -0.6017 -0.1690
  329MOL    F6340079   0.266   4.596   3.549  0.8480 -0.0245  0.1550
  329MOL    F6440080   0.417   4.453   3.486 -0.1107 -0.4241 -0.3515
  329MOL    C6540081   0.294   4.407   3.684  0.2940  0.2156  0.2971
  329MOL    H6640082   0.242   4.438   3.775 -0.1492 -1.1509  0.5161
  329MOL    H6740083   0.367   4.345   3.735 -1.0468 -1.1838  0.5506
  329MOL    C6840084   0.198   4.314   3.601 -0.5016  0.3993  0.8307
  329MOL    F6940085   0.269   4.236   3.520  0.5555  0.2714  0.0923
  329MOL    F7040086   0.142   4.228   3.689 -0.3787 -0.1892 -0.8082
  329MOL    C7140087   0.091   4.395   3.524 -0.2709 -0.5519 -0.4506
  329MOL    H7240088   0.146   4.440   3.442 -1.4081 -0.3753 -1.1259
  329MOL    H7340089   0.056   4.473   3.592  0.1390 -0.7927  0.0433
  329MOL    C7440090   8.338   4.308   3.455  0.3861 -0.1617 -0.7611
  329MOL    F7540091   8.285   4.382   3.355 -0.6862 -0.6786 -0.6817
  329MOL    F7640092   0.048   4.203   3.399 -0.2230  0.3069 -0.0309
  329MOL    C7740093   8.212   4.268   3.538 -0.4719 -0.5406 -0.2826
  329MOL    H7840094   8.166   4.345   3.600 -0.5127 -2.0571  1.6389
  329MOL    H7940095   8.246   4.194   3.612  0.1393 -0.7035 -0.7239
  329MOL    C8040096   8.111   4.189   3.453  0.0428  0.5783 -0.6505
  329MOL    F8140097   8.081   4.262   3.348 -0.6611 -0.0082  0.8874
  329MOL    F8240098   8.170   4.071   3.420 -0.1539  0.5154  0.6214
  329MOL    C8340099   7.982   4.171   3.536 -0.5785 -0.1480  0.1043
  329MOL    H8440100   7.952   4.275   3.554 -0.4054 -0.5732  3.1787
  329MOL    H8540101   7.998   4.118   3.630  3.0750  2.6446  1.1523
  329MOL    C8640102   7.858   4.095   3.476  0.3446 -0.4713  0.2319
  329MOL    F8740103   7.760   4.102   3.564  0.4801 -0.3825 -0.3812
  329MOL    F8840104   7.822   4.169   3.365 -0.3001 -0.3085 -0.3397
  329MOL    C8940105   7.892   3.950   3.423 -0.8479  0.4597  0.1351
  329MOL    H9040106   7.952   3.893   3.495  0.4073  0.9910 -0.4833
  329MOL    H9140107   7.966   3.969   3.346  0.0065  1.1771  1.1073
  329MOL    C9240108   7.779   3.870   3.358 -0.4341 -0.0547  0.5731
  329MOL    F9340109   7.697   3.955   3.302 -0.1473 -0.4865 -0.0901
  329MOL    F9440110   7.811   3.789   3.258 -0.5159  0.3493  0.1535
  329MOL    C9540111   7.697   3.786   3.463  0.6213  0.3804  0.2608
  329MOL    H9640112   7.657   3.849   3.543 -1.1483 -0.2280 -0.1179
  329MOL    H9740113   7.766   3.712   3.505 -1.5434 -2.1433 -0.4833
  329MOL    C9840114   7.583   3.701   3.398 -0.0520  0.2284 -0.0138
  329MOL    F9940115   7.635   3.629   3.298  0.1196  0.5567 -0.3417
  329MOL   F10040116   7.542   3.609   3.488 -0.2455  0.1130 -0.0020
  329MOL   C10140117   7.459   3.782   3.334 -0.2650 -0.1596 -0.1696
  329MOL   H10240118   7.405   3.722   3.262 -0.0367  0.1768 -0.6214
  329MOL   H10340119   7.505   3.855   3.268 -0.8287  0.2416 -0.1246
  329MOL   C10440120   7.364   3.861   3.433  0.6285 -0.3872 -0.6092
  329MOL   F10540121   7.427   3.927   3.534  0.5115 -0.2062 -0.0322
  329MOL   F10640122   7.304   3.956   3.367  0.0116 -0.3296  0.0260
  329MOL   C10740123   7.262   3.774   3.504 -0.8003  0.4814 -0.2485
  329MOL   H10840124   7.235   3.816   3.600 -1.0393  0.4278 -0.2942
  329MOL   H10940125   7.315   3.680   3.524 -2.0033  0.1919  1.6887
  329MOL   C11040126   7.123   3.738   3.447  0.5332 -0.5995  1.3096
  329MOL   F11140127   7.046   3.669   3.532 -0.1544 -0.5382 -0.3486
  329MOL   F11240128   7.070   3.861   3.435  0.2646 -0.6140  0.0099
  329MOL   C11340129   7.122   3.658   3.315 -0.8076  0.7650 -0.1357
  329MOL   H11440130   7.188   3.707   3.244  2.0826 -1.0572  1.1986
  329MOL   H11540131   7.023   3.671   3.270 -1.2313 -0.6526  0.3658
  329MOL   C11640132   7.154   3.507   3.326 -0.1963  0.0912 -0.5144
  329MOL   F11740133   7.275   3.505   3.389  0.4540  0.1703  0.1300
  329MOL   F11840134   7.062   3.447   3.407 -0.3300 -0.0279  0.3796
  329MOL   C11940135   7.164   3.433   3.197  0.2925 -0.0494  0.2050
  329MOL   H12040136   7.068   3.419   3.148  0.3969  0.1069 -0.0461
  329MOL   H12140137   7.186   3.331   3.229 -0.3361 -0.0853  0.5406
  329MOL   H12240138   7.242   3.469   3.129 -1.5292  0.7186 -1.5342
  330MOL     C140139   1.335   3.210   2.194  0.1643 -0.5342 -0.1704
  330MOL     F240140   1.259   3.297   2.261 -0.2050  0.4832 -0.3139
  330MOL     F340141   1.440   3.285   2.145  0.3232  0.1439 -0.2594
  330MOL     C440142   1.269   3.148   2.063 -0.2770  0.0670 -0.0425
  330MOL     H540143   1.339   3.096   1.998 -1.4976 -2.9272  0.9268
  330MOL     H640144   1.225   3.234   2.012 -1.8977 -0.1599  0.9143
  330MOL     H740145   1.370   3.130   2.260 -1.7929 -1.4231 -0.1926
  330MOL     C840146   1.165   3.045   2.107 -0.2014 -0.0474 -0.2983
  330MOL     F940147   1.226   2.939   2.154  0.2429  0.5100 -0.1397
  330MOL    F1040148   1.091   3.102   2.202 -0.1268 -0.2229  0.0893
  330MOL    C1140149   1.066   3.001   1.991 -0.0499 -0.2176 -0.1963
  330MOL    H1240150   1.111   2.945   1.909 -2.6672 -1.9879 -0.5188
  330MOL    H1340151   1.030   3.096   1.952  0.9377  0.5146  0.6436
  330MOL    C1440152   0.935   2.929   2.037 -0.5259  0.7840  1.2678
  330MOL    F1540153   0.857   3.017   2.101 -0.0633 -0.1127  0.3574
  330MOL    F1640154   0.871   2.897   1.924  0.1364  0.0073 -0.1277
  330MOL    C1740155   0.966   2.797   2.130 -1.0647 -0.1147 -0.2414
  330MOL    H1840156   1.010   2.842   2.219 -1.4878  0.1541 -0.1673
  330MOL    H1940157   1.048   2.747   2.078 -0.7205  0.3503 -0.1501
  330MOL    C2040158   0.854   2.707   2.183 -0.2143 -0.5526 -0.6924
  330MOL    F2140159   0.780   2.791   2.250  0.0591  0.1864 -0.0354
  330MOL    F2240160   0.782   2.664   2.082  0.8231  0.2390 -0.2379
  330MOL    C2340161   0.906   2.594   2.274 -0.4568 -0.4103  0.1952
  330MOL    H2440162   0.946   2.634   2.366 -0.4120  0.1358 -0.0629
  330MOL    H2540163   0.986   2.539   2.225 -1.6317 -1.3553 -0.7038
  330MOL    C2640164   0.798   2.495   2.316 -0.8207 -0.3725 -0.5313
  330MOL    F2740165   0.726   2.559   2.406  0.0662  0.4397  0.0271
  330MOL    F2840166   0.722   2.452   2.216 -0.1465  0.2714  0.4082
  330MOL    C2940167   0.857   2.367   2.380 -0.1660  0.0912  0.3151
  330MOL    H3040168   0.921   2.411   2.456 -0.4069  3.2086 -1.2037
  330MOL    H3140169   0.929   2.323   2.310 -2.5463 -0.6994 -1.7262
  330MOL    C3240170   0.755   2.270   2.442 -0.0466 -0.2154  0.2686
  330MOL    F3340171   0.818   2.165   2.496 -0.0462  0.0927  0.0272
  330MOL    F3440172   0.696   2.335   2.539  0.1205  0.4005  0.0758
  330MOL    C3540173   0.645   2.223   2.348 -0.1898 -0.3094 -0.0116
  330MOL    H3640174   0.586   2.307   2.311  1.3199  0.6812 -0.2261
  330MOL    H3740175   0.577   2.159   2.402 -0.1163 -0.4014 -0.0279
  330MOL    C3840176   0.677   2.139   2.219 -0.2171 -0.3315  0.6011
  330MOL    F3940177   0.741   2.211   2.125 -0.2749  0.0715  0.4796
  330MOL    F4040178   0.768   2.050   2.260 -0.4004  0.3166 -0.5833
  330MOL    C4140179   0.565   2.062   2.150  0.2109 -0.4409 -0.8618
  330MOL    H4240180   0.527   1.978   2.208 -0.3684  0.6388  0.3450
  330MOL    H4340181   0.609   2.018   2.061 -0.9777 -1.4089 -0.9866
  330MOL    C4440182   0.443   2.141   2.103  0.4093  0.5180 -0.5686
  330MOL    F4540183   0.366   2.047   2.028  0.1499  0.0751  0.2055
  330MOL    F4640184   0.364   2.182   2.213 -0.0099  0.3627  0.3300
  330MOL    C4740185   0.480   2.265   2.018 -0.5714 -0.4380  0.0921
  330MOL    H4840186   0.563   2.231   1.956 -1.6150 -0.6276 -1.2319
  330MOL    H4940187   0.516   2.341   2.088  0.0611 -1.1060  0.4998
  330MOL    C5040188   0.355   2.312   1.938 -0.6771 -0.2810  0.1618
  330MOL    F5140189   0.326   2.218   1.855  0.4208 -0.4727  0.0831
  330MOL    F5240190   0.259   2.335   2.025  0.2367  0.3074  0.4085
  330MOL    C5340191   0.388   2.439   1.854  0.1877 -0.2381  0.9994
  330MOL    H5440192   0.303   2.444   1.786  0.9478 -0.4979  0.0271
  330MOL    H5540193   0.477   2.419   1.795 -0.8451  0.4142 -0.8114
  330MOL    C5640194   0.402   2.576   1.927  0.3887 -0.0121  0.2233
  330MOL    F5740195   0.278   2.603   1.970 -0.1395  0.1396 -0.2174
  330MOL    F5840196   0.490   2.573   2.025 -0.0784 -0.1838 -0.8517
  330MOL    C5940197   0.443   2.690   1.833  0.8978  0.6275  0.5021
  330MOL    H6040198   0.373   2.681   1.750  0.2441 -1.0171  1.2130
  330MOL    H6140199   0.542   2.672   1.791  0.0932 -0.5195 -0.9217
  330MOL    C6240200   0.420   2.832   1.902  0.2375 -0.4285  0.3443
  330MOL    F6340201   0.431   2.922   1.804  0.4092 -0.0677 -0.0142
  330MOL    F6440202   0.296   2.848   1.949  0.0915  0.1303  0.1659
  330MOL    C6540203   0.523   2.869   2.017 -0.8129  0.5154  0.3723
  330MOL    H6640204   0.623   2.852   1.978 -0.5448  0.6492  1.0046
  330MOL    H6740205   0.527   2.795   2.096 -1.2177 -0.9605 -0.9626
  330MOL    C6840206   0.517   3.017   2.067 -0.0620 -0.1789 -0.5503
  330MOL    F6940207   0.397   3.046   2.112  0.4462  0.0380  0.2060
  330MOL    F7040208   0.607   3.014   2.163  0.2054  0.2567 -0.1055
  330MOL    C7140209   0.547   3.135   1.967  0.6356  0.2930 -0.5642
  330MOL    H7240210   0.463   3.139   1.897 -1.0790  1.4226  1.5099
  330MOL    H7340211   0.639   3.111   1.913  0.2265  0.9710 -1.5787
  330MOL    C7440212   0.550   3.283   2.016  0.1286  0.6187  0.0040
  330MOL    F7540213   0.420   3.329   2.024  0.1687 -0.2925  0.8004
  330MOL    F7640214   0.605   3.291   2.132 -0.3788  0.5387  0.6040
  330MOL    C7740215   0.619   3.367   1.913 -0.2557  0.2637  0.1844
  330MOL    H7840216   0.581   3.345   1.813 -2.0677 -0.7806  1.0662
  330MOL    H7940217   0.727   3.353   1.921 -0.6433 -2.3758  1.5762
  330MOL    C8040218   0.608   3.521   1.931 -0.4054  0.1817 -0.4008
  330MOL    F8140219   0.483   3.558   1.895 -0.7874 -0.5699 -0.1904
  330MOL    F8240220   0.632   3.546   2.056  0.3001 -0.4503 -0.3288
  330MOL    C8340221   0.708   3.592   1.852 -1.0323  0.7484  0.5127
  330MOL    H8440222   0.723   3.545   1.754  1.9039  0.6855  0.9523
  330MOL    H8540223   0.801   3.591   1.909 -1.4453 -1.4287  1.2057
  330MOL    C8640224   0.677   3.736   1.813  0.9358  0.3670 -0.2422
  330MOL    F8740225   0.789   3.769   1.752 -0.3349  0.3548 -0.2050
  330MOL    F8840226   0.584   3.735   1.717 -0.1923  0.3994 -0.3843
  330MOL    C8940227   0.647   3.836   1.921  0.1666  0.0629  0.0603
  330MOL    H9040228   0.720   3.803   1.994  1.7222 -0.2080 -1.5765
  330MOL    H9140229   0.549   3.805   1.958 -0.9036  2.4287 -0.6577
  330MOL    C9240230   0.652   3.986   1.897  0.4285 -0.0436  0.7643
  330MOL    F9340231   0.574   4.015   1.795  0.1155 -0.0819  0.0124
  330MOL    F9440232   0.587   4.041   1.996 -0.1407 -0.2751  0.3124
  330MOL    C9540233   0.781   4.063   1.875  0.6112 -0.1708 -0.1901
  330MOL    H9640234   0.754   4.168   1.881  0.7309 -0.1463 -0.0972
  330MOL    H9740235   0.824   4.050   1.776 -0.8911  0.4144 -0.9415
  330MOL    C9840236   0.883   4.047   1.980  0.0755  1.0381 -0.0777
  330MOL    F9940237   0.827   4.081   2.095 -0.3833  0.0178 -0.5312
  330MOL   F10040238   0.915   3.920   1.977 -0.2956  0.5618  0.3377
  330MOL   C10140239   1.013   4.132   1.951  0.1846 -0.7441  0.3073
  330MOL   H10240240   0.970   4.230   1.969  1.7742  0.1840 -0.8379
  330MOL   H10340241   1.039   4.108   1.848 -0.9035 -0.4650 -0.0415
  330MOL   C10440242   1.133   4.097   2.047  0.7750 -0.1655  0.1852
  330MOL   F10540243   1.094   4.138   2.168 -0.3119  0.1587 -0.0057
  330MOL   F10640244   1.153   3.969   2.052  0.3941  0.4411 -0.9837
  330MOL   C10740245   1.266   4.174   2.009  0.8519 -0.0618  1.1306
  330MOL   H10840246   1.332   4.135   2.085  0.6973 -1.7486  0.4180
  330MOL   H10940247   1.248   4.281   2.025  2.5476  0.1621  1.5991
  330MOL   C11040248   1.331   4.133   1.877  0.3227  0.2629  0.3340
  330MOL   F11140249   1.319   4.007   1.849  0.0483  0.3156 -0.1886
  330MOL   F11240250   1.265   4.205   1.787  0.4446  0.4281 -0.3328
  330MOL   C11340251   1.478   4.169   1.872  0.2143 -0.1012 -0.1335
  330MOL   H11440252   1.542   4.105   1.932 -1.3096  1.4708  3.2937
  330MOL   H11540253   1.496   4.260   1.929  1.6158 -0.7356  0.4481
  330MOL   C11640254   1.533   4.160   1.726  0.9487 -0.3194 -0.3444
  330MOL   F11740255   1.490   4.276   1.669  0.2679 -0.1061 -0.4335
  330MOL   F11840256   1.667   4.157   1.726 -0.1382 -0.4703  0.1904
  330MOL   C11940257   1.500   4.041   1.637  0.0380 -0.6016 -0.3567
  330MOL   H12040258   1.401   4.040   1.593  0.7064 -0.7787 -1.8673
  330MOL   H12140259   1.513   3.941   1.679  0.8648 -0.8522 -1.2089
  330MOL   H12240260   1.567   4.051   1.552  3.2629 -0.3440  2.1268
  331MOL     C140261   5.461   7.995   4.154  0.2105 -1.0994 -0.6913
  331MOL     F240262   5.391   8.001   4.267 -0.3361 -0.0892 -0.0417
  331MOL     F340263   5.440   8.108   4.087 -0.1826  0.1301 -0.3120
  331MOL     C440264   5.410   7.881   4.070 -0.0972  0.5470  0.0498
  331MOL     H540265   5.451   7.884   3.969 -1.5593  0.7345 -0.5593
  331MOL     H640266   5.301   7.885   4.062 -0.2419 -3.0357 -0.3853
  331MOL     H740267   5.569   7.988   4.172  0.4927  1.1664 -1.3787
  331MOL     C840268   5.462   7.743   4.124 -0.0948 -0.3070 -0.5909
  331MOL     F940269   5.597   7.746   4.113 -0.1475  0.0438 -0.1747
  331MOL    F1040270   5.431   7.722   4.250 -0.2003 -0.4667  0.0486
  331MOL    C1140271   5.422   7.618   4.045  0.6016  0.2235 -0.6428
  331MOL    H1240272   5.442   7.641   3.941  1.9030 -0.2724 -0.5007
  331MOL    H1340273   5.315   7.607   4.064  1.0045  0.5833  1.9940
  331MOL    C1440274   5.496   7.487   4.078  0.3719 -0.6755 -0.3551
  331MOL    F1540275   5.439   7.403   3.991 -0.1570 -0.9501 -0.2520
  331MOL    F1640276   5.632   7.503   4.048  0.8113 -0.4272 -0.3575
  331MOL    C1740277   5.481   7.422   4.217  0.0716  0.0082  0.8991
  331MOL    H1840278   5.378   7.409   4.252 -0.1235  1.7359  1.0002
  331MOL    H1940279   5.517   7.505   4.277 -1.3322  1.2047  0.1396
  331MOL    C2040280   5.564   7.306   4.255  0.1045  0.0463 -0.1845
  331MOL    F2140281   5.695   7.349   4.239 -0.2121 -0.2091  0.4696
  331MOL    F2240282   5.551   7.268   4.380  0.6590 -0.5090  0.3783
  331MOL    C2340283   5.545   7.186   4.164 -0.0378 -0.1876 -0.8844
  331MOL    H2440284   5.548   7.204   4.056  2.5541  2.1040 -0.4942
  331MOL    H2540285   5.453   7.136   4.195 -0.4543  2.0129  1.5619
  331MOL    C2640286   5.666   7.085   4.176 -0.2928  0.5244  0.3892
  331MOL    F2740287   5.775   7.136   4.105  0.4563 -0.3118 -0.6218
  331MOL    F2840288   5.696   7.057   4.305 -0.2444  0.1123 -0.0372
  331MOL    C2940289   5.640   6.943   4.111 -0.3279 -0.2591 -0.2049
  331MOL    H3040290   5.585   6.879   4.181  0.1309 -1.5833 -1.0319
  331MOL    H3140291   5.738   6.896   4.101  0.1469  0.4542  0.9775
  331MOL    C3240292   5.568   6.947   3.977 -0.6939 -0.1839  0.3528
  331MOL    F3340293   5.442   6.974   3.997 -0.3182  0.2030  0.3658
  331MOL    F3440294   5.618   7.049   3.900  0.3853  0.3135 -0.1053
  331MOL    C3540295   5.576   6.815   3.900 -0.1994 -0.1773  0.7881
  331MOL    H3640296   5.681   6.787   3.889  0.1790  1.0994  1.0660
  331MOL    H3740297   5.533   6.823   3.800  0.9680 -0.0157  0.2906
  331MOL    C3840298   5.516   6.691   3.964  0.9170 -0.6977  0.2019
  331MOL    F3940299   5.582   6.670   4.078  0.2803 -0.3419  0.4856
  331MOL    F4040300   5.390   6.706   4.003 -0.0111  0.0424  0.1675
  331MOL    C4140301   5.519   6.563   3.882 -0.2126 -0.7358  0.7940
  331MOL    H4240302   5.456   6.491   3.934 -0.5785  0.2250  1.7016
  331MOL    H4340303   5.625   6.541   3.880  0.2079  1.2793 -0.3722
  331MOL    C4440304   5.459   6.575   3.735  0.3862 -0.3362 -0.4512
  331MOL    F4540305   5.343   6.643   3.733 -0.0817 -0.4159  0.0259
  331MOL    F4640306   5.541   6.646   3.663  0.4877 -0.9332 -0.3595
  331MOL    C4740307   5.438   6.443   3.662  0.0607 -0.1826 -0.3322
  331MOL    H4840308   5.360   6.393   3.721  0.0665 -0.7925 -0.8402
  331MOL    H4940309   5.523   6.375   3.674 -0.2061 -0.7047 -1.3588
  331MOL    C5040310   5.384   6.443   3.523  0.0171  0.0415  0.0182
  331MOL    F5140311   5.376   6.315   3.490 -0.3529 -0.4907  0.7840
  331MOL    F5240312   5.265   6.490   3.519 -0.6092 -0.4486 -0.6668
  331MOL    C5340313   5.470   6.511   3.412  0.1189  0.0880 -0.7335
  331MOL    H5440314   5.568   6.464   3.423 -0.5207 -0.8601  1.1395
  331MOL    H5540315   5.476   6.616   3.440 -0.4195 -0.3360  1.0444
  331MOL    C5640316   5.420   6.492   3.265 -0.5898  0.0437 -0.0477
  331MOL    F5740317   5.306   6.559   3.262  0.2459 -0.0062 -0.5606
  331MOL    F5840318   5.506   6.567   3.197  0.4293 -0.0010  0.3030
  331MOL    C5940319   5.397   6.360   3.200 -0.2259  0.0565  0.2599
  331MOL    H6040320   5.356   6.381   3.101 -0.7079 -1.1141  0.2051
  331MOL    H6140321   5.310   6.310   3.243 -0.2719  1.5039  1.8755
  331MOL    C6240322   5.528   6.268   3.192 -0.1017  0.3883  0.0931
  331MOL    F6340323   5.635   6.329   3.145  0.0798 -0.2167  0.1317
  331MOL    F6440324   5.550   6.231   3.315  0.3451 -0.4301 -0.1689
  331MOL    C6540325   5.491   6.140   3.105  0.2849  0.3900 -0.0867
  331MOL    H6640326   5.492   6.165   2.999 -0.4966 -0.1602 -0.2301
  331MOL    H6740327   5.395   6.095   3.133 -0.2879 -0.3789 -3.1610
  331MOL    C6840328   5.586   6.018   3.114 -0.2670 -0.2128 -0.3152
  331MOL    F6940329   5.563   5.936   3.013 -0.0219  0.3463 -0.2665
  331MOL    F7040330   5.710   6.059   3.091  0.0400 -0.1332  0.6537
  331MOL    C7140331   5.576   5.938   3.249  0.1498 -0.0227 -0.4384
  331MOL    H7240332   5.606   6.003   3.332 -4.0914 -0.5058  1.6294
  331MOL    H7340333   5.657   5.867   3.238  0.0189 -0.4574  1.2100
  331MOL    C7440334   5.436   5.873   3.280  0.3909  0.1391  0.1120
  331MOL    F7540335   5.349   5.963   3.324  0.1906 -1.3049 -0.3869
  331MOL    F7640336   5.374   5.797   3.189 -0.4139 -0.2963  0.3412
  331MOL    C7740337   5.462   5.772   3.397  0.1796  0.6203 -0.0341
  331MOL    H7840338   5.496   5.831   3.482 -1.7476 -0.0440  1.2416
  331MOL    H7940339   5.547   5.705   3.387 -1.5721 -1.5182 -0.9630
  331MOL    C8040340   5.336   5.686   3.440  0.4964 -0.5887  0.2249
  331MOL    F8140341   5.239   5.772   3.463 -0.0031 -0.3255  0.2615
  331MOL    F8240342   5.296   5.612   3.342  0.1560  0.0775  0.0248
  331MOL    C8340343   5.358   5.600   3.564 -0.3250 -0.7259  0.9592
  331MOL    H8440344   5.264   5.557   3.599  0.8846 -3.0382  1.5070
  331MOL    H8540345   5.401   5.661   3.643  1.8429 -2.2104  0.9479
  331MOL    C8640346   5.450   5.476   3.542  0.1795 -0.1438 -0.7538
  331MOL    F8740347   5.420   5.418   3.429  0.3376  0.1118 -0.5457
  331MOL    F8840348   5.577   5.521   3.528  0.1636  0.0170 -0.1285
  331MOL    C8940349   5.444   5.381   3.660  0.2654  0.6532 -0.1097
  331MOL    H9040350   5.341   5.346   3.657  0.2352  0.4820  1.9874
  331MOL    H9140351   5.448   5.431   3.757 -1.9049 -2.0868  1.4343
  331MOL    C9240352   5.556   5.270   3.662 -0.0096 -0.1881 -0.2974
  331MOL    F9340353   5.671   5.323   3.713  0.0134 -0.2131 -0.2349
  331MOL    F9440354   5.516   5.179   3.748  0.0004  0.5646 -0.0425
  331MOL    C9540355   5.588   5.198   3.532 -0.3871  0.4502 -0.0022
  331MOL    H9640356   5.644   5.269   3.471  2.0367 -2.0730 -0.8280
  331MOL    H9740357   5.490   5.181   3.489 -1.5214  0.7882  2.3666
  331MOL    C9840358   5.674   5.067   3.521  0.5596 -0.0224 -0.7407
  331MOL    F9940359   5.773   5.083   3.605 -0.3399 -0.0170  0.2554
  331MOL   F10040360   5.610   4.953   3.554 -0.1965  0.0181  0.4849
  331MOL   C10140361   5.750   5.046   3.390 -0.2354 -0.4914  0.2989
  331MOL   H10240362   5.815   4.959   3.394 -2.3661 -2.0596  1.9583
  331MOL   H10340363   5.820   5.127   3.369 -0.7884 -0.6622 -2.3703
  331MOL   C10440364   5.669   5.014   3.261  0.0908 -0.2330 -0.9275
  331MOL   F10540365   5.612   4.893   3.275  0.1699 -0.3993 -0.3918
  331MOL   F10640366   5.581   5.110   3.236 -0.2721  0.1281  0.1664
  331MOL   C10740367   5.766   5.009   3.143  0.4109  0.0824  0.6002
  331MOL   H10840368   5.852   4.944   3.162  1.5836  0.8784 -1.7557
  331MOL   H10940369   5.805   5.110   3.130  1.2261 -0.1877  0.8869
  331MOL   C11040370   5.705   4.969   3.008 -0.0949  0.3063  0.3335
  331MOL   F11140371   5.649   4.847   3.019  0.0306 -0.4852  0.1490
  331MOL   F11240372   5.607   5.055   2.969 -0.2829 -0.1182 -0.0761
  331MOL   C11340373   5.809   4.953   2.901 -0.5403  0.0694 -0.1048
  331MOL   H11440374   5.757   4.911   2.815 -1.1672 -0.0638  0.3315
  331MOL   H11540375   5.880   4.882   2.944  0.2781  1.2232  0.4848
  331MOL   C11640376   5.896   5.083   2.858  0.1337 -0.1325 -0.1105
  331MOL   F11740377   5.969   5.119   2.958  0.0411 -0.1508 -0.7516
  331MOL   F11840378   5.979   5.048   2.758  0.6005 -0.6603  0.0860
  331MOL   C11940379   5.805   5.192   2.807 -0.1289 -0.2878 -0.4878
  331MOL   H12040380   5.735   5.147   2.737  0.5390  1.0160 -2.0367
  331MOL   H12140381   5.857   5.277   2.761  0.2056 -0.5673 -0.6279
  331MOL   H12240382   5.748   5.237   2.888  0.5583  2.3628 -1.4097
  332MOL     C140383   0.233   6.560   5.766 -0.0117 -0.2949  0.1866
  332MOL     F240384   0.141   6.485   5.707 -0.6006 -0.2941 -0.1799
  332MOL     F340385   0.264   6.670   5.694  0.4903  0.1567  0.6144
  332MOL     C440386   0.365   6.490   5.789  0.8161 -0.8828  0.8445
  332MOL     H540387   0.401   6.452   5.694 -1.0939 -0.9227  0.1059
  332MOL     H640388   0.355   6.401   5.851  2.2644 -2.3494 -0.9891
  332MOL     H740389   0.169   6.595   5.847  0.5746 -0.4181  0.7141
  332MOL     C840390   0.461   6.575   5.870  0.1701  0.1203 -0.2926
  332MOL     F940391   0.496   6.680   5.797  0.5475  0.1526  0.0454
  332MOL    F1040392   0.395   6.625   5.972 -0.2860  0.3130  0.2866
  332MOL    C1140393   0.593   6.501   5.914 -0.3428 -0.4292  0.5502
  332MOL    H1240394   0.614   6.442   5.825 -1.2421 -2.5872  1.7281
  332MOL    H1340395   0.563   6.421   5.982 -0.9720 -1.2221 -0.6548
  332MOL    C1440396   0.716   6.573   5.982  0.8593 -1.1146  0.2522
  332MOL    F1540397   0.679   6.616   6.102 -0.4594 -0.1306 -0.0925
  332MOL    F1640398   0.804   6.471   6.010  0.3023 -0.0789  0.1632
  332MOL    C1740399   0.794   6.684   5.905 -0.2645  0.3966  0.2854
  332MOL    H1840400   0.875   6.718   5.969 -1.8207  1.8542  1.5222
  332MOL    H1940401   0.721   6.762   5.880 -1.4664 -0.2886  1.6033
  332MOL    C2040402   0.866   6.649   5.774 -0.3902  0.1587  0.5793
  332MOL    F2140403   0.789   6.573   5.698 -0.4247 -0.6766  0.5628
  332MOL    F2240404   0.886   6.764   5.712  0.6626 -0.1394  0.2272
  332MOL    C2340405   1.008   6.589   5.806 -0.3021  0.2025 -0.4641
  332MOL    H2440406   0.996   6.501   5.870  1.3086 -1.0982 -1.8937
  332MOL    H2540407   1.067   6.661   5.862 -1.8399  0.1722  1.2609
  332MOL    C2640408   1.101   6.548   5.683 -0.5721 -0.1031  0.0522
  332MOL    F2740409   1.130   6.660   5.609  0.0791  0.2068  0.0932
  332MOL    F2840410   1.214   6.510   5.736 -0.4180 -0.5827 -0.1693
  332MOL    C2940411   1.059   6.438   5.580 -0.4226 -0.6106 -0.4520
  332MOL    H3040412   1.142   6.424   5.510 -0.1378 -1.7226  0.0985
  332MOL    H3140413   0.973   6.488   5.536 -1.4992  1.1977  3.4612
  332MOL    C3240414   1.030   6.305   5.635  0.3161  0.4379 -0.2083
  332MOL    F3340415   1.144   6.268   5.697 -0.3820  0.5352 -0.5498
  332MOL    F3440416   0.941   6.324   5.729  0.3304  0.4953  0.0300
  332MOL    C3540417   0.980   6.211   5.516 -0.7658  0.4548 -0.3371
  332MOL    H3640418   1.047   6.226   5.432  0.6675 -2.7678  0.1904
  332MOL    H3740419   0.883   6.243   5.476 -0.7195  2.8124  1.3067
  332MOL    C3840420   0.981   6.057   5.556  0.0411  0.2178  0.1794
  332MOL    F3940421   0.923   5.977   5.464  0.6379 -0.2126 -0.2410
  332MOL    F4040422   1.111   6.028   5.569 -0.3168 -0.0701 -0.2556
  332MOL    C4140423   0.914   6.027   5.695 -0.1755 -0.1554  0.1657
  332MOL    H4240424   0.963   6.083   5.775 -0.1632 -0.9031  0.6857
  332MOL    H4340425   0.924   5.923   5.725  0.3602 -0.0577  0.3337
  332MOL    C4440426   0.762   6.061   5.699 -0.1641  0.0636 -0.1341
  332MOL    F4540427   0.734   6.185   5.660  0.3327  0.2206  0.5142
  332MOL    F4640428   0.697   5.972   5.621 -0.3748  0.3175  0.3895
  332MOL    C4740429   0.718   6.044   5.845 -0.4639 -0.0597  0.8988
  332MOL    H4840430   0.768   6.111   5.914 -0.3699  0.9205 -0.1163
  332MOL    H4940431   0.764   5.950   5.877 -1.6358 -0.9188  0.1180
  332MOL    C5040432   0.563   6.054   5.879  0.6130  0.2235 -0.0827
  332MOL    F5140433   0.525   6.175   5.833 -0.1326 -0.3704 -0.1847
  332MOL    F5240434   0.491   5.963   5.808  0.3257 -0.2078  0.3417
  332MOL    C5340435   0.522   6.043   6.026  0.5840 -0.4858  0.0559
  332MOL    H5440436   0.416   6.067   6.026  0.7425  0.2420 -0.6844
  332MOL    H5540437   0.574   6.122   6.081  0.5604 -0.8420  0.5897
  332MOL    C5640438   0.555   5.911   6.096 -0.5403  0.1909  0.3744
  332MOL    F5740439   0.681   5.881   6.088 -0.6491 -0.3673  0.5668
  332MOL    F5840440   0.532   5.940   6.219  0.1781 -0.0164  0.2013
  332MOL    C5940441   0.463   5.800   6.049 -0.4646  0.0071 -0.3698
  332MOL    H6040442   0.475   5.773   5.945 -2.3208  0.3748 -0.6927
  332MOL    H6140443   0.356   5.818   6.050 -0.6942 -1.3741  0.5053
  332MOL    C6240444   0.477   5.675   6.137 -0.1805 -0.0049 -0.0475
  332MOL    F6340445   0.418   5.717   6.248 -0.0611 -0.0017 -0.1445
  332MOL    F6440446   0.402   5.587   6.066 -0.4126  0.4003 -0.2285
  332MOL    C6540447   0.617   5.618   6.177  0.8705 -0.2251 -0.1082
  332MOL    H6640448   0.595   5.555   6.263 -0.1903 -1.1463 -1.0233
  332MOL    H6740449   0.666   5.706   6.219 -1.5300  1.1817 -0.1170
  332MOL    C6840450   0.701   5.545   6.053 -0.5676  0.4723 -0.4887
  332MOL    F6940451   0.620   5.460   5.994 -0.0971  0.5390 -0.3867
  332MOL    F7040452   0.737   5.644   5.968  0.7369  0.0473  0.0983
  332MOL    C7140453   0.834   5.473   6.101  0.5847  0.3845 -0.2377
  332MOL    H7240454   0.883   5.443   6.008 -0.9654 -1.4078 -0.4900
  332MOL    H7340455   0.801   5.381   6.150  1.2564 -0.0228 -0.5439
  332MOL    C7440456   0.920   5.561   6.198 -0.7309  0.8455 -0.3061
  332MOL    F7540457   0.947   5.681   6.142  0.2033  0.4180  0.0601
  332MOL    F7640458   0.846   5.577   6.307  0.5066  0.0613 -0.2128
  332MOL    C7740459   1.048   5.481   6.243  0.0628  0.2542 -0.2626
  332MOL    H7840460   1.104   5.464   6.151  0.9686  1.0843  0.1271
  332MOL    H7940461   1.012   5.385   6.278 -0.2388 -0.3830 -2.2574
  332MOL    C8040462   1.130   5.542   6.362  0.1232  0.1666 -0.0868
  332MOL    F8140463   1.048   5.534   6.473 -0.1343 -0.9767 -0.0598
  332MOL    F8240464   1.239   5.461   6.386  0.3434  0.4139  0.3430
  332MOL    C8340465   1.166   5.695   6.355 -0.1214  0.8647 -0.2488
  332MOL    H8440466   1.075   5.749   6.328 -1.0639 -1.0666 -1.0052
  332MOL    H8540467   1.240   5.704   6.275 -0.8920  3.0285 -0.7797
  332MOL    C8640468   1.230   5.752   6.485  0.6514  0.0376  0.0133
  332MOL    F8740469   1.139   5.752   6.590 -0.3186  0.1578  0.3066
  332MOL    F8840470   1.334   5.675   6.517 -0.8456 -0.3714  0.4246
  332MOL    C8940471   1.282   5.890   6.451 -0.8073  0.0515 -0.1054
  332MOL    H9040472   1.204   5.950   6.404 -1.5959  2.2573  3.8108
  332MOL    H9140473   1.362   5.879   6.378 -0.3759  0.9977  0.2233
  332MOL    C9240474   1.329   5.969   6.568  0.5483 -0.2056  0.7787
  332MOL    F9340475   1.236   5.986   6.654  0.0475  0.0817  0.5771
  332MOL    F9440476   1.428   5.909   6.627  0.0556  0.2490  0.2099
  332MOL    C9540477   1.379   6.108   6.525  0.4017  0.7998 -0.3297
  332MOL    H9640478   1.304   6.145   6.456  1.0277  1.1936 -0.8044
  332MOL    H9740479   1.472   6.090   6.471  0.0773 -0.5925 -0.4426
  332MOL    C9840480   1.396   6.215   6.635 -0.4809  0.1602  0.3830
  332MOL    F9940481   1.433   6.324   6.569 -0.4399 -0.1241 -0.4927
  332MOL   F10040482   1.288   6.240   6.700  0.2896  0.0226  0.0841
  332MOL   C10140483   1.508   6.177   6.740  0.0244  0.5308 -0.5967
  332MOL   H10240484   1.595   6.152   6.679  2.1091  2.1303  1.6242
  332MOL   H10340485   1.487   6.085   6.794  1.1019 -0.1028 -1.2422
  332MOL   C10440486   1.554   6.283   6.845  0.0140  0.3223 -0.0578
  332MOL   F10540487   1.450   6.324   6.920  0.3788 -0.4314  0.1207
  332MOL   F10640488   1.638   6.207   6.918  0.9501 -0.0889  0.4219
  332MOL   C10740489   1.635   6.399   6.795 -0.0739  0.4252  0.7102
  332MOL   H10840490   1.572   6.465   6.735 -0.0170  0.8797  1.1481
  332MOL   H10940491   1.716   6.351   6.739 -1.7230  0.0015 -1.4167
  332MOL   C11040492   1.696   6.490   6.906  0.3154  0.6163  0.8690
  332MOL   F11140493   1.593   6.545   6.980 -0.5915  0.3342  0.3125
  332MOL   F11240494   1.774   6.420   6.977 -0.2515  0.1317  0.2629
  332MOL   C11340495   1.776   6.596   6.834  0.6293 -0.1188  0.6864
  332MOL   H11440496   1.710   6.643   6.761  0.4565 -0.2464  0.7611
  332MOL   H11540497   1.861   6.557   6.777 -0.2694 -1.4849  0.2647
  332MOL   C11640498   1.830   6.709   6.924 -0.0784  0.5969 -0.2019
  332MOL   F11740499   1.725   6.786   6.942 -0.3512 -0.3896 -0.3378
  332MOL   F11840500   1.873   6.658   7.039 -0.4018 -0.4316  0.0314
  332MOL   C11940501   1.935   6.799   6.864  0.1740 -0.4929 -0.7837
  332MOL   H12040502   1.951   6.888   6.926 -1.0125  0.4207 -1.7389
  332MOL   H12140503   1.892   6.851   6.778 -0.2739  1.5861  0.6506
  332MOL   H12240504   2.024   6.744   6.835  1.1950  0.8089 -0.1367
  333MOL     C140505   4.059   3.246   2.011 -0.0735  0.8082  1.1104
  333MOL     F240506   4.071   3.339   2.104 -0.5044 -0.5031  0.0810
  333MOL     F340507   4.162   3.257   1.919  0.0474  0.2459 -0.0945
  333MOL     C440508   3.921   3.275   1.963  0.3523 -0.2657 -0.1029
  333MOL     H540509   3.917   3.373   1.914  0.3298  0.0532  0.5371
  333MOL     H640510   3.861   3.298   2.051  0.6796  1.4559 -0.3048
  333MOL     H740511   4.073   3.147   2.055 -1.2864  0.1769  0.1111
  333MOL     C840512   3.859   3.166   1.876 -0.0904  0.2710 -0.7008
  333MOL     F940513   3.868   3.054   1.952  0.0680  0.2910 -0.1159
  333MOL    F1040514   3.728   3.204   1.842 -0.2908  0.1928  0.1831
  333MOL    C1140515   3.939   3.146   1.741  0.5577  0.2690 -0.3027
  333MOL    H1240516   4.047   3.153   1.757  0.3599 -2.4536  2.7779
  333MOL    H1340517   3.918   3.230   1.675  2.3827 -0.7645 -2.2545
  333MOL    C1440518   3.901   3.016   1.673  0.0470 -0.5253  0.4012
  333MOL    F1540519   3.959   3.018   1.551 -0.2844 -0.4891  0.6781
  333MOL    F1640520   3.960   2.909   1.733  0.3953 -0.3728 -0.3237
  333MOL    C1740521   3.749   2.996   1.640 -0.7375  0.3321 -0.1921
  333MOL    H1840522   3.716   3.075   1.572  1.4224  0.0969 -1.5678
  333MOL    H1940523   3.696   3.000   1.735  0.6094 -0.3090  0.5937
  333MOL    C2040524   3.717   2.876   1.556 -0.4921 -0.3068  1.0660
  333MOL    F2140525   3.758   2.895   1.432  0.0645  0.5659  0.0284
  333MOL    F2240526   3.789   2.773   1.603  0.3512 -0.2323  0.2913
  333MOL    C2340527   3.569   2.826   1.562  0.0847  0.6051  0.0625
  333MOL    H2440528   3.503   2.912   1.561  0.5089  0.9683  1.4680
  333MOL    H2540529   3.545   2.762   1.647 -0.8560 -0.3218 -0.8882
  333MOL    C2640530   3.519   2.745   1.439  0.1506  0.3827  0.5489
  333MOL    F2740531   3.381   2.742   1.438 -0.3299  0.1828 -0.0864
  333MOL    F2840532   3.553   2.810   1.328  0.0503  0.1488 -0.1124
  333MOL    C2940533   3.566   2.597   1.438  0.5640  0.1677 -0.6365
  333MOL    H3040534   3.517   2.541   1.517  1.4656 -0.6855 -0.6734
  333MOL    H3140535   3.674   2.584   1.450  0.8098  3.4396  1.1807
  333MOL    C3240536   3.528   2.521   1.303 -0.0059 -0.7404 -0.6798
  333MOL    F3340537   3.397   2.496   1.301 -0.1256 -0.1629  0.5717
  333MOL    F3440538   3.562   2.585   1.193 -0.3275 -0.5653  0.1888
  333MOL    C3540539   3.596   2.384   1.296  0.8778  0.2491 -0.7489
  333MOL    H3640540   3.702   2.404   1.279  0.5022  2.1496 -0.9098
  333MOL    H3740541   3.556   2.327   1.213 -3.9196 -0.6103  1.9677
  333MOL    C3840542   3.588   2.290   1.420 -0.5665 -0.1304  0.0481
  333MOL    F3940543   3.646   2.344   1.532 -0.3876 -0.1315  0.1450
  333MOL    F4040544   3.455   2.260   1.440 -0.4560 -0.3115 -0.2315
  333MOL    C4140545   3.666   2.161   1.383  0.6094  0.0179  0.5649
  333MOL    H4240546   3.761   2.194   1.342  1.2780 -1.0114  1.2693
  333MOL    H4340547   3.630   2.112   1.293 -1.4787 -1.3535  2.0728
  333MOL    C4440548   3.684   2.047   1.488  0.4280 -0.2598  0.0500
  333MOL    F4540549   3.768   1.963   1.417  0.5700 -0.2748 -0.4507
  333MOL    F4640550   3.739   2.099   1.595 -0.1944 -0.6755  0.3765
  333MOL    C4740551   3.559   1.965   1.527 -0.4133  0.0518 -0.2698
  333MOL    H4840552   3.493   2.023   1.591 -0.2810  0.1577 -0.2270
  333MOL    H4940553   3.600   1.883   1.587 -0.8595  0.8871  1.2022
  333MOL    C5040554   3.477   1.916   1.405  0.4837 -0.2025 -0.3790
  333MOL    F5140555   3.415   2.015   1.337 -0.0339 -0.4636  0.1547
  333MOL    F5240556   3.551   1.847   1.312  0.7453  0.0314  0.4030
  333MOL    C5340557   3.358   1.831   1.451  0.4244 -0.3592  0.9546
  333MOL    H5440558   3.294   1.824   1.363 -0.0343  0.9634  1.1640
  333MOL    H5540559   3.301   1.891   1.523 -0.3850 -1.1762  0.9965
  333MOL    C5640560   3.379   1.702   1.518  0.2758  0.0518 -0.4342
  333MOL    F5740561   3.461   1.630   1.434 -0.2104  0.0890 -0.0615
  333MOL    F5840562   3.430   1.709   1.646 -0.2893 -0.4487 -0.0924
  333MOL    C5940563   3.254   1.612   1.523 -0.0645  0.4368  1.1260
  333MOL    H6040564   3.285   1.525   1.581  1.9166 -0.2979 -0.9405
  333MOL    H6140565   3.233   1.582   1.420  1.7473  0.8370  0.6321
  333MOL    C6240566   3.122   1.665   1.584  0.6030 -0.5492 -0.2800
  333MOL    F6340567   3.131   1.679   1.718 -0.3801  0.3127 -0.5618
  333MOL    F6440568   3.079   1.785   1.529 -0.6511 -0.3081  0.1101
  333MOL    C6540569   3.006   1.572   1.551 -1.5224  0.3327 -0.4084
  333MOL    H6640570   2.979   1.595   1.448  0.1645  2.8374 -0.3402
  333MOL    H6740571   2.919   1.604   1.609 -1.1915  0.3305  0.0889
  333MOL    C6840572   3.025   1.421   1.564  0.6497 -0.1335  0.5230
  333MOL    F6940573   3.108   1.367   1.472 -0.3343 -0.2334  0.6302
  333MOL    F7040574   3.072   1.382   1.680 -0.0671  0.1663  0.2863
  333MOL    C7140575   2.891   1.337   1.557 -0.1996 -0.0160  0.3276
  333MOL    H7240576   2.827   1.375   1.636 -2.8466 -2.6839 -0.4142
  333MOL    H7340577   2.917   1.236   1.591 -0.3188  0.7253  2.6839
  333MOL    C7440578   2.809   1.337   1.433 -0.1330 -0.0035  0.1604
  333MOL    F7540579   2.691   1.291   1.465  0.2259 -0.4521  0.0772
  333MOL    F7640580   2.801   1.463   1.390  0.0009  0.1703  0.3134
  333MOL    C7740581   2.882   1.261   1.323 -0.2374 -0.6395  0.3939
  333MOL    H7840582   2.930   1.173   1.365 -0.7583 -1.5860 -0.9831
  333MOL    H7940583   2.965   1.320   1.284  0.3272 -2.5499 -1.3774
  333MOL    C8040584   2.793   1.218   1.198 -0.3305  0.4280 -0.2190
  333MOL    F8140585   2.677   1.158   1.228 -0.1358 -0.1062  0.4535
  333MOL    F8240586   2.781   1.329   1.125  0.1090 -0.3651  0.0841
  333MOL    C8340587   2.866   1.122   1.102 -0.2244 -0.0080 -0.3399
  333MOL    H8440588   2.883   1.028   1.154  1.3710 -1.1899 -2.9294
  333MOL    H8540589   2.963   1.155   1.067  0.1782 -1.3033 -0.4486
  333MOL    C8640590   2.801   1.068   0.975  0.0166  0.3345 -0.1762
  333MOL    F8740591   2.898   1.006   0.911  0.3394  0.0960  0.8523
  333MOL    F8840592   2.709   0.987   1.017 -0.1502 -0.5738  0.1143
  333MOL    C8940593   2.740   1.174   0.887  0.4745 -0.1110 -0.3673
  333MOL    H9040594   2.823   1.244   0.877 -1.1012  1.9222  0.2392
  333MOL    H9140595   2.663   1.234   0.935  0.2433 -0.8289  0.1691
  333MOL    C9240596   2.696   1.127   0.741  0.0386  0.6060  0.0348
  333MOL    F9340597   2.798   1.069   0.671  0.3227  0.0337 -0.1349
  333MOL    F9440598   2.604   1.023   0.771 -0.4571  0.3526 -0.1953
  333MOL    C9540599   2.628   1.240   0.672  0.0728  0.0770  0.2253
  333MOL    H9640600   2.686   1.332   0.682  0.5652  0.0082 -1.8077
  333MOL    H9740601   2.547   1.272   0.737 -0.4569  1.4708 -1.0840
  333MOL    C9840602   2.576   1.211   0.529 -0.4900 -0.0324 -0.4622
  333MOL    F9940603   2.517   1.324   0.490 -0.0604 -0.0464  0.2987
  333MOL   F10040604   2.687   1.186   0.457 -0.4402  0.0324  0.1649
  333MOL   C10140605   2.472   1.100   0.515 -0.6256 -0.6082  0.5242
  333MOL   H10240606   2.393   1.128   0.584 -0.8415 -1.3071  0.5679
  333MOL   H10340607   2.527   1.010   0.543 -0.0505 -0.0853  1.0689
  333MOL   C10440608   2.422   1.072   0.372 -0.3298 -0.0608  0.3686
  333MOL   F10540609   2.391   1.184   0.305  0.3991 -0.0241  0.3470
  333MOL   F10640610   2.515   1.012   0.306  0.4416 -0.1232  0.3351
  333MOL   C10740611   2.294   0.976   0.356 -0.1691 -0.2934  0.6352
  333MOL   H10840612   2.217   1.032   0.410 -0.3209  0.7678 -0.6393
  333MOL   H10940613   2.319   0.887   0.414 -0.1230 -2.3328 -2.4205
  333MOL   C11040614   2.240   0.944   0.216  0.3485 -0.4319 -0.0883
  333MOL   F11140615   2.163   0.838   0.245 -0.0413  0.0226  0.4445
  333MOL   F11240616   2.164   1.050   0.172  0.3277 -0.2092  0.0932
  333MOL   C11340617   2.348   0.884   0.120  0.0680 -0.0914 -0.2884
  333MOL   H11440618   2.405   0.809   0.175  1.1917  1.8409  1.2518
  333MOL   H11540619   2.419   0.963   0.095 -0.9571  1.3102  1.1830
  333MOL   C11640620   2.298   0.838   8.335 -0.1620  1.0016 -0.9650
  333MOL   F11740621   2.404   0.799   8.267 -0.1037 -0.4425 -0.3182
  333MOL   F11840622   2.211   0.739   8.335  0.0536 -0.2656  0.1267
  333MOL   C11940623   2.245   0.955   8.247  0.2376 -0.6501  0.2281
  333MOL   H12040624   2.191   0.921   8.159  2.4448  2.1407 -2.3268
  333MOL   H12140625   2.334   1.005   8.209 -0.3452 -0.3378 -0.7476
  333MOL   H12240626   2.191   1.040   8.288  0.6237 -1.3207  2.2069
  334MOL     C140627   4.575   4.496   8.022 -0.1018 -0.0859  0.4931
  334MOL     F240628   4.630   4.384   7.984 -0.7957  0.3585 -0.2956
  334MOL     F340629   4.659   4.573   8.098  0.4128  0.1385 -0.6556
  334MOL     C440630   4.448   4.481   8.099 -0.1625 -0.2886  0.1138
  334MOL     H540631   4.412   4.584   8.109 -2.9603 -1.1790 -0.3894
  334MOL     H640632   4.462   4.449   8.202 -2.3391  0.4511  0.6705
  334MOL     H740633   4.561   4.560   7.935  1.7059  1.6952  1.4468
  334MOL     C840634   4.334   4.395   8.043  0.0835  0.3543  1.0515
  334MOL     F940635   4.322   4.449   7.921 -0.0966  0.1861 -0.0066
  334MOL    F1040636   4.398   4.278   8.037  0.3056 -0.1883  0.3640
  334MOL    C1140637   4.209   4.387   8.127 -0.7122 -0.2671  0.3547
  334MOL    H1240638   4.229   4.329   8.218 -1.6825 -1.4081 -0.1359
  334MOL    H1340639   4.152   4.314   8.068  1.1083 -2.0616  0.7696
  334MOL    C1440640   4.145   4.524   8.155 -0.1842  0.8724  0.0174
  334MOL    F1540641   4.224   4.600   8.232 -0.1537  0.3835  0.2925
  334MOL    F1640642   4.121   4.589   8.039 -0.5501 -0.0301 -0.0292
  334MOL    C1740643   4.008   4.511   8.229  0.1095  0.0245  0.2050
  334MOL    H1840644   3.935   4.449   8.178  0.3301  0.7405 -0.9848
  334MOL    H1940645   3.950   4.603   8.227  2.2887  1.3904 -4.3741
  334MOL    C2040646   4.019   4.474   0.031  0.2612 -0.4409  0.5215
  334MOL    F2140647   4.072   4.351   0.058 -0.2420 -0.0073 -0.3903
  334MOL    F2240648   4.096   4.563   0.104 -0.0917  0.1470  0.2188
  334MOL    C2340649   3.885   4.459   0.105  0.1684  0.5505  0.2969
  334MOL    H2440650   3.850   4.358   0.085  1.6828  0.2516 -0.9274
  334MOL    H2540651   3.813   4.527   0.058 -2.1150 -0.5759  2.1203
  334MOL    C2640652   3.884   4.507   0.259 -0.7292  0.4166 -0.5622
  334MOL    F2740653   3.978   4.439   0.330  0.3525 -0.2605  0.2739
  334MOL    F2840654   3.904   4.642   0.274  0.1139  0.1031 -0.0733
  334MOL    C2940655   3.749   4.467   0.339 -0.2371 -0.5983 -0.2838
  334MOL    H3040656   3.754   4.490   0.445  1.4030  1.7854 -0.8346
  334MOL    H3140657   3.736   4.359   0.337  1.7043 -0.8614  0.0117
  334MOL    C3240658   3.632   4.540   0.275 -0.4199 -0.7764  0.2131
  334MOL    F3340659   3.673   4.667   0.263 -0.1945  0.3478  0.1972
  334MOL    F3440660   3.608   4.486   0.153 -0.0649 -0.1746 -0.3396
  334MOL    C3540661   3.501   4.527   0.356 -0.5678  0.4301  0.4519
  334MOL    H3640662   3.520   4.552   0.460 -2.1552 -1.6628  1.2803
  334MOL    H3740663   3.478   4.421   0.352 -0.2940  0.3129  1.6993
  334MOL    C3840664   3.390   4.622   0.316 -0.5452  0.2403 -0.4753
  334MOL    F3940665   3.432   4.745   0.336  0.4509 -0.2759  0.0935
  334MOL    F4040666   3.367   4.601   0.182 -0.9124 -0.8441 -0.2363
  334MOL    C4140667   3.255   4.592   0.382  0.2213  0.0731  0.0572
  334MOL    H4240668   3.218   4.490   0.379 -1.6808  0.7559 -0.5861
  334MOL    H4340669   3.177   4.655   0.338  0.2236  1.3928  1.8991
  334MOL    C4440670   3.245   4.620   0.531 -0.5490  0.3359  0.2464
  334MOL    F4540671   3.322   4.540   0.599 -0.4149 -0.0998 -0.6592
  334MOL    F4640672   3.285   4.748   0.543 -0.2927 -0.8195  0.3664
  334MOL    C4740673   3.109   4.602   0.592  0.5189  0.2302 -0.0716
  334MOL    H4840674   3.128   4.584   0.697 -1.0227  2.1303  0.5589
  334MOL    H4940675   3.072   4.504   0.562 -0.3693  0.7320 -0.6626
  334MOL    C5040676   2.996   4.703   0.566 -0.2256  0.4845 -0.0752
  334MOL    F5140677   3.038   4.833   0.580  0.3531  0.0101 -0.1555
  334MOL    F5240678   2.962   4.688   0.437 -0.3386 -0.0140 -0.2185
  334MOL    C5340679   2.867   4.668   0.654  0.0364 -0.3349  0.4967
  334MOL    H5440680   2.896   4.688   0.757 -1.1880  0.6391  0.6677
  334MOL    H5540681   2.863   4.559   0.660  1.8757 -0.3599  1.7836
  334MOL    C5640682   2.736   4.746   0.619 -0.1848  0.0747 -0.5477
  334MOL    F5740683   2.745   4.880   0.626 -0.2007 -0.2573 -0.4393
  334MOL    F5840684   2.701   4.709   0.495  0.0030  0.1698  0.1352
  334MOL    C5940685   2.619   4.705   0.715 -0.5724  0.0964 -0.5960
  334MOL    H6040686   2.611   4.597   0.726 -1.2597  0.2467  0.4292
  334MOL    H6140687   2.521   4.729   0.675 -0.3418  0.1577 -1.1175
  334MOL    C6240688   2.615   4.773   0.851 -0.2537 -0.6141 -0.3171
  334MOL    F6340689   2.735   4.737   0.910  0.5559 -0.4441 -0.5417
  334MOL    F6440690   2.600   4.907   0.844 -0.3905  0.2577  0.5023
  334MOL    C6540691   2.494   4.731   0.937 -0.3885 -0.4315  0.1235
  334MOL    H6640692   2.399   4.772   0.905  0.7042  1.3873 -0.9063
  334MOL    H6740693   2.513   4.782   1.032 -3.1627 -0.5826  0.7907
  334MOL    C6840694   2.473   4.582   0.967  0.3393  0.4604 -0.0737
  334MOL    F6940695   2.403   4.514   0.878 -0.2166  0.0322 -0.1789
  334MOL    F7040696   2.597   4.529   0.970 -0.0906  0.2548  0.0627
  334MOL    C7140697   2.398   4.565   1.104 -0.1495  0.4239  0.0098
  334MOL    H7240698   2.298   4.610   1.096 -0.9380 -1.5159 -1.2880
  334MOL    H7340699   2.446   4.621   1.184  1.1843  1.4955 -1.5254
  334MOL    C7440700   2.377   4.419   1.151 -0.4625  0.2441 -0.1265
  334MOL    F7540701   2.292   4.431   1.249 -0.1002  0.0595 -0.1097
  334MOL    F7640702   2.322   4.341   1.054  0.4400  0.2216  0.2365
  334MOL    C7740703   2.503   4.341   1.192  0.5630  0.1894  0.2285
  334MOL    H7840704   2.575   4.401   1.246  2.8734 -2.4128  0.1442
  334MOL    H7940705   2.543   4.314   1.094  1.4301 -0.7105  0.8306
  334MOL    C8040706   2.488   4.209   1.274  0.1909  0.8036 -0.3831
  334MOL    F8140707   2.615   4.159   1.301  0.9775 -0.0563  1.1544
  334MOL    F8240708   2.444   4.248   1.394 -0.4241  0.1170 -0.0595
  334MOL    C8340709   2.409   4.096   1.208 -0.0800 -0.1559  0.1936
  334MOL    H8440710   2.442   4.089   1.104  2.0412 -0.4498  0.8556
  334MOL    H8540711   2.303   4.119   1.206  0.2019  1.1308 -1.7832
  334MOL    C8640712   2.428   3.957   1.284 -0.0802  0.4977  0.0087
  334MOL    F8740713   2.539   3.909   1.242 -0.3980  0.4007 -0.1776
  334MOL    F8840714   2.434   3.972   1.416 -0.8141  0.0611 -0.6183
  334MOL    C8940715   2.317   3.852   1.241 -0.1829 -0.2721 -0.3909
  334MOL    H9040716   2.225   3.880   1.293  0.1320  1.3571 -0.6624
  334MOL    H9140717   2.347   3.755   1.281  0.3851 -0.2724 -0.8172
  334MOL    C9240718   2.293   3.836   1.089 -0.5013 -0.1394  0.2262
  334MOL    F9340719   2.236   3.946   1.048  0.2802  0.2947  0.1950
  334MOL    F9440720   2.403   3.805   1.021 -0.2733 -0.1165 -0.2326
  334MOL    C9540721   2.194   3.716   1.075  0.7418 -0.5898 -0.0114
  334MOL    H9640722   2.097   3.731   1.123  1.0764 -0.2074  0.5461
  334MOL    H9740723   2.230   3.630   1.131 -1.7851 -0.7523  1.4319
  334MOL    C9840724   2.173   3.675   0.928 -0.5548  0.1012  0.6523
  334MOL    F9940725   2.172   3.773   0.837  0.6236  0.0019 -0.0545
  334MOL   F10040726   2.280   3.605   0.899 -0.1584  0.1189  0.0942
  334MOL   C10140727   2.044   3.589   0.896 -0.0737  0.6370 -0.8464
  334MOL   H10240728   2.029   3.591   0.788  1.8196 -2.2950 -1.2144
  334MOL   H10340729   1.964   3.651   0.936  1.4921  1.6279  0.8746
  334MOL   C10440730   2.039   3.446   0.952  1.0364 -0.0790 -0.7370
  334MOL   F10540731   2.151   3.380   0.906  0.3500 -0.5324  0.3425
  334MOL   F10640732   2.047   3.477   1.084  0.6495  0.2931 -0.0929
  334MOL   C10740733   1.903   3.374   0.919 -0.7721 -0.1598  0.3383
  334MOL   H10840734   1.897   3.387   0.811  0.7384 -0.1755  0.2424
  334MOL   H10940735   1.833   3.446   0.962 -0.8650  0.2879 -0.5577
  334MOL   C11040736   1.875   3.227   0.966 -0.1998  1.0363  0.1796
  334MOL   F11140737   1.883   3.211   1.097 -0.0075 -0.1380 -0.3035
  334MOL   F11240738   1.749   3.198   0.932  0.2064 -0.2706  0.0369
  334MOL   C11340739   1.964   3.126   0.889 -0.2060 -0.6307  0.7493
  334MOL   H11440740   2.061   3.125   0.937 -0.0443 -1.0838  0.4157
  334MOL   H11540741   1.981   3.172   0.792 -2.8152 -0.0337  0.5177
  334MOL   C11640742   1.909   2.981   0.875 -0.5093 -0.2336  0.0474
  334MOL   F11740743   1.846   2.950   0.989 -0.3496  0.5166 -0.4964
  334MOL   F11840744   1.815   2.971   0.779 -0.4941 -0.5864  0.1840
  334MOL   C11940745   2.023   2.883   0.849  0.4665  0.4630 -0.0089
  334MOL   H12040746   2.083   2.902   0.760 -1.5730 -0.9450 -1.7489
  334MOL   H12140747   1.977   2.785   0.844 -0.0970  0.8256 -2.4933
  334MOL   H12240748   2.098   2.880   0.928  0.1583  0.8066  0.2956
  335MOL     C140749   7.673   3.195   3.030 -0.0359  0.0573  0.6885
  335MOL     F240750   7.736   3.075   3.047 -0.2115  0.0364 -0.7838
  335MOL     F340751   7.551   3.191   3.078  0.0942 -0.2585 -0.3954
  335MOL     C440752   7.655   3.229   2.880  0.0224 -0.1118  0.1544
  335MOL     H540753   7.752   3.241   2.832  0.0243  0.2675  0.2477
  335MOL     H640754   7.611   3.329   2.886  2.8277  1.3157 -1.8305
  335MOL     H740755   7.734   3.269   3.081 -0.8836  2.6754 -1.9397
  335MOL     C840756   7.540   3.165   2.794 -0.1799 -0.7119  0.1443
  335MOL     F940757   7.423   3.202   2.836 -0.2789  0.5911  0.3853
  335MOL    F1040758   7.554   3.207   2.671 -0.0192  0.3270 -0.3622
  335MOL    C1140759   7.545   3.008   2.796  0.1796  0.7679 -0.0157
  335MOL    H1240760   7.543   2.969   2.898 -0.9658  1.3989  0.2075
  335MOL    H1340761   7.647   2.981   2.771 -0.1785 -1.0935  0.4506
  335MOL    C1440762   7.456   2.923   2.705  1.0940  0.4722 -0.1349
  335MOL    F1540763   7.330   2.962   2.717 -0.6066  0.3511  0.1170
  335MOL    F1640764   7.498   2.947   2.580  0.5860 -0.1041 -0.3773
  335MOL    C1740765   7.462   2.766   2.741 -0.0906 -0.2426 -0.1179
  335MOL    H1840766   7.445   2.745   2.846  1.1358 -0.8100 -0.0236
  335MOL    H1940767   7.568   2.739   2.739  0.1554  0.4864  1.9850
  335MOL    C2040768   7.371   2.675   2.652 -0.3950  0.1283  0.2645
  335MOL    F2140769   7.246   2.684   2.693  0.2424  0.2217 -0.1359
  335MOL    F2240770   7.373   2.714   2.527  0.6576 -0.6309 -0.4449
  335MOL    C2340771   7.414   2.525   2.632 -0.3376 -0.5800  0.3348
  335MOL    H2440772   7.507   2.522   2.576  1.3656 -0.0394  3.0728
  335MOL    H2540773   7.354   2.484   2.550  0.9683 -0.3503 -0.7489
  335MOL    C2640774   7.411   2.428   2.751  0.0758  0.2568  0.3251
  335MOL    F2740775   7.503   2.468   2.841 -0.2340 -0.5448  0.1737
  335MOL    F2840776   7.291   2.421   2.810  0.0055  0.0181  0.5067
  335MOL    C2940777   7.445   2.288   2.703  0.1852 -0.3732 -0.0646
  335MOL    H3040778   7.536   2.280   2.645  0.0523  0.5715 -0.4005
  335MOL    H3140779   7.363   2.261   2.636  1.3134  0.7175 -1.9048
  335MOL    C3240780   7.454   2.177   2.803 -0.3414  0.8992  0.3552
  335MOL    F3340781   7.556   2.204   2.888 -0.6550 -0.2992 -0.2077
  335MOL    F3440782   7.346   2.167   2.883 -1.1045 -0.4321 -0.0736
  335MOL    C3540783   7.501   2.041   2.738 -0.0428  0.4149 -0.0600
  335MOL    H3640784   7.499   1.967   2.818 -0.4452  1.6066  1.0565
  335MOL    H3740785   7.597   2.054   2.689 -0.4894 -0.8062 -1.2975
  335MOL    C3840786   7.408   1.974   2.632  0.3487  0.0482  0.5264
  335MOL    F3940787   7.409   2.049   2.523  0.1903 -0.0493  0.2737
  335MOL    F4040788   7.461   1.863   2.588  0.3876 -0.3807 -0.8951
  335MOL    C4140789   7.260   1.933   2.660  0.5067 -0.6670  0.4252
  335MOL    H4240790   7.203   1.903   2.572  0.2583 -2.3106  1.1300
  335MOL    H4340791   7.211   2.021   2.700  1.7292  0.2431 -0.0303
  335MOL    C4440792   7.230   1.830   2.766  0.0996 -0.0906 -0.4079
  335MOL    F4540793   7.263   1.709   2.714 -0.4820 -0.3733  0.1128
  335MOL    F4640794   7.300   1.853   2.881 -0.3592  0.4228 -0.0749
  335MOL    C4740795   7.086   1.818   2.818 -1.1520  0.3508 -0.3134
  335MOL    H4840796   7.016   1.783   2.741 -0.8380  1.6441 -1.1998
  335MOL    H4940797   7.058   1.922   2.834  1.3124  1.1087 -0.8483
  335MOL    C5040798   7.060   1.725   2.938 -0.6528  0.4032 -0.6863
  335MOL    F5140799   7.111   1.607   2.904  0.6937  0.3022  0.0191
  335MOL    F5240800   7.124   1.768   3.054 -0.3539  0.3126  0.2623
  335MOL    C5340801   6.913   1.690   2.960  0.1561 -0.4722  0.0386
  335MOL    H5440802   6.872   1.668   2.861 -1.9843  0.3857  0.7271
  335MOL    H5540803   6.861   1.778   2.998  1.5530  1.4476 -2.3472
  335MOL    C5640804   6.873   1.572   3.060  0.4110  0.2794 -0.7783
  335MOL    F5740805   6.908   1.455   3.005 -0.2082 -0.2423 -0.8508
  335MOL    F5840806   6.944   1.580   3.181 -0.3676  0.6915 -0.4770
  335MOL    C5940807   6.731   1.566   3.115 -0.8292 -0.2359  0.0106
  335MOL    H6040808   6.723   1.472   3.170  0.7309 -1.2577 -1.4411
  335MOL    H6140809   6.678   1.552   3.021  1.7765 -0.9863 -1.4013
  335MOL    C6240810   6.687   1.688   3.208  0.1084  0.7477 -0.3160
  335MOL    F6340811   6.790   1.729   3.280  0.2982  0.1412  0.4170
  335MOL    F6440812   6.660   1.795   3.137  0.5430 -0.1940  0.2303
  335MOL    C6540813   6.570   1.651   3.307  0.2819 -0.6690  0.2165
  335MOL    H6640814   6.542   1.746   3.351  1.2371  0.0025 -0.6157
  335MOL    H6740815   6.617   1.593   3.387  1.7680  1.6582  1.0808
  335MOL    C6840816   6.441   1.597   3.259 -0.0633  0.0214  0.3529
  335MOL    F6940817   6.400   1.668   3.160  1.1195 -0.3945  0.0642
  335MOL    F7040818   6.473   1.471   3.223  0.1738 -0.2217  0.3182
  335MOL    C7140819   6.324   1.596   3.361  0.3437 -0.4218  0.3522
  335MOL    H7240820   6.236   1.561   3.307  0.1252  0.0641  0.3907
  335MOL    H7340821   6.296   1.700   3.374 -0.8761 -0.7167  0.2007
  335MOL    C7440822   6.337   1.507   3.493  0.1863 -0.8749 -0.2786
  335MOL    F7540823   6.324   1.383   3.441 -0.4310 -0.1450 -0.1614
  335MOL    F7640824   6.455   1.525   3.556 -0.1595 -0.4139 -0.2927
  335MOL    C7740825   6.230   1.538   3.601  0.4773  0.0922 -0.0386
  335MOL    H7840826   6.132   1.549   3.554  0.8906  2.4757 -0.3941
  335MOL    H7940827   6.248   1.638   3.641 -1.6964  1.1279 -1.5671
  335MOL    C8040828   6.227   1.434   3.728 -0.5177 -0.0512  0.1856
  335MOL    F8140829   6.159   1.481   3.827  0.0858 -0.1807 -0.1989
  335MOL    F8240830   6.172   1.323   3.692 -0.3432 -0.3078 -0.2102
  335MOL    C8340831   6.366   1.396   3.786 -0.0037  0.4087 -0.0424
  335MOL    H8440832   6.410   1.496   3.794 -3.7878  2.0377  1.6209
  335MOL    H8540833   6.428   1.347   3.711 -0.1626 -0.7174  0.5514
  335MOL    C8640834   6.372   1.332   3.927  0.1956  0.8744  0.3795
  335MOL    F8740835   6.498   1.287   3.948 -0.2327  0.1826 -0.3187
  335MOL    F8840836   6.348   1.422   4.017  0.2370 -0.0287 -0.1785
  335MOL    C8940837   6.268   1.223   3.952 -0.5981  0.4774  0.4709
  335MOL    H9040838   6.261   1.154   3.868 -1.0469 -0.7004  1.4652
  335MOL    H9140839   6.171   1.267   3.975  0.2019  2.0332  0.9267
  335MOL    C9240840   6.299   1.134   4.076  0.5099  0.3401 -0.4669
  335MOL    F9340841   6.329   1.201   4.181 -0.3279 -0.4178  0.2246
  335MOL    F9440842   6.179   1.075   4.100 -0.2339 -0.1598  0.3313
  335MOL    C9540843   6.400   1.019   4.061  0.6603 -0.7122 -0.4356
  335MOL    H9640844   6.494   1.073   4.051 -0.1760  0.6572 -0.9505
  335MOL    H9740845   6.394   0.975   3.961  2.5319 -1.1731 -0.3652
  335MOL    C9840846   6.407   0.921   4.183 -0.6127 -0.5837  0.8344
  335MOL    F9940847   6.431   0.997   4.289 -0.5148  0.2706 -0.3164
  335MOL   F10040848   6.292   0.868   4.207 -0.2530 -0.0525  0.4382
  335MOL   C10140849   6.525   0.818   4.164  0.3508  0.1749  0.2131
  335MOL   H10240850   6.607   0.880   4.128  0.9207 -0.9448 -0.4119
  335MOL   H10340851   6.500   0.759   4.077  0.1788  2.4896 -1.3657
  335MOL   C10440852   6.556   0.732   4.284  0.1477 -0.0452  0.3930
  335MOL   F10540853   6.444   0.681   4.337 -0.3375  0.2107 -0.5729
  335MOL   F10640854   6.630   0.628   4.249  0.4240  0.4036 -0.1170
  335MOL   C10740855   6.639   0.801   4.389 -0.0919 -0.1745  0.0578
  335MOL   H10840856   6.590   0.897   4.402 -2.9457 -1.2374 -2.2149
  335MOL   H10940857   6.737   0.821   4.345 -0.9445  1.6908 -1.0218
  335MOL   C11040858   6.651   0.733   4.525 -0.4651  0.6992  0.0400
  335MOL   F11140859   6.532   0.743   4.584  0.4093  0.1147  0.3997
  335MOL   F11240860   6.697   0.607   4.500 -0.4530 -0.5348  0.0854
  335MOL   C11340861   6.749   0.802   4.622 -0.0698 -0.4471 -0.1056
  335MOL   H11440862   6.716   0.905   4.633  3.1132  0.4935  1.3229
  335MOL   H11540863   6.839   0.806   4.561 -0.2035  0.4838 -0.2505
  335MOL   C11640864   6.758   0.745   4.762 -0.8195 -0.1691 -0.2725
  335MOL   F11740865   6.646   0.769   4.830 -0.1582 -0.4005  0.2752
  335MOL   F11840866   6.770   0.609   4.751 -0.0669 -0.0302 -0.1066
  335MOL   C11940867   6.879   0.792   4.836 -0.5219 -0.0090 -0.3562
  335MOL   H12040868   6.887   0.744   4.934  0.9955  1.2237  0.1350
  335MOL   H12140869   6.857   0.897   4.854  2.4046  1.2515 -3.6026
  335MOL   H12240870   6.967   0.786   4.773 -0.7781 -0.1855 -0.7001
  336MOL     C140871   3.131   3.100   0.722  0.2045  0.2682 -0.4385
  336MOL     F240872   3.095   3.045   0.834 -0.2575  0.1883 -0.2552
  336MOL     F340873   3.181   3.218   0.746 -0.5807 -0.1234  0.7547
  336MOL     C440874   3.019   3.114   0.624  0.0994 -0.6415 -0.2721
  336MOL     H540875   2.952   3.194   0.655 -0.5550 -2.3385  2.9253
  336MOL     H640876   2.949   3.030   0.636  1.2835 -1.5363  0.4604
  336MOL     H740877   3.207   3.036   0.678  1.6750 -0.2793  2.7686
  336MOL     C840878   3.058   3.127   0.480  0.7363 -0.2809  0.2952
  336MOL     F940879   3.146   3.031   0.454 -0.7001 -0.3435 -0.0680
  336MOL    F1040880   2.949   3.101   0.409 -0.4356 -0.2678  0.2226
  336MOL    C1140881   3.123   3.268   0.453  0.2478 -0.4467  0.3157
  336MOL    H1240882   3.225   3.266   0.491  0.2282 -1.6523  0.3216
  336MOL    H1340883   3.078   3.343   0.518 -1.3015  0.4267 -1.7208
  336MOL    C1440884   3.128   3.299   0.305 -0.0544 -0.3607 -0.1435
  336MOL    F1540885   3.143   3.188   0.246  0.0847 -0.3904  0.2928
  336MOL    F1640886   3.009   3.348   0.277 -0.5548 -0.5146  0.1507
  336MOL    C1740887   3.246   3.389   0.257  0.0940  0.2613 -0.0988
  336MOL    H1840888   3.257   3.382   0.149  0.0003 -2.2053  0.0232
  336MOL    H1940889   3.330   3.326   0.286  0.8580  1.3125  0.0166
  336MOL    C2040890   3.254   3.532   0.322  0.4560  0.2138  0.2649
  336MOL    F2140891   3.152   3.607   0.294  0.7419  0.2205 -0.9223
  336MOL    F2240892   3.265   3.507   0.457 -0.0016  0.1819 -0.2496
  336MOL    C2340893   3.386   3.602   0.278 -0.1131  0.3876 -0.5425
  336MOL    H2440894   3.473   3.537   0.284 -0.5699 -0.2142 -0.2767
  336MOL    H2540895   3.394   3.678   0.356 -0.1231 -2.0210  1.9126
  336MOL    C2640896   3.387   3.682   0.144 -0.1271 -0.1415  0.4759
  336MOL    F2740897   3.372   3.599   0.045  0.4343  0.8701  0.0014
  336MOL    F2840898   3.277   3.760   0.150  0.3481  0.1383 -0.0683
  336MOL    C2940899   3.502   3.789   0.127 -0.2807  0.1058  0.3737
  336MOL    H3040900   3.504   3.857   0.212  0.6561 -1.6857  1.8169
  336MOL    H3140901   3.473   3.856   0.046  1.4863 -1.4105 -1.5728
  336MOL    C3240902   3.646   3.742   0.095  0.0705 -0.3224  0.4957
  336MOL    F3340903   3.676   3.664   0.197 -0.2292 -0.0146 -0.5784
  336MOL    F3440904   3.640   3.678   8.327 -0.1041  0.2246  0.0458
  336MOL    C3540905   3.737   3.868   0.097  0.7177  0.1407  0.4853
  336MOL    H3640906   3.738   3.913   0.196  0.4582 -0.2850  0.6845
  336MOL    H3740907   3.690   3.941   0.032 -1.2388  0.6480  2.4141
  336MOL    C3840908   3.885   3.839   0.056  0.3353 -0.5389 -0.5420
  336MOL    F3940909   3.928   3.745   0.137  0.1985  0.6346  0.0248
  336MOL    F4040910   3.882   3.797   8.287 -0.1804  0.1585  0.0502
  336MOL    C4140911   3.976   3.963   0.061  0.4279 -0.3095  0.9117
  336MOL    H4240912   3.975   4.019   0.154 -1.5127 -0.2077  0.8590
  336MOL    H4340913   3.934   4.044   0.001  1.7265 -0.3084 -0.0071
  336MOL    C4440914   4.118   3.937   0.025 -0.0700  0.5565  0.1111
  336MOL    F4540915   4.175   3.860   0.112  0.1901  0.4666 -0.3879
  336MOL    F4640916   4.119   3.886   8.251  0.0441 -0.2091  0.1458
  336MOL    C4740917   4.211   4.062   0.026 -0.1237 -0.1026  0.7068
  336MOL    H4840918   4.200   4.106   0.126 -2.4618 -0.0075  0.4453
  336MOL    H4940919   4.181   4.136   8.302  1.4655 -0.5313 -0.3824
  336MOL    C5040920   4.360   4.047   0.008 -0.1687  0.1161 -0.5788
  336MOL    F5140921   4.396   4.169   8.343 -0.1500  0.0032 -0.0802
  336MOL    F5240922   4.422   4.008   0.120 -0.0250  0.2616  0.2934
  336MOL    C5340923   4.398   3.966   8.231  0.5630  0.1507 -0.1500
  336MOL    H5440924   4.368   4.018   8.141  0.1611  0.4149  0.1371
  336MOL    H5540925   4.344   3.872   8.240  0.0859  0.6583  2.6829
  336MOL    C5640926   4.546   3.936   8.204  0.6765 -0.1701 -0.1526
  336MOL    F5740927   4.556   3.885   8.084 -0.2229  0.1601  0.9326
  336MOL    F5840928   4.603   4.059   8.189 -0.1488 -0.1832 -0.6554
  336MOL    C5940929   4.610   3.854   8.313 -0.4246  0.1204 -0.2148
  336MOL    H6040930   4.542   3.775   8.346 -0.7049  0.5115  0.1473
  336MOL    H6140931   4.631   3.906   0.056 -0.2741  0.3997 -0.4069
  336MOL    C6240932   4.731   3.767   8.259  0.1916 -0.1925 -0.2862
  336MOL    F6340933   4.758   3.688   0.014  0.1433  0.2878 -0.2666
  336MOL    F6440934   4.692   3.690   8.156  0.1554 -0.0753 -0.3521
  336MOL    C6540935   4.854   3.849   8.221 -0.4427  0.0385 -0.3585
  336MOL    H6640936   4.872   3.935   8.286  1.3125  0.9317 -1.9746
  336MOL    H6740937   4.823   3.885   8.123 -2.4778 -1.5206 -0.3096
  336MOL    C6840938   4.991   3.783   8.207  0.4659  0.7045 -0.3384
  336MOL    F6940939   5.068   3.882   8.161  0.4495  0.5886 -0.8492
  336MOL    F7040940   5.045   3.723   8.318 -0.0713 -0.0558  0.3161
  336MOL    C7140941   4.994   3.679   8.095 -0.0272  0.0338 -0.2291
  336MOL    H7240942   4.922   3.707   8.018 -2.0316 -0.9032  1.2677
  336MOL    H7340943   4.953   3.591   8.144  1.7841 -1.4743 -1.3688
  336MOL    C7440944   5.140   3.640   8.036 -0.2960 -0.6009  1.1965
  336MOL    F7540945   5.126   3.543   7.954 -0.2147  0.2823 -0.1486
  336MOL    F7640946   5.191   3.743   7.970 -0.7650 -0.2446 -0.2700
  336MOL    C7740947   5.241   3.589   8.146 -0.0084  0.3261 -0.2784
  336MOL    H7840948   5.199   3.515   8.214  2.4408 -0.2011  0.6787
  336MOL    H7940949   5.261   3.665   8.221 -0.5705 -0.2885  0.5032
  336MOL    C8040950   5.374   3.533   8.093 -0.0001  0.5680 -0.0681
  336MOL    F8140951   5.440   3.499   8.204  0.4753 -0.5299  0.0267
  336MOL    F8240952   5.355   3.418   8.018 -0.0530 -0.2834  0.0185
  336MOL    C8340953   5.456   3.625   8.015 -0.4155  0.4233  0.1737
  336MOL    H8440954   5.475   3.713   8.076 -0.2765  1.2443 -1.0271
  336MOL    H8540955   5.393   3.636   7.927  0.3045 -1.1337 -0.5721
  336MOL    C8640956   5.586   3.577   7.954 -0.1033 -0.2696 -0.5144
  336MOL    F8740957   5.626   3.680   7.884  0.1201  0.4133 -0.3839
  336MOL    F8840958   5.672   3.560   8.051  0.3881  0.1539 -0.0215
  336MOL    C8940959   5.585   3.452   7.863  0.3427 -0.2494 -0.9861
  336MOL    H9040960   5.525   3.465   7.773 -0.3797  0.1732 -0.4543
  336MOL    H9140961   5.558   3.362   7.917 -1.0297 -0.7984 -2.5425
  336MOL    C9240962   5.729   3.409   7.813  0.0198 -0.4656 -0.3340
  336MOL    F9340963   5.811   3.397   7.923 -0.2592  1.2803  0.5012
  336MOL    F9440964   5.704   3.298   7.751  0.3113 -0.4462  0.3441
  336MOL    C9540965   5.789   3.503   7.716  0.5834  0.3444  0.5099
  336MOL    H9640966   5.824   3.587   7.776  0.6585  1.3552 -0.9138
  336MOL    H9740967   5.717   3.563   7.660  1.5768  0.6410 -0.4769
  336MOL    C9840968   5.895   3.449   7.613  0.4237  0.0145 -0.4478
  336MOL    F9940969   5.990   3.382   7.683  0.1657  0.4191  0.1084
  336MOL   F10040970   5.839   3.355   7.534 -0.3789 -0.3289 -0.4018
  336MOL   C10140971   5.953   3.562   7.523 -0.2225 -0.0723 -0.1752
  336MOL   H10240972   5.978   3.638   7.597  1.4346  0.8216 -1.6545
  336MOL   H10340973   5.875   3.601   7.458 -0.0313  0.1566 -0.2656
  336MOL   C10440974   6.075   3.521   7.442 -0.3249 -0.6331 -0.0023
  336MOL   F10540975   6.107   3.638   7.377 -0.1617 -0.3277  0.3946
  336MOL   F10640976   6.179   3.492   7.516  0.2281  0.8077  0.3270
  336MOL   C10740977   6.042   3.417   7.341  0.1059 -0.4471  0.2340
  336MOL   H10840978   5.945   3.452   7.307 -0.1189 -0.1838  1.1322
  336MOL   H10940979   6.020   3.319   7.384 -0.5779  0.4480  1.9500
  336MOL   C11040980   6.143   3.395   7.227  0.6033  0.1153  0.6857
  336MOL   F11140981   6.087   3.304   7.151  0.2763 -0.1445 -0.4333
  336MOL   F11240982   6.163   3.520   7.161 -0.2780 -0.2494 -0.1808
  336MOL   C11340983   6.287   3.348   7.275 -0.0302 -0.1604 -0.4990
  336MOL   H11440984   6.334   3.420   7.342  0.9804 -0.0003 -1.3658
  336MOL   H11540985   6.355   3.352   7.189  1.3586  0.9198  0.6195
  336MOL   C11640986   6.290   3.204   7.338  0.3054 -0.0211  0.0924
  336MOL   F11740987   6.234   3.188   7.458  0.2919  0.3170 -0.5188
  336MOL   F11840988   6.232   3.122   7.248 -0.0395  0.1709  0.0825
  336MOL   C11940989   6.437   3.170   7.350  0.3768  0.7125  1.2895
  336MOL   H12040990   6.495   3.184   7.259 -2.1577 -1.0292 -0.6812
  336MOL   H12140991   6.471   3.070   7.381  2.7430  0.1377 -2.7862
  336MOL   H12240992   6.486   3.235   7.422  0.5071 -0.4609  2.2963
  337MOL     C140993   6.282   5.326   1.794 -0.1355  0.0921  0.6210
  337MOL     F240994   6.375   5.242   1.841 -0.4966 -0.2846 -0.1016
  337MOL     F340995   6.324   5.381   1.675 -0.2867 -0.1105  0.1559
  337MOL     C440996   6.248   5.439   1.900 -0.1418  0.0015  0.1226
  337MOL     H540997   6.165   5.481   1.843 -0.7566 -3.6175 -1.8191
  337MOL     H640998   6.335   5.502   1.918  0.6397 -0.6940 -1.0833
  337MOL     H740999   6.190   5.269   1.779 -1.1317  1.1242  2.6078
  337MOL     C841000   6.178   5.390   2.033 -0.0318  0.6894 -0.0862
  337MOL     F941001   6.086   5.295   2.001 -0.1039  0.3102 -0.4074
  337MOL    F1041002   6.272   5.319   2.095 -0.4948  0.0895  0.0569
  337MOL    C1141003   6.100   5.493   2.114  0.0248 -0.0054 -0.5988
  337MOL    H1241004   6.066   5.442   2.204 -0.3751 -1.6560 -1.6605
  337MOL    H1341005   6.013   5.520   2.054 -0.6983  0.1515  0.5160
  337MOL    C1441006   6.172   5.623   2.151 -0.7542 -0.3168  0.8925
  337MOL    F1541007   6.286   5.580   2.218  0.0044 -0.7202 -0.4510
  337MOL    F1641008   6.211   5.689   2.041  0.3233  0.3298  0.3890
  337MOL    C1741009   6.083   5.711   2.237  0.8600 -0.3260  0.0829
  337MOL    H1841010   6.043   5.644   2.313 -1.2904  0.4732 -0.3121
  337MOL    H1941011   5.996   5.751   2.185  0.6581 -2.8355 -1.5577
  337MOL    C2041012   6.156   5.833   2.289 -0.1088 -0.6114  0.1257
  337MOL    F2141013   6.276   5.809   2.340  0.1318  0.3868  0.4529
  337MOL    F2241014   6.167   5.922   2.189  0.4133  0.2162  0.6885
  337MOL    C2341015   6.070   5.906   2.393 -0.4159  0.6464  0.7013
  337MOL    H2441016   6.034   5.831   2.462  2.6037 -0.3375  1.2525
  337MOL    H2541017   5.980   5.933   2.337  0.4099  1.7605 -0.1224
  337MOL    C2641018   6.118   6.040   2.456  0.2315  1.2551  0.1907
  337MOL    F2741019   6.106   6.133   2.364  0.3107  0.1909 -0.3447
  337MOL    F2841020   6.040   6.067   2.559 -0.3327  0.2996  0.2266
  337MOL    C2941021   6.261   6.041   2.512 -0.0897  0.2463  0.2144
  337MOL    H3041022   6.330   6.003   2.436  0.6720  0.7832  0.6301
  337MOL    H3141023   6.265   5.967   2.593 -1.5282  0.3446  0.3838
  337MOL    C3241024   6.306   6.177   2.570 -0.3669  0.5988  0.0106
  337MOL    F3341025   6.324   6.258   2.465 -0.5194 -0.0747  0.0848
  337MOL    F3441026   6.210   6.235   2.648  0.3731  0.5982  0.1473
  337MOL    C3541027   6.451   6.172   2.634 -0.3877 -0.0671 -0.1597
  337MOL    H3641028   6.525   6.126   2.568  0.6500  0.0044  0.9266
  337MOL    H3741029   6.431   6.097   2.711  0.5036 -0.5901 -0.4219
  337MOL    C3841030   6.496   6.299   2.713 -0.2351  0.1692  0.6259
  337MOL    F3941031   6.537   6.390   2.626  0.5603 -0.0441 -0.0445
  337MOL    F4041032   6.393   6.356   2.775 -0.1434 -0.1380  0.1773
  337MOL    C4141033   6.603   6.294   2.826 -0.4213 -0.6057  0.2069
  337MOL    H4241034   6.555   6.259   2.917 -0.1272 -1.4250  0.0486
  337MOL    H4341035   6.618   6.399   2.852  0.1408 -0.2318 -1.5288
  337MOL    C4441036   6.728   6.220   2.782 -0.5284  0.0585  0.0429
  337MOL    F4541037   6.694   6.087   2.757  0.0696  0.4901  0.1051
  337MOL    F4641038   6.776   6.287   2.676 -0.2003 -0.2346 -0.0819
  337MOL    C4741039   6.834   6.224   2.896 -0.0991  0.0040  0.2252
  337MOL    H4841040   6.854   6.321   2.942  2.8701 -0.5673  0.2192
  337MOL    H4941041   6.929   6.216   2.843  0.9460 -2.4189  2.3944
  337MOL    C5041042   6.835   6.118   3.009  0.1411  0.1879  0.1855
  337MOL    F5141043   6.718   6.115   3.065 -0.0437 -0.2431 -0.7376
  337MOL    F5241044   6.853   5.996   2.952 -0.4625 -0.0366  0.3026
  337MOL    C5341045   6.951   6.135   3.115 -0.1554 -0.1720  0.6810
  337MOL    H5441046   6.945   6.053   3.187 -1.4220 -0.5147  0.1964
  337MOL    H5541047   6.949   6.230   3.169  2.3095 -0.6124  1.5909
  337MOL    C5641048   7.102   6.145   3.059  0.4288 -0.3999 -0.4957
  337MOL    F5741049   7.123   6.252   2.982  0.2992  0.1196 -0.8174
  337MOL    F5841050   7.173   6.147   3.170 -0.1519 -0.0211  0.5438
  337MOL    C5941051   7.141   6.026   2.976 -0.0708  0.5058  0.0601
  337MOL    H6041052   7.078   6.017   2.888  0.4271 -1.4356 -0.1217
  337MOL    H6141053   7.121   5.941   3.043 -0.8729  1.3957  0.9738
  337MOL    C6241054   7.286   6.013   2.927 -0.6848  0.3124 -0.2074
  337MOL    F6341055   7.380   6.036   3.024 -0.2268  0.3876 -0.3371
  337MOL    F6441056   7.306   5.880   2.898  0.5916 -0.3029  0.0706
  337MOL    C6541057   7.337   6.106   2.815 -0.1777  0.6516 -0.6193
  337MOL    H6641058   7.430   6.062   2.780 -1.3539 -1.7478 -0.8122
  337MOL    H6741059   7.372   6.203   2.849 -0.1758  0.6203 -0.5326
  337MOL    C6841060   7.243   6.109   2.692  0.1373 -0.2567  0.1402
  337MOL    F6941061   7.192   5.995   2.653  0.2137  0.0246 -0.4267
  337MOL    F7041062   7.142   6.181   2.737  0.2994 -0.4887 -0.0814
  337MOL    C7141063   7.308   6.172   2.560 -0.4681 -0.0819 -0.5130
  337MOL    H7241064   7.402   6.119   2.548 -0.9460 -0.7237 -1.5091
  337MOL    H7341065   7.333   6.270   2.601 -1.1561 -0.9102  1.9364
  337MOL    C7441066   7.216   6.188   2.438  0.2710 -0.0391  0.0667
  337MOL    F7541067   7.278   6.251   2.344 -0.4187  0.1241 -0.0421
  337MOL    F7641068   7.184   6.061   2.399 -0.4553  0.4521 -0.0138
  337MOL    C7741069   7.076   6.263   2.459 -0.0881 -0.2113  0.1682
  337MOL    H7841070   7.096   6.338   2.535  0.1464 -0.4516  0.3439
  337MOL    H7941071   7.004   6.188   2.491  0.3491 -0.2304  1.1134
  337MOL    C8041072   7.014   6.309   2.324  0.1336  0.2731  1.2282
  337MOL    F8141073   7.094   6.404   2.280  0.1646 -0.0408 -0.4996
  337MOL    F8241074   7.003   6.192   2.252  0.2634 -0.6216  0.7533
  337MOL    C8341075   6.878   6.375   2.341  0.4898 -0.1279 -0.3683
  337MOL    H8441076   6.893   6.459   2.409  1.3791 -0.2355 -0.4179
  337MOL    H8541077   6.811   6.312   2.400  0.5006  0.2249  0.0260
  337MOL    C8641078   6.794   6.419   2.223 -0.2961  0.0769 -0.4025
  337MOL    F8741079   6.754   6.311   2.153  0.0104 -0.2980  0.1098
  337MOL    F8841080   6.688   6.479   2.277  0.0273  0.1444  0.6252
  337MOL    C8941081   6.864   6.525   2.128 -0.3618 -0.0448  0.0139
  337MOL    H9041082   6.945   6.479   2.071 -2.1749 -1.6296 -1.3357
  337MOL    H9141083   6.892   6.607   2.194  3.0545 -0.3625 -0.9280
  337MOL    C9241084   6.775   6.572   2.012 -0.0917  0.1985  0.0689
  337MOL    F9341085   6.676   6.651   2.049  0.1591 -0.0316 -0.0072
  337MOL    F9441086   6.859   6.642   1.933 -0.3955  0.0072  0.3720
  337MOL    C9541087   6.713   6.452   1.913  0.2151 -0.2264 -0.8427
  337MOL    H9641088   6.631   6.400   1.963 -0.5389  1.5452 -0.1984
  337MOL    H9741089   6.798   6.384   1.907  1.1278  0.7835  0.3928
  337MOL    C9841090   6.653   6.497   1.775  0.5606  0.2005  0.7988
  337MOL    F9941091   6.568   6.588   1.803  0.0359 -0.0761  0.0101
  337MOL   F10041092   6.752   6.546   1.706  0.1016  0.5588  1.0873
  337MOL   C10141093   6.594   6.377   1.697 -0.8441  0.0685  0.2873
  337MOL   H10241094   6.519   6.322   1.754 -3.8912  0.3221 -3.2582
  337MOL   H10341095   6.673   6.302   1.688 -0.8111  0.0055  1.0507
  337MOL   C10441096   6.520   6.412   1.559 -0.1903  0.0365 -0.6762
  337MOL   F10541097   6.613   6.452   1.472  0.6670  0.5262  0.0601
  337MOL   F10641098   6.476   6.298   1.514 -0.3782 -0.0153  0.4634
  337MOL   C10741099   6.404   6.513   1.586  0.4155  0.0726  0.0214
  337MOL   H10841100   6.442   6.612   1.611  0.9448 -0.5054  1.6206
  337MOL   H10941101   6.351   6.489   1.679  2.1110 -0.9860  0.7492
  337MOL   C11041102   6.302   6.535   1.473 -0.0481  0.9106  0.5853
  337MOL   F11141103   6.361   6.559   1.353  0.5645 -0.3419 -0.4292
  337MOL   F11241104   6.243   6.417   1.458  1.1183 -0.1576  0.2830
  337MOL   C11341105   6.203   6.647   1.499  0.1924 -0.9215 -0.1921
  337MOL   H11441106   6.151   6.669   1.406  0.7624  2.8171  0.2985
  337MOL   H11541107   6.267   6.732   1.519 -0.7631  0.0946 -1.3668
  337MOL   C11641108   6.083   6.636   1.601 -0.2857  0.9136 -0.6310
  337MOL   F11741109   6.011   6.528   1.564  0.1554 -0.5993 -0.2726
  337MOL   F11841110   6.121   6.616   1.727 -0.3131 -0.1416 -0.3229
  337MOL   C11941111   5.980   6.744   1.607 -0.2017  0.0102 -0.1188
  337MOL   H12041112   5.922   6.740   1.514  1.5604  0.8961 -1.2944
  337MOL   H12141113   6.035   6.837   1.618 -0.8711  0.5090 -0.9040
  337MOL   H12241114   5.905   6.732   1.685  0.0452  3.0630  0.6389
  338MOL     C141115   1.562   1.757   5.185 -0.0228 -0.3875 -1.1678
  338MOL     F241116   1.686   1.754   5.169  0.3002 -0.4169  0.2356
  338MOL     F341117   1.516   1.842   5.097  0.3491  0.0152 -0.4657
  338MOL     C441118   1.524   1.800   5.325  0.0870  0.6759 -0.2329
  338MOL     H541119   1.426   1.846   5.320  0.4096  1.3688 -0.1875
  338MOL     H641120   1.605   1.862   5.365  0.3582  1.4767 -1.9828
  338MOL     H741121   1.508   1.673   5.140 -0.1481  0.2631 -2.2686
  338MOL     C841122   1.512   1.681   5.427 -0.2775 -0.4129 -0.3594
  338MOL     F941123   1.421   1.602   5.376  0.0529  0.0083 -0.5453
  338MOL    F1041124   1.624   1.606   5.426  0.2937  0.4506  0.2319
  338MOL    C1141125   1.477   1.726   5.570  0.5479  0.1289 -0.1157
  338MOL    H1241126   1.562   1.786   5.604 -0.7790  2.7850 -1.3361
  338MOL    H1341127   1.475   1.641   5.639 -0.4622 -1.6549 -2.3106
  338MOL    C1441128   1.347   1.802   5.596  0.5287  0.4116  0.2512
  338MOL    F1541129   1.340   1.919   5.533 -0.0289  0.1882 -0.0503
  338MOL    F1641130   1.255   1.723   5.540  0.2902  0.3175  0.4353
  338MOL    C1741131   1.308   1.809   5.741  0.3858  0.2435 -0.0736
  338MOL    H1841132   1.305   1.708   5.782 -1.3727  0.5035  0.4947
  338MOL    H1941133   1.213   1.863   5.752  1.4578  2.4757 -1.3570
  338MOL    C2041134   1.395   1.901   5.825  0.5515 -0.1607  0.3932
  338MOL    F2141135   1.509   1.839   5.855 -0.7784 -0.3408  0.3754
  338MOL    F2241136   1.432   2.011   5.761  0.4816 -0.0218 -0.1596
  338MOL    C2341137   1.337   1.950   5.956  0.5222  0.8179 -0.0179
  338MOL    H2441138   1.254   2.016   5.930  0.2537  0.5273  0.0948
  338MOL    H2541139   1.410   2.013   6.006  2.8567 -1.9482  0.1883
  338MOL    C2641140   1.272   1.847   6.057  0.1771 -0.5516  0.2141
  338MOL    F2741141   1.156   1.797   6.004 -0.2899 -0.2429 -0.3862
  338MOL    F2841142   1.353   1.746   6.079 -0.7597 -0.1410 -0.5487
  338MOL    C2941143   1.240   1.911   6.198 -0.6654  0.0808 -0.1720
  338MOL    H3041144   1.332   1.924   6.255  0.7222  3.1284 -2.9323
  338MOL    H3141145   1.181   1.836   6.250 -0.1826  2.2883  3.7286
  338MOL    C3241146   1.153   2.033   6.201 -0.0793  0.2034  0.1359
  338MOL    F3341147   1.207   2.133   6.120 -0.2252  0.1084 -0.2967
  338MOL    F3441148   1.036   1.997   6.151  0.7131 -0.2532  0.0332
  338MOL    C3541149   1.140   2.096   6.345 -0.1813 -0.1537  0.6938
  338MOL    H3641150   1.237   2.118   6.388 -0.5411  1.3611  0.7779
  338MOL    H3741151   1.108   2.020   6.416 -0.5057  0.8678  1.6562
  338MOL    C3841152   1.041   2.215   6.365 -0.4553  0.2285  0.3211
  338MOL    F3941153   0.921   2.177   6.327 -0.3012 -0.1853  0.0031
  338MOL    F4041154   1.030   2.226   6.497 -0.4890  0.3885  0.6802
  338MOL    C4141155   1.074   2.347   6.291  0.6794  0.0342 -0.3620
  338MOL    H4241156   1.020   2.434   6.328  2.9980  1.2148  0.2966
  338MOL    H4341157   1.046   2.331   6.186 -0.8480  1.0359 -0.1315
  338MOL    C4441158   1.217   2.411   6.299  0.2335 -0.1783  0.3160
  338MOL    F4541159   1.306   2.334   6.236  0.0557 -0.3696  0.3748
  338MOL    F4641160   1.210   2.523   6.229 -0.3925 -0.4756 -0.1265
  338MOL    C4741161   1.268   2.447   6.442  0.3078  0.1788 -0.1325
  338MOL    H4841162   1.372   2.477   6.434 -0.7408  3.5591 -2.3137
  338MOL    H4941163   1.269   2.354   6.500 -0.9600 -0.7855 -1.6320
  338MOL    C5041164   1.188   2.547   6.530  0.0871  0.6260 -0.1137
  338MOL    F5141165   1.169   2.655   6.461  0.1824 -0.1836  0.0333
  338MOL    F5241166   1.069   2.496   6.562 -0.3130 -0.3238  0.6591
  338MOL    C5341167   1.252   2.597   6.672 -0.1281 -0.7706 -0.0281
  338MOL    H5441168   1.211   2.690   6.711  0.7516 -0.8780  1.1835
  338MOL    H5541169   1.359   2.604   6.654 -0.2932  1.6116 -0.3138
  338MOL    C5641170   1.240   2.494   6.786 -0.2147 -0.5080 -0.4578
  338MOL    F5741171   1.117   2.486   6.828 -0.1241  0.2147  0.1940
  338MOL    F5841172   1.275   2.379   6.732 -0.3758  0.5633  0.1746
  338MOL    C5941173   1.334   2.527   6.902 -0.1498 -0.0906  0.6295
  338MOL    H6041174   1.307   2.625   6.940 -0.1292 -0.4223  1.5173
  338MOL    H6141175   1.434   2.538   6.860 -0.9232  1.1663 -0.9394
  338MOL    C6241176   1.324   2.422   7.013  0.4290  0.1606 -0.7076
  338MOL    F6341177   1.199   2.431   7.059  0.0589 -0.1944 -0.7235
  338MOL    F6441178   1.331   2.298   6.974 -0.6395 -0.0067 -0.3164
  338MOL    C6541179   1.422   2.441   7.133  0.0750  0.3206 -0.2513
  338MOL    H6641180   1.390   2.368   7.207  0.6113  1.3127  0.9836
  338MOL    H6741181   1.398   2.534   7.186 -0.9060 -0.5211  0.8081
  338MOL    C6841182   1.566   2.444   7.089  0.5586 -0.5246 -0.2335
  338MOL    F6941183   1.584   2.363   6.986 -0.4919 -0.5707 -1.0591
  338MOL    F7041184   1.605   2.565   7.048 -0.4042 -0.0572  0.0412
  338MOL    C7141185   1.673   2.393   7.199  0.1548 -0.2155 -0.2180
  338MOL    H7241186   1.664   2.466   7.280 -1.2474  0.9736 -1.3933
  338MOL    H7341187   1.770   2.401   7.151  0.4334 -0.2393  0.3351
  338MOL    C7441188   1.648   2.248   7.250 -0.4588 -0.5162 -0.3441
  338MOL    F7541189   1.539   2.229   7.323 -0.1061  0.3093 -0.8803
  338MOL    F7641190   1.642   2.167   7.152 -0.3630 -0.5668 -0.1889
  338MOL    C7741191   1.776   2.191   7.313 -0.2559 -0.1782 -0.0774
  338MOL    H7841192   1.861   2.184   7.246  0.7092  0.3370  1.0826
  338MOL    H7941193   1.760   2.091   7.353 -1.9285  0.4803  0.9706
  338MOL    C8041194   1.825   2.277   7.437  0.2152 -0.1899  0.5530
  338MOL    F8141195   1.864   2.396   7.391 -0.4462 -0.2748  0.4396
  338MOL    F8241196   1.721   2.290   7.521 -0.0047  0.4399 -0.7267
  338MOL    C8341197   1.943   2.202   7.504 -0.7394 -0.2893  0.2540
  338MOL    H8441198   2.031   2.223   7.443 -2.1865 -1.2748 -2.2525
  338MOL    H8541199   1.926   2.095   7.506 -2.2949 -0.0742 -0.6261
  338MOL    C8641200   1.977   2.242   7.653 -0.0217  0.6908  0.1539
  338MOL    F8741201   1.994   2.375   7.658 -0.1408 -0.1095  0.4103
  338MOL    F8841202   1.873   2.211   7.733  0.3394  0.1317  0.5669
  338MOL    C8941203   2.117   2.186   7.704 -0.0697  0.0898 -0.0054
  338MOL    H9041204   2.193   2.227   7.638 -0.4626  0.9716  0.0814
  338MOL    H9141205   2.113   2.077   7.692  1.0143 -0.0317  0.6971
  338MOL    C9241206   2.154   2.219   7.854 -0.0953  0.0287  0.9528
  338MOL    F9341207   2.286   2.180   7.861  0.1882 -0.2701 -0.2754
  338MOL    F9441208   2.146   2.352   7.878  0.2234  0.7000  0.2179
  338MOL    C9541209   2.075   2.142   7.958  0.7115 -0.3666 -0.0345
  338MOL    H9641210   2.083   2.036   7.935  1.0404 -0.4121  0.2707
  338MOL    H9741211   1.969   2.157   7.940 -0.1134 -3.1344  2.1760
  338MOL    C9841212   2.112   2.155   8.104  0.6081 -0.1517 -0.0522
  338MOL    F9941213   2.244   2.119   8.115 -0.3299 -0.3864  0.4436
  338MOL   F10041214   2.098   2.279   8.149 -0.6603 -0.4238  0.1515
  338MOL   C10141215   2.020   2.064   8.192 -0.1610  0.8537  0.0762
  338MOL   H10241216   2.031   1.958   8.169 -3.0961  0.7240 -0.8832
  338MOL   H10341217   1.914   2.089   8.188 -0.4183 -0.1071  0.8154
  338MOL   C10441218   2.044   2.082   8.345 -0.2917 -0.3690 -0.0098
  338MOL   F10541219   2.013   2.201   0.043  0.4131 -0.4409  0.5464
  338MOL   F10641220   1.952   2.007   0.061  0.7194  0.4891 -0.0222
  338MOL   C10741221   2.193   2.048   0.043  0.2583 -0.3875  0.2860
  338MOL   H10841222   2.258   2.117   8.339 -0.1873  0.9098  1.3499
  338MOL   H10941223   2.218   1.946   0.016 -0.8811 -0.7643  0.6308
  338MOL   C11041224   2.218   2.076   0.188  0.7593 -0.1133 -0.4334
  338MOL   F11141225   2.344   2.042   0.206 -0.1270 -0.1285 -0.2447
  338MOL   F11241226   2.207   2.207   0.217 -0.5889  0.2624 -0.4082
  338MOL   C11341227   2.136   1.995   0.282  0.2295  1.1539 -0.0301
  338MOL   H11441228   2.147   1.889   0.258  1.3920  0.8548  1.6689
  338MOL   H11541229   2.029   2.009   0.272  0.3384  0.3499 -2.4650
  338MOL   C11641230   2.168   2.015   0.425 -0.3716  0.7703 -0.2063
  338MOL   F11741231   2.299   1.997   0.450 -0.2624 -0.4678  0.4254
  338MOL   F11841232   2.133   2.139   0.470  0.0013 -0.0306  0.3142
  338MOL   C11941233   2.098   1.913   0.509 -0.1132 -0.0557 -0.2150
  338MOL   H12041234   1.989   1.913   0.507 -0.1381 -1.5614  0.4156
  338MOL   H12141235   2.134   1.940   0.609 -0.0955  0.2755 -0.3083
  338MOL   H12241236   2.121   1.810   0.482  1.0339 -0.3305  1.7107
  339MOL     C141237   5.331   1.922   8.293 -0.6835 -0.2649  0.4810
  339MOL     F241238   5.421   2.000   8.231  0.0885 -0.0973 -0.0242
  339MOL     F341239   5.320   1.977   0.066 -0.1720 -0.0418  0.0772
  339MOL     C441240   5.386   1.778   8.320  0.3994 -0.0310 -0.5553
  339MOL     H541241   5.471   1.780   0.038  0.7226  0.1920 -0.9669
  339MOL     H641242   5.433   1.749   8.226 -1.4771  0.1437 -1.5840
  339MOL     H741243   5.241   1.917   8.232 -0.0097  0.5015 -0.5772
  339MOL     C841244   5.278   1.679   0.004  0.2615 -0.6342 -0.5356
  339MOL     F941245   5.212   1.718   0.110 -0.3056 -0.7214  0.3173
  339MOL    F1041246   5.200   1.676   8.243 -0.2480  0.2503 -0.8056
  339MOL    C1141247   5.327   1.530   0.033  0.0822  0.3078 -0.2622
  339MOL    H1241248   5.399   1.532   0.114 -1.1705 -2.4560  0.9621
  339MOL    H1341249   5.381   1.502   8.292  1.2408 -1.4254  0.9352
  339MOL    C1441250   5.213   1.426   0.065 -0.2054  0.3809 -0.5327
  339MOL    F1541251   5.267   1.317   0.108 -0.0494 -0.0142 -0.2647
  339MOL    F1641252   5.128   1.479   0.152 -0.1312 -0.2132  0.3423
  339MOL    C1741253   5.120   1.393   8.294 -0.2129 -0.1010  0.5329
  339MOL    H1841254   5.082   1.482   8.243  1.5682  1.4251  1.7958
  339MOL    H1941255   5.039   1.330   8.331  0.0071 -0.1640  0.9192
  339MOL    C2041256   5.186   1.319   8.178 -0.3085 -0.5704 -0.0234
  339MOL    F2141257   5.275   1.397   8.116 -0.6702 -1.1344  0.1491
  339MOL    F2241258   5.246   1.208   8.224 -0.2420 -0.2761 -0.0934
  339MOL    C2341259   5.082   1.284   8.061 -0.2027  0.5284  0.3716
  339MOL    H2441260   5.032   1.189   8.082 -1.3256  1.0436  0.0389
  339MOL    H2541261   5.146   1.263   7.974  2.5657 -1.3189  2.7499
  339MOL    C2641262   4.980   1.391   8.023  0.4797  0.0046  0.3317
  339MOL    F2741263   4.902   1.331   7.934  0.5350 -0.3683 -0.0297
  339MOL    F2841264   4.904   1.404   8.125  0.0005 -0.1415 -0.3779
  339MOL    C2941265   5.043   1.523   7.965  0.4600  0.0172 -1.0186
  339MOL    H3041266   5.083   1.490   7.869  1.0000 -0.5934 -0.5901
  339MOL    H3141267   5.128   1.560   8.023  1.4018 -2.3845 -0.8049
  339MOL    C3241268   4.948   1.636   7.926 -0.1259 -0.0932 -0.0515
  339MOL    F3341269   4.907   1.696   8.036 -0.1743 -0.4287  0.3143
  339MOL    F3441270   5.006   1.729   7.851 -0.1479  0.1757 -0.2992
  339MOL    C3541271   4.830   1.587   7.843 -1.0788 -0.4220  0.6619
  339MOL    H3641272   4.760   1.521   7.895 -3.3517  1.3495 -0.0255
  339MOL    H3741273   4.871   1.545   7.752  1.1648  1.1878  0.8772
  339MOL    C3841274   4.723   1.704   7.808  0.2452 -0.0156 -0.7137
  339MOL    F3941275   4.758   1.795   7.715  0.3332 -0.2956  0.2052
  339MOL    F4041276   4.627   1.641   7.750  0.0981  0.5413 -0.3778
  339MOL    C4141277   4.672   1.767   7.939 -0.1268 -0.0250 -0.1907
  339MOL    H4241278   4.753   1.830   7.978 -0.0211 -0.4207  0.2356
  339MOL    H4341279   4.658   1.696   8.020  0.8043 -0.0181 -0.0189
  339MOL    C4441280   4.549   1.851   7.911 -0.3284 -0.3337  0.3303
  339MOL    F4541281   4.582   1.944   7.816  0.2738 -0.0588 -0.0619
  339MOL    F4641282   4.459   1.757   7.868 -0.0827  0.3521 -0.2265
  339MOL    C4741283   4.475   1.924   8.025 -0.5507  0.3815  0.2175
  339MOL    H4841284   4.459   1.840   8.094 -1.2913 -1.2774 -1.9265
  339MOL    H4941285   4.378   1.954   7.987 -1.0971 -0.1704  1.1494
  339MOL    C5041286   4.544   2.043   8.101 -0.2218 -0.2167 -0.4311
  339MOL    F5141287   4.487   2.071   8.213 -0.3519  0.0701 -0.2894
  339MOL    F5241288   4.666   1.997   8.138  0.1569 -0.2036  0.2531
  339MOL    C5341289   4.578   2.176   8.034  0.4162 -0.3360 -0.0136
  339MOL    H5441290   4.658   2.160   7.961  1.5346  4.1932  0.1057
  339MOL    H5541291   4.614   2.242   8.113 -0.5497 -1.3386  1.2827
  339MOL    C5641292   4.459   2.245   7.970  0.2834 -0.2024 -0.7361
  339MOL    F5741293   4.410   2.178   7.859 -0.0775  0.0344  0.1492
  339MOL    F5841294   4.351   2.243   8.046  0.2721 -0.2618  0.0590
  339MOL    C5941295   4.481   2.392   7.922  0.9375 -0.8943 -0.1536
  339MOL    H6041296   4.493   2.462   8.004 -1.8717  2.8941 -2.8185
  339MOL    H6141297   4.388   2.414   7.870  0.7760  0.9584  0.8856
  339MOL    C6241298   4.604   2.419   7.826 -0.4930  0.3336  0.1506
  339MOL    F6341299   4.712   2.406   7.904  0.1681 -0.6054  0.3172
  339MOL    F6441300   4.602   2.338   7.716  0.2137 -0.3454 -0.5358
  339MOL    C6541301   4.608   2.566   7.784 -0.0914 -0.0047 -0.0967
  339MOL    H6641302   4.614   2.620   7.878 -0.3780  1.7173 -1.0403
  339MOL    H6741303   4.513   2.590   7.736  0.2042  4.2191  1.2144
  339MOL    C6841304   4.733   2.623   7.706 -0.8410 -0.0328 -0.3541
  339MOL    F6941305   4.700   2.749   7.674  0.4732  0.1494  0.3415
  339MOL    F7041306   4.846   2.613   7.779 -0.0334  0.3993 -0.5203
  339MOL    C7141307   4.777   2.547   7.573 -0.5566  0.0699  0.8269
  339MOL    H7241308   4.689   2.545   7.509  0.6269  0.7377 -0.8339
  339MOL    H7341309   4.792   2.445   7.611  0.2158 -0.0767  0.1134
  339MOL    C7441310   4.893   2.602   7.491 -0.3838  1.0353  0.0796
  339MOL    F7541311   4.870   2.557   7.364 -0.3841 -0.3701 -0.8477
  339MOL    F7641312   4.890   2.732   7.479 -0.2810 -0.2438 -0.0222
  339MOL    C7741313   5.041   2.567   7.542 -0.3280  0.0707  0.5459
  339MOL    H7841314   5.053   2.461   7.565  1.1660  0.4889  1.8390
  339MOL    H7941315   5.031   2.600   7.646 -0.6235  2.5980 -0.2589
  339MOL    C8041316   5.153   2.619   7.461  0.1868  0.4409 -0.3471
  339MOL    F8141317   5.141   2.576   7.333  0.3187  0.3600 -0.2191
  339MOL    F8241318   5.154   2.751   7.461  0.2825 -0.2330  0.5853
  339MOL    C8341319   5.288   2.585   7.534  0.2130  0.3779  0.4694
  339MOL    H8441320   5.353   2.644   7.469 -1.2438  1.3238 -0.1635
  339MOL    H8541321   5.321   2.483   7.514  0.2652  1.1694 -4.1747
  339MOL    C8641322   5.294   2.624   7.684 -0.2894 -0.0528 -0.3551
  339MOL    F8741323   5.229   2.746   7.705 -0.5316  0.1153 -0.0678
  339MOL    F8841324   5.229   2.538   7.761  0.4094 -0.3770  0.0873
  339MOL    C8941325   5.435   2.657   7.733  1.3512 -0.4646  0.4170
  339MOL    H9041326   5.423   2.714   7.825  0.8601 -2.4075  1.5883
  339MOL    H9141327   5.478   2.727   7.662  0.1194 -0.0590  0.0566
  339MOL    C9241328   5.520   2.533   7.764 -0.0911 -0.5319 -0.4355
  339MOL    F9341329   5.460   2.459   7.859 -0.0868  0.3599 -0.4246
  339MOL    F9441330   5.527   2.466   7.652  0.4106 -0.2789 -0.1467
  339MOL    C9541331   5.660   2.568   7.817 -0.4359  0.4817 -0.9625
  339MOL    H9641332   5.649   2.629   7.907 -0.2871 -0.3723 -0.3663
  339MOL    H9741333   5.704   2.634   7.741 -1.8909  0.6444 -1.6808
  339MOL    C9841334   5.756   2.449   7.850 -0.0393  0.0558 -0.5278
  339MOL    F9941335   5.699   2.357   7.935  0.1001 -0.1362 -0.4795
  339MOL   F10041336   5.772   2.388   7.734  0.0973 -0.0675 -0.2347
  339MOL   C10141337   5.898   2.493   7.906  0.2093  0.3504 -0.5562
  339MOL   H10241338   5.883   2.512   8.013 -1.3966 -2.8720 -0.1350
  339MOL   H10341339   5.932   2.582   7.854 -0.7201 -0.3411 -2.3967
  339MOL   C10441340   6.008   2.385   7.907  0.3131 -0.4076  0.5216
  339MOL   F10541341   5.971   2.293   7.996  0.8969 -0.4179  0.4504
  339MOL   F10641342   6.017   2.334   7.786 -0.0458 -0.0350  0.2517
  339MOL   C10741343   6.138   2.449   7.944  0.5872 -0.4166  0.0256
  339MOL   H10841344   6.128   2.498   8.041 -0.2486 -1.7779  0.6352
  339MOL   H10941345   6.158   2.535   7.880  2.1552 -1.8373 -1.4614
  339MOL   C11041346   6.255   2.348   7.955  0.3618  0.6430  0.8382
  339MOL   F11141347   6.244   2.273   8.062 -0.2187 -0.0018  0.3510
  339MOL   F11241348   6.276   2.277   7.847 -0.0628 -0.2833  0.2614
  339MOL   C11341349   6.390   2.415   7.964  0.6688 -0.0098  0.3438
  339MOL   H11441350   6.406   2.461   7.867 -1.0244 -1.1277 -0.4775
  339MOL   H11541351   6.466   2.337   7.956 -0.8188 -1.6101  1.4400
  339MOL   C11641352   6.420   2.519   8.075 -0.7437 -0.5569  0.3730
  339MOL   F11741353   6.349   2.632   8.065 -0.0136  0.1656  0.0848
  339MOL   F11841354   6.391   2.460   8.191 -0.3075 -0.2087  0.1264
  339MOL   C11941355   6.569   2.561   8.081  0.1951 -0.3936 -0.0763
  339MOL   H12041356   6.625   2.474   8.117 -0.2706  0.2500  2.3297
  339MOL   H12141357   6.580   2.639   8.156  0.4985 -1.6319  1.1958
  339MOL   H12241358   6.617   2.604   7.994 -1.1453 -1.8381 -1.5545
  340MOL     C141359   6.987   4.403   7.810  0.0452 -0.8594  0.3351
  340MOL     F241360   7.055   4.391   7.930  1.0573  0.0725 -0.0798
  340MOL     F341361   6.899   4.503   7.808 -0.2992 -0.1135  0.5070
  340MOL     C441362   6.924   4.259   7.774 -0.1594 -0.2452  0.4270
  340MOL     H541363   6.870   4.272   7.680  0.2859 -1.7248 -0.0483
  340MOL     H641364   6.860   4.220   7.853  0.3441 -1.0628  0.4404
  340MOL     H741365   7.066   4.437   7.743 -1.0337 -2.7311 -1.9536
  340MOL     C841366   7.027   4.150   7.750 -0.1337  0.2659 -0.3073
  340MOL     F941367   7.084   4.195   7.632 -0.1490  0.4781 -0.5231
  340MOL    F1041368   7.118   4.163   7.846 -0.2206  0.1608  0.2431
  340MOL    C1141369   6.982   4.007   7.730 -0.1058  0.1092  0.4141
  340MOL    H1241370   7.062   3.949   7.684  0.3498 -0.1654  1.5444
  340MOL    H1341371   6.901   4.017   7.658 -0.4615 -2.4669  0.3927
  340MOL    C1441372   6.923   3.944   7.859  1.0799 -0.4538  0.4743
  340MOL    F1541373   7.009   3.965   7.964 -0.5440 -0.4687 -0.1336
  340MOL    F1641374   6.806   3.998   7.889 -0.1881  0.8252  0.0381
  340MOL    C1741375   6.894   3.795   7.837 -1.0264 -0.3286  0.7750
  340MOL    H1841376   6.978   3.751   7.784 -0.7545  0.2520  0.7084
  340MOL    H1941377   6.821   3.788   7.757 -1.3757  0.1150  1.0482
  340MOL    C2041378   6.842   3.722   7.965  0.6435  0.4474  0.2773
  340MOL    F2141379   6.740   3.780   8.024 -0.3573  0.2562 -0.4793
  340MOL    F2241380   6.803   3.600   7.931  0.1357 -0.7133  0.7488
  340MOL    C2341381   6.955   3.704   8.073  0.0143 -0.0799  0.7352
  340MOL    H2441382   6.982   3.800   8.116  2.0600  1.0726 -2.9204
  340MOL    H2541383   7.041   3.663   8.021  0.0539 -0.5881  1.1956
  340MOL    C2641384   6.918   3.603   8.187  0.0661 -0.3621 -0.0464
  340MOL    F2741385   6.899   3.482   8.136  0.2249  0.7156  0.3024
  340MOL    F2841386   7.035   3.598   8.251 -0.3978  0.2717 -0.7854
  340MOL    C2941387   6.800   3.625   8.283 -0.6074  0.1216  0.4927
  340MOL    H3041388   6.778   3.541   8.349  0.1990 -1.2737 -0.9926
  340MOL    H3141389   6.711   3.645   8.224  1.2627  1.9790 -1.7946
  340MOL    C3241390   6.832   3.742   0.035  0.0792 -0.5324 -0.2327
  340MOL    F3341391   6.950   3.724   0.094  0.5160 -0.1573 -0.6393
  340MOL    F3441392   6.844   3.852   8.311 -0.0762  0.0904  0.4702
  340MOL    C3541393   6.722   3.756   0.146  0.1313  0.4293 -0.2398
  340MOL    H3641394   6.716   3.658   0.193 -2.2993  0.7536  0.1760
  340MOL    H3741395   6.625   3.778   0.102  0.1730  0.1630 -0.4657
  340MOL    C3841396   6.750   3.862   0.260 -0.0893 -0.1170  0.1576
  340MOL    F3941397   6.866   3.845   0.325  0.3340 -0.1570  0.3030
  340MOL    F4041398   6.752   3.984   0.217  0.1867 -0.1548 -0.0369
  340MOL    C4141399   6.654   3.854   0.379  0.0002  0.1389  0.8905
  340MOL    H4241400   6.706   3.900   0.463  1.6919 -1.8933  0.9905
  340MOL    H4341401   6.646   3.746   0.395  0.7153 -0.1324 -0.4939
  340MOL    C4441402   6.512   3.910   0.366  0.0089 -0.6603  0.8458
  340MOL    F4541403   6.464   3.869   0.248 -0.9560  0.8433 -0.1500
  340MOL    F4641404   6.424   3.863   0.456 -0.1839  0.4559 -0.2164
  340MOL    C4741405   6.499   4.063   0.378 -0.4988 -0.2464 -0.1186
  340MOL    H4841406   6.575   4.115   0.320 -0.9934  1.8419  1.0446
  340MOL    H4941407   6.532   4.078   0.481  0.9014  1.2830 -0.7749
  340MOL    C5041408   6.361   4.121   0.377 -0.4548 -0.5577  0.1197
  340MOL    F5141409   6.306   4.111   0.257  0.3844 -0.6295 -0.3643
  340MOL    F5241410   6.281   4.064   0.471 -0.0978  0.1861  0.0121
  340MOL    C5341411   6.377   4.273   0.424  0.5324  0.7136  0.7271
  340MOL    H5441412   6.432   4.324   0.345 -0.9326 -0.0721 -0.8080
  340MOL    H5541413   6.431   4.280   0.519  2.8174 -1.7242 -0.3129
  340MOL    C5641414   6.253   4.361   0.437 -0.0011  0.5101  0.4480
  340MOL    F5741415   6.303   4.484   0.459  0.0540  0.1043  0.1896
  340MOL    F5841416   6.177   4.375   0.323  0.6807 -0.1153  0.6791
  340MOL    C5941417   6.171   4.311   0.557 -0.5966  0.5611  0.4300
  340MOL    H6041418   6.241   4.294   0.639  3.6150  2.2585 -2.6374
  340MOL    H6141419   6.126   4.214   0.536 -1.9732  1.6125 -1.6050
  340MOL    C6241420   6.054   4.404   0.606  0.4882  0.2497 -0.7546
  340MOL    F6341421   6.096   4.526   0.614  0.2768  0.0130 -0.1396
  340MOL    F6441422   5.954   4.411   0.519  0.3855 -0.4853  0.5643
  340MOL    C6541423   5.998   4.368   0.745  0.4847 -0.4881  0.2211
  340MOL    H6641424   5.914   4.436   0.758  0.7354  0.6362 -3.4942
  340MOL    H6741425   6.072   4.394   0.821  2.6779 -1.8404 -1.3936
  340MOL    C6841426   5.961   4.217   0.778  0.5901 -0.6936  0.1526
  340MOL    F6941427   6.069   4.140   0.766  0.2900  0.5007 -0.0909
  340MOL    F7041428   5.929   4.221   0.908 -0.0603  0.1892  0.4876
  340MOL    C7141429   5.850   4.146   0.698  0.9869  0.2043  0.1395
  340MOL    H7241430   5.840   4.041   0.724  1.7066 -0.0875 -0.7328
  340MOL    H7341431   5.880   4.141   0.594 -0.9017 -0.9825 -0.3601
  340MOL    C7441432   5.701   4.192   0.701 -1.5584  0.2429 -0.0029
  340MOL    F7541433   5.692   4.316   0.650 -0.0361  0.4831  0.0093
  340MOL    F7641434   5.643   4.107   0.616 -0.1698  0.3330 -0.3887
  340MOL    C7741435   5.650   4.175   0.847 -1.1870  0.3094 -0.3691
  340MOL    H7841436   5.701   4.261   0.892  2.3394 -1.2851 -1.1991
  340MOL    H7941437   5.684   4.084   0.896 -1.2015  1.1052  1.1502
  340MOL    C8041438   5.495   4.194   0.871  0.3467 -1.1089  0.3355
  340MOL    F8141439   5.470   4.186   0.999  1.1765  0.0500  0.6728
  340MOL    F8241440   5.462   4.320   0.835  0.0077 -0.0879  0.1023
  340MOL    C8341441   5.393   4.098   0.795 -0.2002  0.0126  0.8716
  340MOL    H8441442   5.427   3.998   0.821 -0.2636 -0.5206 -1.0648
  340MOL    H8541443   5.413   4.116   0.690 -0.1502 -2.2155  0.4949
  340MOL    C8641444   5.237   4.124   0.819 -1.2030 -0.6302  0.1148
  340MOL    F8741445   5.206   4.134   0.947  0.3666  0.1729 -0.4530
  340MOL    F8841446   5.191   4.228   0.749 -0.1066 -0.1189  0.3357
  340MOL    C8941447   5.168   4.005   0.753  0.1180 -0.5654 -0.2464
  340MOL    H9041448   5.205   3.908   0.788 -1.1835 -0.0555  2.7650
  340MOL    H9141449   5.173   4.005   0.645  0.1325 -0.2246 -0.2460
  340MOL    C9241450   5.015   3.980   0.771 -0.7089 -0.0785  0.1498
  340MOL    F9341451   4.984   3.867   0.706  0.3508 -0.0363 -0.3922
  340MOL    F9441452   4.996   3.956   0.898  0.1400  0.0919 -0.1231
  340MOL    C9541453   4.921   4.101   0.724  0.2053 -0.4976  0.4844
  340MOL    H9641454   4.953   4.092   0.620 -2.0341 -1.1576 -0.1904
  340MOL    H9741455   4.958   4.194   0.765  0.5701 -0.0257 -0.8819
  340MOL    C9841456   4.765   4.084   0.746  0.4680 -0.7763 -0.6005
  340MOL    F9941457   4.692   4.174   0.677 -0.2322 -0.4202 -0.2633
  340MOL   F10041458   4.724   3.966   0.706 -0.0576  0.3683 -0.5324
  340MOL   C10141459   4.721   4.092   0.891  0.4247  0.1684  0.7759
  340MOL   H10241460   4.778   4.022   0.952  0.7691 -0.6344 -0.4422
  340MOL   H10341461   4.615   4.066   0.890 -0.3174  2.9406  0.7196
  340MOL   C10441462   4.727   4.228   0.970  0.2453  0.1368  0.0951
  340MOL   F10541463   4.850   4.267   0.976  0.5941  0.3947  0.1938
  340MOL   F10641464   4.653   4.312   0.901 -0.0488 -0.0850  0.2635
  340MOL   C10741465   4.669   4.209   1.110  0.3673 -0.0671 -0.1343
  340MOL   H10841466   4.668   4.310   1.150 -1.2309  0.0430 -0.4170
  340MOL   H10941467   4.736   4.145   1.168  0.9632  0.0538 -0.6835
  340MOL   C11041468   4.525   4.149   1.129 -0.8625  0.1173 -0.3359
  340MOL   F11141469   4.441   4.208   1.043 -0.0496  0.3216  0.3018
  340MOL   F11241470   4.522   4.019   1.090 -0.0875 -0.0816  0.4106
  340MOL   C11341471   4.461   4.184   1.265  0.1386  0.3161 -0.0608
  340MOL   H11441472   4.352   4.181   1.256  0.0236  1.9642  0.7727
  340MOL   H11541473   4.490   4.287   1.285  1.0161  0.0869 -0.1311
  340MOL   C11641474   4.503   4.097   1.392  0.0868  0.5918  0.4119
  340MOL   F11741475   4.452   3.974   1.387  0.0637  0.0491 -0.2466
  340MOL   F11841476   4.637   4.099   1.406 -0.2386 -0.1259 -0.3153
  340MOL   C11941477   4.453   4.158   1.524  0.2452  0.1292  0.0087
  340MOL   H12041478   4.517   4.127   1.606  0.4487  1.0057  0.1878
  340MOL   H12141479   4.354   4.116   1.543  0.1803 -0.2415 -1.1206
  340MOL   H12241480   4.455   4.267   1.527  1.1267  0.0785  1.7074
  341MOL     C141481   0.265   1.631   6.355  0.2904 -0.1098  0.1702
  341MOL     F241482   0.229   1.733   6.435 -0.0254  0.0126 -0.3647
  341MOL     F341483   0.193   1.638   6.246  0.1526 -0.5647 -0.1430
  341MOL     C441484   0.255   1.495   6.422  0.4102  0.2413 -1.0778
  341MOL     H541485   0.282   1.415   6.352  0.4399  0.5240 -1.3909
  341MOL     H641486   0.152   1.482   6.453  1.3920 -0.6534  2.0194
  341MOL     H741487   0.366   1.640   6.316 -0.0532 -1.5020 -1.0849
  341MOL     C841488   0.352   1.491   6.544  0.1344  0.2482 -0.1018
  341MOL     F941489   0.342   1.363   6.596 -0.2419  0.1503  0.2225
  341MOL    F1041490   0.471   1.507   6.490  0.0827 -0.1946 -0.1251
  341MOL    C1141491   0.308   1.583   6.663 -0.2419  0.5203 -0.3716
  341MOL    H1241492   0.201   1.590   6.681 -0.2001  0.3334 -0.0602
  341MOL    H1341493   0.344   1.677   6.622  3.7055 -0.7952 -0.1379
  341MOL    C1441494   0.382   1.558   6.797  0.3785  0.1880 -0.1319
  341MOL    F1541495   0.369   1.431   6.839  0.2591 -0.0697  0.3290
  341MOL    F1641496   0.509   1.579   6.770 -0.1881 -0.0350  0.1889
  341MOL    C1741497   0.320   1.635   6.922  0.1094  0.0899  0.9458
  341MOL    H1841498   0.351   1.592   7.017  0.3934 -0.0747  0.7806
  341MOL    H1941499   0.215   1.613   6.904  0.3701 -2.2977  2.1566
  341MOL    C2041500   0.356   1.786   6.922  0.3942  0.0309  0.3368
  341MOL    F2141501   0.483   1.812   6.930  0.0215  0.4238 -0.3243
  341MOL    F2241502   0.317   1.844   6.810 -0.0950  0.4438 -0.1919
  341MOL    C2341503   0.293   1.858   7.041  0.3054 -0.4742  0.2919
  341MOL    H2441504   0.331   1.816   7.134 -1.5088  0.6714  1.5667
  341MOL    H2541505   0.186   1.836   7.039 -0.2457  2.0738  0.9227
  341MOL    C2641506   0.299   2.012   7.043  0.7229 -0.2780  0.4190
  341MOL    F2741507   0.422   2.059   7.036  0.4726  0.2853 -0.5632
  341MOL    F2841508   0.225   2.060   6.940 -0.2177  0.2355  0.0442
  341MOL    C2941509   0.224   2.068   7.163 -0.5029  0.0294 -0.1118
  341MOL    H3041510   0.246   2.174   7.172 -0.7052 -0.0008  0.8001
  341MOL    H3141511   0.275   2.032   7.252  0.5335  0.0974 -0.6675
  341MOL    C3241512   0.071   2.037   7.190  0.1623  0.3979 -0.4476
  341MOL    F3341513   0.056   1.903   7.208 -0.0093  0.4166  0.1270
  341MOL    F3441514   0.041   2.098   7.304  0.2881 -0.4097 -0.0817
  341MOL    C3541515   8.324   2.088   7.084 -0.3740 -0.6487 -0.0190
  341MOL    H3641516   8.228   2.038   7.098  0.1195 -2.4831 -2.6183
  341MOL    H3741517   8.344   2.030   6.993 -0.4214 -0.2923 -0.2553
  341MOL    C3841518   8.312   2.242   7.051 -1.0269  0.3591 -0.0717
  341MOL    F3941519   8.266   2.302   7.161  0.1259 -0.1699  0.2646
  341MOL    F4041520   0.082   2.292   7.036  0.8981 -0.3075 -0.3486
  341MOL    C4141521   8.208   2.251   6.936 -0.3750  0.2806 -0.4397
  341MOL    H4241522   8.124   2.182   6.952  0.5470 -0.2553  2.3613
  341MOL    H4341523   8.242   2.213   6.840 -0.6413  2.5208 -1.4397
  341MOL    C4441524   8.161   2.393   6.895 -0.2607 -0.1047 -0.1092
  341MOL    F4541525   8.267   2.470   6.853 -0.1550  0.6257  0.0595
  341MOL    F4641526   8.085   2.374   6.793 -0.2181 -0.5263  0.4288
  341MOL    C4741527   8.076   2.459   7.002  0.3468  0.0305 -0.0136
  341MOL    H4841528   8.134   2.474   7.094 -0.5076  0.9425  0.3756
  341MOL    H4941529   7.990   2.401   7.036 -0.1861  1.3737  0.9998
  341MOL    C5041530   8.019   2.593   6.956  0.3436 -0.3811  0.0176
  341MOL    F5141531   8.113   2.667   6.896  0.0847  0.3795 -0.3668
  341MOL    F5241532   7.925   2.563   6.866 -0.3887 -0.4040 -0.3235
  341MOL    C5341533   7.940   2.680   7.055 -0.5197  0.1246  0.4197
  341MOL    H5441534   8.004   2.706   7.139  0.0866 -0.2707  0.0854
  341MOL    H5541535   7.865   2.617   7.103 -0.7278 -0.0678 -0.1489
  341MOL    C5641536   7.874   2.812   7.007  0.7618  0.1560 -0.6554
  341MOL    F5741537   7.785   2.779   6.916 -0.2357  0.4148  0.0952
  341MOL    F5841538   7.809   2.857   7.110  0.7231  0.6374 -0.1021
  341MOL    C5941539   7.966   2.927   6.960 -0.0869  0.6532 -0.4863
  341MOL    H6041540   7.902   3.014   6.942 -0.1666  0.9917  1.3908
  341MOL    H6141541   8.013   2.900   6.865 -0.6319 -0.0368 -0.5634
  341MOL    C6241542   8.085   2.961   7.055  0.3018  0.1234  0.8236
  341MOL    F6341543   8.045   2.977   7.177 -0.2668  0.3344 -0.0045
  341MOL    F6441544   8.174   2.866   7.052  0.2813 -0.3521 -0.2245
  341MOL    C6541545   8.152   3.088   7.005  0.3302  0.0400 -0.2000
  341MOL    H6641546   8.087   3.169   7.038 -0.6985 -0.2152 -1.5424
  341MOL    H6741547   8.159   3.087   6.896 -0.2455 -1.2653 -0.2334
  341MOL    C6841548   8.297   3.098   7.064 -0.5209  0.0367  0.0468
  341MOL    F6941549   0.024   3.024   6.983 -0.3277 -0.1890 -0.5918
  341MOL    F7041550   8.329   3.226   7.047 -0.0003 -0.4461  0.0357
  341MOL    C7141551   8.328   3.059   7.210 -0.0744  0.0276 -0.5839
  341MOL    H7241552   8.296   2.959   7.241  1.7866 -0.0179  1.3178
  341MOL    H7341553   8.274   3.130   7.273  0.7055 -1.7066  2.1232
  341MOL    C7441554   0.120   3.085   7.267 -0.1731 -0.6156 -0.1391
  341MOL    F7541555   0.143   3.217   7.255 -0.8525  0.2312 -0.1541
  341MOL    F7641556   0.101   3.058   7.399  0.4037  0.1780 -0.0779
  341MOL    C7741557   0.235   3.009   7.190 -0.3890  0.7652 -0.4092
  341MOL    H7841558   0.239   3.038   7.085  0.1965 -2.3267 -1.2712
  341MOL    H7941559   0.211   2.904   7.201  0.0377  0.7096  0.0132
  341MOL    C8041560   0.377   3.048   7.239 -0.2158 -0.9446  0.4779
  341MOL    F8141561   0.391   3.181   7.221 -0.1948 -0.0966  0.0174
  341MOL    F8241562   0.370   3.031   7.367  0.2305  0.3646  0.8194
  341MOL    C8341563   0.489   2.975   7.164  0.2434  0.3525 -0.3200
  341MOL    H8441564   0.482   3.000   7.058  0.4545 -2.8392 -1.1424
  341MOL    H8541565   0.467   2.868   7.167 -2.0544  0.8305  1.6172
  341MOL    C8641566   0.630   3.010   7.212  0.2142 -0.0300  0.4512
  341MOL    F8741567   0.650   2.987   7.342  0.3365  0.0611  0.0935
  341MOL    F8841568   0.700   2.915   7.148  0.2721  0.5688  0.3466
  341MOL    C8941569   0.681   3.151   7.171  0.3532  0.3928  0.2030
  341MOL    H9041570   0.634   3.237   7.219  0.2820 -0.5301  1.8235
  341MOL    H9141571   0.641   3.168   7.071  1.5613  4.2475  0.2948
  341MOL    C9241572   0.835   3.170   7.169  0.1495  0.0178  0.6507
  341MOL    F9341573   0.893   3.075   7.088 -0.2570 -0.2046 -0.5779
  341MOL    F9441574   0.846   3.286   7.103 -0.2902  0.3088 -0.2937
  341MOL    C9541575   0.889   3.180   7.313 -0.6316  0.6516 -0.3643
  341MOL    H9641576   0.887   3.079   7.353 -0.7685  1.1570  0.9484
  341MOL    H9741577   0.827   3.248   7.372  1.3328 -0.8635  3.5932
  341MOL    C9841578   1.038   3.232   7.331 -0.6759 -0.9928  0.4538
  341MOL    F9941579   1.114   3.173   7.244 -0.1191  0.0731  0.3646
  341MOL   F10041580   1.046   3.363   7.301  0.0159 -0.1453  0.0678
  341MOL   C10141581   1.080   3.211   7.479 -0.0762 -0.1414  0.3729
  341MOL   H10241582   1.069   3.104   7.498  1.1908  0.0352  2.3329
  341MOL   H10341583   0.998   3.254   7.537 -0.4335  0.6868 -0.7247
  341MOL   C10441584   1.215   3.266   7.529 -0.6841  0.0713 -0.5971
  341MOL   F10541585   1.313   3.197   7.474  0.2423 -0.2481  0.1076
  341MOL   F10641586   1.221   3.395   7.494  0.7873 -0.0472 -0.0888
  341MOL   C10741587   1.224   3.259   7.682  0.1562  0.2455  0.6906
  341MOL   H10841588   1.159   3.330   7.733  0.4283 -0.4535  2.0276
  341MOL   H10941589   1.325   3.284   7.715  0.2052 -1.6484  2.0530
  341MOL   C11041590   1.203   3.121   7.748 -0.2248 -0.2050  0.7850
  341MOL   F11141591   1.076   3.084   7.756 -0.1950 -0.1819 -0.9183
  341MOL   F11241592   1.259   3.037   7.669  0.2562 -0.1282 -0.2167
  341MOL   C11341593   1.258   3.119   7.894  0.2787  0.6849 -0.5975
  341MOL   H11441594   1.190   3.172   7.960  1.3603  2.8652 -1.1809
  341MOL   H11541595   1.361   3.155   7.889 -0.0565  1.7045 -0.3327
  341MOL   C11641596   1.268   2.983   7.967  0.6659  0.1111  0.4669
  341MOL   F11741597   1.145   2.936   7.974 -0.0202  0.2253  0.0295
  341MOL   F11841598   1.359   2.900   7.908 -0.6340  0.0418  0.3356
  341MOL   C11941599   1.303   3.004   8.113  0.3186 -0.1428  0.1660
  341MOL   H12041600   1.333   2.918   8.173  0.1329 -0.6002 -0.3829
  341MOL   H12141601   1.211   3.028   8.166 -1.6304  0.9254 -3.4741
  341MOL   H12241602   1.365   3.086   8.149 -0.5944 -0.4647  2.5323
  342MOL     C141603   0.694   0.965   6.172  0.1414  0.0944  0.5006
  342MOL     F241604   0.632   1.007   6.060  0.1040 -0.1692 -0.4169
  342MOL     F341605   0.795   0.884   6.137  0.2810  0.4358  0.1395
  342MOL     C441606   0.592   0.900   6.268 -0.1363 -0.2856  0.0771
  342MOL     H541607   0.580   0.795   6.242 -0.4134  0.0097 -1.0088
  342MOL     H641608   0.496   0.935   6.230  0.9229 -1.8618 -4.4013
  342MOL     H741609   0.736   1.058   6.210 -1.4289  0.3888  1.5775
  342MOL     C841610   0.618   0.931   6.422  0.9342 -0.1184 -0.1229
  342MOL     F941611   0.739   0.897   6.455  0.6059  0.0076 -0.1938
  342MOL    F1041612   0.611   1.060   6.448 -0.3538 -0.7601  0.2162
  342MOL    C1141613   0.517   0.853   6.507  0.0045  0.4973  0.5063
  342MOL    H1241614   0.556   0.848   6.609  0.5281 -0.1947  0.2810
  342MOL    H1341615   0.518   0.749   6.475  0.1792  0.2887  1.1786
  342MOL    C1441616   0.370   0.907   6.518 -0.1437 -0.5048  0.0888
  342MOL    F1541617   0.371   1.038   6.549  0.2460  0.0063 -1.0147
  342MOL    F1641618   0.306   0.900   6.405 -0.6947 -0.6342 -0.2492
  342MOL    C1741619   0.288   0.828   6.626  0.5316  0.1321  0.5766
  342MOL    H1841620   0.340   0.824   6.721  1.7705  0.0103 -0.0900
  342MOL    H1941621   0.290   0.720   6.606  1.7296 -0.0243  1.5413
  342MOL    C2041622   0.148   0.868   6.665 -0.1508  1.2105  0.6163
  342MOL    F2141623   0.071   0.847   6.558  0.8401  0.5496  0.4900
  342MOL    F2241624   0.106   0.778   6.756  0.2996  0.1846  0.4051
  342MOL    C2341625   0.131   1.010   6.702 -0.1950  0.2044  0.3534
  342MOL    H2441626   0.155   1.063   6.610  0.2800  0.8482  0.8449
  342MOL    H2541627   0.211   1.030   6.773  0.1781 -3.0409  0.9294
  342MOL    C2641628   8.344   1.054   6.770 -0.1774 -0.1121 -0.3867
  342MOL    F2741629   8.328   0.985   6.882 -0.1110  0.0319 -0.4205
  342MOL    F2841630   0.010   1.176   6.806  0.1585 -0.0874  0.3617
  342MOL    C2941631   8.226   1.038   6.680 -0.0873  0.1120  0.2935
  342MOL    H3041632   8.214   0.931   6.667  3.2904 -0.5659  1.9766
  342MOL    H3141633   8.259   1.075   6.583  0.3517 -0.3864  0.2508
  342MOL    C3241634   8.095   1.117   6.715 -0.0860  0.0241 -0.4818
  342MOL    F3341635   8.123   1.240   6.686  0.1418  0.5764 -0.0592
  342MOL    F3441636   7.995   1.082   6.628 -0.0320 -0.5371 -0.0240
  342MOL    C3541637   8.038   1.093   6.865 -0.6024  0.0950 -0.1397
  342MOL    H3641638   8.098   1.141   6.942 -1.3945  2.8468 -1.1638
  342MOL    H3741639   8.039   0.987   6.890 -0.2693  0.4866  1.5410
  342MOL    C3841640   7.896   1.164   6.874  0.8862  0.7103 -0.6170
  342MOL    F3941641   7.909   1.288   6.874 -0.2829  0.3269  0.2306
  342MOL    F4041642   7.812   1.132   6.774  0.5628  0.2207  0.8336
  342MOL    C4141643   7.825   1.129   7.011  0.1347  0.2288  0.4161
  342MOL    H4241644   7.794   1.025   7.026  0.7844 -0.1946 -1.1086
  342MOL    H4341645   7.734   1.189   7.007  1.6775  2.5381 -0.4534
  342MOL    C4441646   7.891   1.168   7.147 -0.6527 -0.6749 -0.4085
  342MOL    F4541647   7.985   1.074   7.171 -0.8902 -0.6204  0.0200
  342MOL    F4641648   7.930   1.299   7.144 -0.0213 -0.0134 -0.3738
  342MOL    C4741649   7.798   1.147   7.267  0.2302  0.1537  0.1354
  342MOL    H4841650   7.854   1.173   7.356  1.1019  0.0087 -0.3698
  342MOL    H4941651   7.784   1.040   7.285 -0.2507  0.1759 -0.0934
  342MOL    C5041652   7.664   1.220   7.258 -0.4496  0.5383  0.5762
  342MOL    F5141653   7.679   1.337   7.200  0.4847 -0.0055  0.0308
  342MOL    F5241654   7.586   1.140   7.189  0.3180 -0.7770  0.6757
  342MOL    C5341655   7.593   1.253   7.387 -0.5331  0.5280  0.1903
  342MOL    H5441656   7.646   1.339   7.430 -0.7606  2.1412 -2.6649
  342MOL    H5541657   7.603   1.171   7.459 -2.5239 -1.1797 -1.4402
  342MOL    C5641658   7.439   1.302   7.378  0.1536 -0.2715  0.1303
  342MOL    F5741659   7.423   1.409   7.308  0.1241  0.1019  0.0749
  342MOL    F5841660   7.365   1.206   7.325 -0.1968  0.3564  0.3019
  342MOL    C5941661   7.397   1.353   7.525 -0.6415  0.3691 -0.3739
  342MOL    H6041662   7.466   1.431   7.555  1.5875 -0.7423 -2.4079
  342MOL    H6141663   7.409   1.264   7.588  2.0221 -0.2533 -1.6590
  342MOL    C6241664   7.265   1.418   7.553  0.2422  0.0944 -0.4332
  342MOL    F6341665   7.260   1.456   7.684  0.3247 -0.4231  0.1452
  342MOL    F6441666   7.258   1.532   7.481 -0.0519 -0.0351  0.2403
  342MOL    C6541667   7.140   1.329   7.528  0.0882 -0.9801  0.0677
  342MOL    H6641668   7.134   1.298   7.424  0.3829  0.8734 -0.5145
  342MOL    H6741669   7.055   1.395   7.547  2.7541  2.3273  0.9349
  342MOL    C6841670   7.136   1.205   7.627 -0.3389 -0.3033 -0.3929
  342MOL    F6941671   7.234   1.119   7.607  0.4601  0.4475  0.1589
  342MOL    F7041672   7.145   1.245   7.756 -0.1107 -0.7849 -0.2000
  342MOL    C7141673   7.009   1.121   7.612  0.0198 -0.0544 -1.0109
  342MOL    H7241674   6.927   1.185   7.645  1.3478  1.1287  0.0555
  342MOL    H7341675   7.005   1.039   7.684  0.4492  2.1787  1.6184
  342MOL    C7441676   6.981   1.053   7.475  0.2908 -0.5684 -0.6188
  342MOL    F7541677   6.858   1.002   7.498 -0.0955  0.5698  0.1750
  342MOL    F7641678   6.968   1.138   7.376  0.1977  0.2806  0.3556
  342MOL    C7741679   7.072   0.931   7.451 -0.0922 -0.5353  0.5011
  342MOL    H7841680   7.082   0.867   7.539 -1.6812 -2.8017 -0.9203
  342MOL    H7941681   7.171   0.971   7.429 -0.6706  0.8492  0.3750
  342MOL    C8041682   7.033   0.836   7.327  0.3986 -0.4733 -0.2049
  342MOL    F8141683   6.908   0.795   7.352  0.4282 -0.6500 -0.1970
  342MOL    F8241684   7.027   0.912   7.220 -0.5602 -0.0929 -0.8690
  342MOL    C8341685   7.141   0.728   7.298  0.4285 -0.3885  0.2652
  342MOL    H8441686   7.116   0.669   7.210  1.1482 -1.4254  0.7290
  342MOL    H8541687   7.137   0.647   7.371 -0.5253  0.1597  0.8245
  342MOL    C8641688   7.289   0.769   7.288  0.0915  0.0015  0.6054
  342MOL    F8741689   7.294   0.864   7.193  0.9001  0.0835  0.2400
  342MOL    F8841690   7.342   0.810   7.404 -0.0217  0.2921 -0.6146
  342MOL    C8941691   7.382   0.647   7.249 -0.3957  0.0924  0.8155
  342MOL    H9041692   7.369   0.584   7.337  1.0149  0.7119  1.4734
  342MOL    H9141693   7.483   0.685   7.265 -0.5986  1.0955 -0.2283
  342MOL    C9241694   7.361   0.571   7.122 -0.1467  0.1212  0.3295
  342MOL    F9341695   7.251   0.498   7.116 -0.3317  0.0133 -0.1551
  342MOL    F9441696   7.347   0.653   7.017  0.3343 -0.2769  0.1271
  342MOL    C9541697   7.475   0.471   7.101 -0.1919 -1.1025 -0.1608
  342MOL    H9641698   7.568   0.521   7.125  0.0207 -1.4886 -0.1842
  342MOL    H9741699   7.466   0.462   6.992 -1.2226  0.7112 -0.2395
  342MOL    C9841700   7.463   0.343   7.178  0.2789  0.1659 -0.2582
  342MOL    F9941701   7.471   0.360   7.308  0.2140  0.0816 -0.8095
  342MOL   F10041702   7.354   0.267   7.162  0.3112 -0.9899  0.2247
  342MOL   C10141703   7.574   0.250   7.146 -0.4015 -0.2678 -0.0061
  342MOL   H10241704   7.531   0.157   7.182  0.8587 -0.4973  0.9600
  342MOL   H10341705   7.672   0.266   7.192  0.1748 -1.9240 -0.6508
  342MOL   C10441706   7.607   0.218   7.001  0.1447 -0.2160  0.1881
  342MOL   F10541707   7.678   0.321   6.954  0.5346 -0.3187 -0.3351
  342MOL   F10641708   7.692   0.109   7.000 -0.7075 -0.2401  0.1959
  342MOL   C10741709   7.480   0.179   6.918  0.7527 -0.7134 -0.2735
  342MOL   H10841710   7.398   0.250   6.924 -0.4596 -1.9751 -1.6199
  342MOL   H10941711   7.445   0.099   6.984 -1.4000  0.9258  0.6248
  342MOL   C11041712   7.499   0.135   6.771 -0.5166 -0.1317  0.4587
  342MOL   F11141713   7.549   0.234   6.692 -0.0585  0.3314 -0.4707
  342MOL   F11241714   7.593   0.045   6.779  0.4363  0.3014  0.4794
  342MOL   C11341715   7.363   0.079   6.721 -0.0259 -0.3378  0.3286
  342MOL   H11441716   7.294   0.162   6.705 -0.9109 -1.4604 -2.0174
  342MOL   H11541717   7.333   0.019   6.806  2.0878  1.1552  2.1732
  342MOL   C11641718   7.357   0.011   6.587 -0.1616  0.0153  0.1426
  342MOL   F11741719   7.419   0.077   6.494  0.0203 -0.2133 -0.4692
  342MOL   F11841720   7.413   8.237   6.592 -0.4373 -0.9415  0.2781
  342MOL   C11941721   7.211   8.330   6.542 -0.6285  0.2754  0.5618
  342MOL   H12041722   7.153   8.311   6.633  0.6361 -0.7879  1.1551
  342MOL   H12141723   7.205   8.256   6.462  0.9668  2.7608 -1.9608
  342MOL   H12241724   7.161   0.066   6.498 -1.4101 -1.5863 -2.3550
  343MOL     C141725   1.181   6.438   4.946  0.3433  0.2962 -0.4316
  343MOL     F241726   1.269   6.500   5.027 -0.1428 -0.0932  0.1175
  343MOL     F341727   1.229   6.445   4.826 -0.0448 -0.3540  0.6035
  343MOL     C441728   1.035   6.483   4.973 -0.6189  0.0151 -0.1809
  343MOL     H541729   0.979   6.409   4.915 -1.4493  0.4500  0.0591
  343MOL     H641730   1.006   6.571   4.915  1.0460 -0.3789 -1.6451
  343MOL     H741731   1.193   6.336   4.983  0.0244  0.0682 -0.9592
  343MOL     C841732   0.988   6.496   5.123  0.0436 -0.6513  0.3343
  343MOL     F941733   1.010   6.384   5.195  0.3568 -0.0178  0.8965
  343MOL    F1041734   1.049   6.602   5.181 -0.0229  0.5421  0.3365
  343MOL    C1141735   0.836   6.520   5.121  0.1039  0.4194 -0.0695
  343MOL    H1241736   0.789   6.435   5.072 -1.6106  0.5541  1.2869
  343MOL    H1341737   0.815   6.613   5.069 -0.5102 -0.2476 -1.0234
  343MOL    C1441738   0.768   6.524   5.260  0.3895 -0.4085 -0.3142
  343MOL    F1541739   0.792   6.408   5.324 -0.0455  0.4805  0.2066
  343MOL    F1641740   0.819   6.623   5.330  0.1485  0.3158  0.1486
  343MOL    C1741741   0.613   6.547   5.248  0.1744  0.6917 -0.0165
  343MOL    H1841742   0.581   6.450   5.212  1.3967  0.5863 -0.8900
  343MOL    H1941743   0.594   6.622   5.170  0.1080  1.5041  0.7705
  343MOL    C2041744   0.539   6.581   5.376 -0.5724 -0.4582  0.3472
  343MOL    F2141745   0.408   6.559   5.357  0.2713  0.3259 -0.5636
  343MOL    F2241746   0.578   6.491   5.477  0.4658 -0.4751 -0.1473
  343MOL    C2341747   0.546   6.728   5.433 -0.2163 -0.6033 -0.3284
  343MOL    H2441748   0.638   6.736   5.491 -1.3306 -1.0153  1.5444
  343MOL    H2541749   0.462   6.741   5.502 -0.3286 -0.2759 -0.5272
  343MOL    C2641750   0.527   6.835   5.323 -0.0414  0.6206  0.9366
  343MOL    F2741751   0.626   6.825   5.240 -0.0410  0.0056  0.1169
  343MOL    F2841752   0.418   6.810   5.256  0.1376  0.1060 -0.3271
  343MOL    C2941753   0.527   6.977   5.372  0.9345  0.0922  0.0131
  343MOL    H3041754   0.526   7.046   5.287 -3.3212  1.3280  0.9530
  343MOL    H3141755   0.624   6.995   5.417  0.2760  2.6369  0.5433
  343MOL    C3241756   0.418   7.028   5.464 -0.5119 -0.0224 -0.3045
  343MOL    F3341757   0.434   6.986   5.586 -0.4389  0.0131 -0.2116
  343MOL    F3441758   0.442   7.160   5.467  0.0520 -0.0240 -0.1565
  343MOL    C3541759   0.269   7.013   5.414 -0.5921 -0.5324 -0.2892
  343MOL    H3641760   0.250   6.911   5.381 -1.8030 -0.6494  0.7199
  343MOL    H3741761   0.264   7.067   5.319  0.8918  0.4397  0.1679
  343MOL    C3841762   0.163   7.067   5.513  0.2451  1.1838 -0.5683
  343MOL    F3941763   0.191   7.195   5.559  0.1923  0.2135 -0.2480
  343MOL    F4041764   0.044   7.064   5.449  0.3155  0.3401  0.0304
  343MOL    C4141765   0.158   6.987   5.652 -0.4488  0.0109  0.0546
  343MOL    H4241766   0.245   6.987   5.717 -0.4717  3.9273  0.1953
  343MOL    H4341767   0.154   6.881   5.627  0.6899  0.0193 -0.1791
  343MOL    C4441768   0.023   7.003   5.729 -0.4849  0.7361  0.8471
  343MOL    F4541769   0.007   7.132   5.763 -0.4841 -0.3494 -0.2982
  343MOL    F4641770   8.275   6.960   5.648 -0.2101 -0.4623  0.0524
  343MOL    C4741771   0.024   6.923   5.862 -0.0748 -0.0794 -0.5883
  343MOL    H4841772   0.123   6.941   5.903 -0.6594  1.5954  0.1527
  343MOL    H4941773   0.014   6.816   5.844  0.8404 -0.4607  1.0665
  343MOL    C5041774   8.260   6.955   5.966  0.0403 -0.3649 -0.1268
  343MOL    F5141775   8.283   7.072   6.023  0.4348 -0.0909 -0.3863
  343MOL    F5241776   8.151   6.955   5.902 -0.3342  0.0503  0.3442
  343MOL    C5341777   8.257   6.850   6.090  0.4228 -0.0578  0.4611
  343MOL    H5441778   0.002   6.843   6.143  0.7589  1.6412  0.1133
  343MOL    H5541779   8.236   6.751   6.050  1.3535  0.9005 -2.6004
  343MOL    C5641780   8.167   6.887   6.208 -0.4885  0.2977 -0.3859
  343MOL    F5741781   8.184   6.787   6.296  0.9407 -0.3029 -0.3401
  343MOL    F5841782   8.225   7.003   6.251 -0.1898  0.6839  0.0317
  343MOL    C5941783   8.021   6.894   6.175  0.0544  0.9755  0.5071
  343MOL    H6041784   7.996   6.802   6.122 -0.0871  0.0247  2.1919
  343MOL    H6141785   8.010   6.982   6.112 -0.7071  0.5373  0.0197
  343MOL    C6241786   7.916   6.905   6.281  0.2532  0.1419  0.3459
  343MOL    F6341787   7.805   6.925   6.209  0.2802  0.3335  0.3814
  343MOL    F6441788   7.904   6.801   6.352 -0.3601 -0.1437  0.0047
  343MOL    C6541789   7.931   7.028   6.368 -0.1631 -0.1420 -0.1248
  343MOL    H6641790   7.958   7.115   6.306  2.8825 -0.0660  1.2287
  343MOL    H6741791   8.021   7.014   6.427  0.6965  0.3645 -1.2841
  343MOL    C6841792   7.804   7.063   6.447  0.2884  0.0643  0.7157
  343MOL    F6941793   7.732   7.138   6.363 -0.3502 -0.0717  0.7236
  343MOL    F7041794   7.728   6.957   6.477 -0.1443 -0.2593 -0.2234
  343MOL    C7141795   7.832   7.143   6.580 -0.3729  0.6301 -0.4433
  343MOL    H7241796   7.893   7.226   6.543 -0.5917  1.1898  0.4304
  343MOL    H7341797   7.896   7.085   6.647 -0.3359  0.2453 -0.8084
  343MOL    C7441798   7.706   7.196   6.652 -0.1364 -0.1109 -0.4412
  343MOL    F7541799   7.634   7.271   6.570 -0.0313  0.0054 -0.3693
  343MOL    F7641800   7.631   7.095   6.697  0.2796 -0.0326  0.3626
  343MOL    C7741801   7.750   7.297   6.772 -0.2764  0.4083  0.1439
  343MOL    H7841802   7.661   7.320   6.830 -0.2630  1.6629 -0.3156
  343MOL    H7941803   7.782   7.391   6.728 -1.4087  1.8768  2.4011
  343MOL    C8041804   7.857   7.248   6.870  0.5778  0.4556 -0.1349
  343MOL    F8141805   7.844   7.116   6.906  0.5899  0.6663  0.2797
  343MOL    F8241806   7.982   7.264   6.825 -0.0503  0.0596  0.2899
  343MOL    C8341807   7.861   7.334   7.001 -0.0999 -0.4820  0.5552
  343MOL    H8441808   7.765   7.311   7.046 -0.4589  0.2945  0.1983
  343MOL    H8541809   7.855   7.441   6.983 -0.2149 -0.8529 -1.6917
  343MOL    C8641810   7.969   7.283   7.105 -0.2888 -0.1540 -0.2606
  343MOL    F8741811   7.938   7.168   7.165  0.1788 -0.1402 -0.1755
  343MOL    F8841812   8.091   7.262   7.051  0.5421 -0.2002 -0.1164
  343MOL    C8941813   7.984   7.382   7.223  0.0023  0.5392 -0.6690
  343MOL    H9041814   8.049   7.339   7.299  0.7021  1.9989 -0.4119
  343MOL    H9141815   7.888   7.407   7.268 -0.4602  1.8121 -2.3057
  343MOL    C9241816   8.055   7.515   7.192 -0.3143 -0.1798 -0.0707
  343MOL    F9341817   8.171   7.480   7.134 -0.1045 -0.1845  0.4338
  343MOL    F9441818   7.984   7.590   7.106  0.1652 -0.2959 -0.2662
  343MOL    C9541819   8.085   7.609   7.311 -0.5286 -0.6326 -0.2106
  343MOL    H9641820   8.148   7.547   7.375 -0.9882 -3.1067 -2.0706
  343MOL    H9741821   7.995   7.652   7.354 -0.3762  0.9926 -1.4425
  343MOL    C9841822   8.171   7.733   7.280  0.4438 -0.9185 -0.3244
  343MOL    F9941823   8.290   7.681   7.260 -0.2740 -0.3083 -0.2759
  343MOL   F10041824   8.127   7.797   7.168 -0.2058 -0.3194 -0.5306
  343MOL   C10141825   8.176   7.819   7.405 -0.1932 -0.1599 -0.5167
  343MOL   H10241826   8.212   7.756   7.486 -2.6975 -0.2839  0.5485
  343MOL   H10341827   8.081   7.850   7.449  0.1445 -3.2350  2.5943
  343MOL   C10441828   8.266   7.946   7.401 -0.0465  0.4408 -0.3151
  343MOL   F10541829   8.265   8.012   7.283  0.4854  0.0842 -0.4844
  343MOL   F10641830   8.235   8.029   7.494  0.0745 -0.0895 -0.7335
  343MOL   C10741831   0.069   7.921   7.411 -0.5993  0.0035 -0.5778
  343MOL   H10841832   0.116   8.019   7.404  2.6817 -1.5519 -1.2931
  343MOL   H10941833   0.098   7.882   7.314  0.4581  0.1351 -0.3231
  343MOL   C11041834   0.120   7.845   7.542 -0.1134 -0.6530 -0.3569
  343MOL   F11141835   0.069   7.902   7.655  0.1480 -0.3380  0.0046
  343MOL   F11241836   0.065   7.728   7.540  0.3094 -0.1501  0.4834
  343MOL   C11341837   0.274   7.852   7.566  0.0618  0.5450  0.1041
  343MOL   H11441838   0.298   7.840   7.672 -0.0124 -1.0531 -0.0462
  343MOL   H11541839   0.307   7.950   7.531 -1.0600  0.5575 -0.9543
  343MOL   C11641840   0.344   7.751   7.468  0.1996 -0.1049 -0.0798
  343MOL   F11741841   0.310   7.626   7.489 -0.0293 -0.0017 -0.3961
  343MOL   F11841842   0.298   7.774   7.345  0.2899  0.2777 -0.2383
  343MOL   C11941843   0.497   7.753   7.475  0.3019  0.0221  0.3482
  343MOL   H12041844   0.534   7.730   7.575 -1.6420 -0.0232  1.0740
  343MOL   H12141845   0.524   7.857   7.455 -0.5512  0.5377  1.7385
  343MOL   H12241846   0.539   7.682   7.404  0.4992 -0.2568  0.7428
  344MOL     C141847   0.826   6.917   3.058 -0.2685  0.2183 -0.1070
  344MOL     F241848   0.794   6.793   3.064 -0.1054 -0.4828  0.1387
  344MOL     F341849   0.927   6.916   2.973  0.0280  0.0797 -0.1082
  344MOL     C441850   0.863   6.969   3.201 -0.1763  0.4983  0.0099
  344MOL     H541851   0.924   6.897   3.254 -1.5363 -1.3430 -0.8808
  344MOL     H641852   0.766   6.977   3.250 -0.2737  0.4513 -0.1753
  344MOL     H741853   0.749   6.977   3.010 -0.2936 -0.8608 -1.4592
  344MOL     C841854   0.916   7.110   3.214  0.3628 -0.1137  0.2115
  344MOL     F941855   1.043   7.104   3.173 -0.0636 -0.2246  0.9342
  344MOL    F1041856   0.862   7.194   3.132  0.6046  0.4029 -0.3342
  344MOL    C1141857   0.901   7.163   3.357 -0.2899 -1.0601  0.0796
  344MOL    H1241858   0.794   7.161   3.379 -0.1917 -2.7340  0.4702
  344MOL    H1341859   0.934   7.267   3.365 -0.8497 -0.8396 -0.4474
  344MOL    C1441860   0.969   7.095   3.484 -0.6154 -0.7166 -1.5222
  344MOL    F1541861   0.916   6.972   3.515  0.1762  0.1274 -0.4613
  344MOL    F1641862   1.100   7.093   3.469  0.4308  0.0247 -0.1094
  344MOL    C1741863   0.949   7.184   3.612 -0.4810 -0.4152 -0.0867
  344MOL    H1841864   0.844   7.210   3.619 -0.7070 -1.1148 -0.7940
  344MOL    H1941865   0.990   7.284   3.603 -1.4409  0.2709  2.5623
  344MOL    C2041866   0.985   7.130   3.745  0.4432  0.3757 -0.7015
  344MOL    F2141867   0.971   7.222   3.840  0.3142 -0.3440  0.2273
  344MOL    F2241868   0.877   7.048   3.756 -0.2024 -0.2896  0.2642
  344MOL    C2341869   1.122   7.065   3.760 -0.0463  0.1565  0.0674
  344MOL    H2441870   1.203   7.135   3.741 -0.2780  0.3334 -0.2530
  344MOL    H2541871   1.143   6.992   3.682 -1.5765 -0.6631  0.4076
  344MOL    C2641872   1.163   7.004   3.893  0.3646  0.6697 -0.6138
  344MOL    F2741873   1.284   6.954   3.872  0.7680  0.3027 -0.2685
  344MOL    F2841874   1.169   7.097   3.985 -0.4848 -0.0242  0.0518
  344MOL    C2941875   1.066   6.889   3.945 -0.4152  0.4406  0.0040
  344MOL    H3041876   0.972   6.944   3.947 -0.8747 -0.3849  2.0173
  344MOL    H3141877   1.087   6.859   4.048  3.2940  0.7377 -0.5798
  344MOL    C3241878   1.053   6.753   3.864 -0.4635  0.3379 -0.0932
  344MOL    F3341879   0.979   6.685   3.956 -0.7059  0.0129  0.4367
  344MOL    F3441880   0.983   6.765   3.749  0.5062 -0.2528  0.6174
  344MOL    C3541881   1.179   6.671   3.825 -0.3416  0.1620 -0.3383
  344MOL    H3641882   1.251   6.737   3.776 -0.2942  1.8076  1.8945
  344MOL    H3741883   1.158   6.603   3.742 -1.7708 -0.8189  0.8031
  344MOL    C3841884   1.255   6.598   3.949  0.6397  0.1730 -0.3560
  344MOL    F3941885   1.281   6.698   4.028 -0.2955 -0.5229 -0.4115
  344MOL    F4041886   1.175   6.506   4.009  0.0411 -0.6156  0.0337
  344MOL    C4141887   1.386   6.529   3.920  0.1841  0.3859  0.4527
  344MOL    H4241888   1.447   6.593   3.857 -0.8940  0.1283 -0.8935
  344MOL    H4341889   1.361   6.442   3.859 -0.5805  0.5272  0.5506
  344MOL    C4441890   1.466   6.490   4.049 -0.1964  0.2175  0.7931
  344MOL    F4541891   1.499   6.598   4.108 -0.6213  0.0665 -0.3333
  344MOL    F4641892   1.381   6.427   4.135 -0.2069  0.2890  0.4668
  344MOL    C4741893   1.579   6.393   4.039  0.1269  0.3951 -0.1303
  344MOL    H4841894   1.533   6.297   4.014  1.1231  0.0085 -0.5201
  344MOL    H4941895   1.627   6.382   4.137  1.9109  0.1683 -1.0096
  344MOL    C5041896   1.687   6.433   3.939 -0.5074  0.3979 -0.0189
  344MOL    F5141897   1.635   6.441   3.822  0.4263  0.3753 -0.0347
  344MOL    F5241898   1.731   6.559   3.979  0.1186  0.0883  0.6777
  344MOL    C5341899   1.809   6.339   3.920 -0.0330 -0.8571  0.5347
  344MOL    H5441900   1.862   6.323   4.014  1.0531  0.8393  0.2416
  344MOL    H5541901   1.877   6.398   3.859 -1.2530 -0.7136 -0.7052
  344MOL    C5641902   1.775   6.199   3.866  0.3790 -0.0395 -0.0206
  344MOL    F5741903   1.680   6.142   3.941  0.1753 -0.1268  0.1045
  344MOL    F5841904   1.726   6.204   3.739 -0.2163  0.3661  0.1631
  344MOL    C5941905   1.892   6.103   3.860 -0.6299  0.2518  0.0948
  344MOL    H6041906   1.948   6.136   3.772  0.6616  1.2971  1.2788
  344MOL    H6141907   1.859   6.005   3.826 -2.2487  0.4758  0.9374
  344MOL    C6241908   1.989   6.083   3.981  0.1282 -0.5727 -0.6921
  344MOL    F6341909   2.056   6.198   3.993 -0.3178 -0.3093 -0.3269
  344MOL    F6441910   1.913   6.050   4.083  0.0087 -0.2804 -0.2602
  344MOL    C6541911   2.092   5.969   3.955 -0.0080 -0.6098 -0.3478
  344MOL    H6641912   2.152   5.999   3.869 -1.1199  2.7379 -0.0393
  344MOL    H6741913   2.041   5.876   3.933 -2.0010  0.3055  0.2826
  344MOL    C6841914   2.192   5.949   4.071 -0.1102  0.4760 -0.7797
  344MOL    F6941915   2.272   6.052   4.073 -0.0805  0.3949  0.0047
  344MOL    F7041916   2.122   5.943   4.187 -0.5589  0.1550 -0.3471
  344MOL    C7141917   2.271   5.821   4.051  0.6664 -0.4633 -0.6990
  344MOL    H7241918   2.330   5.817   4.142  1.4980  0.8483 -1.1675
  344MOL    H7341919   2.342   5.829   3.969 -0.0803 -1.5374 -1.4725
  344MOL    C7441920   2.197   5.685   4.046  0.4035  0.6667 -0.2290
  344MOL    F7541921   2.082   5.699   4.109  0.3510  0.6781  0.1827
  344MOL    F7641922   2.167   5.669   3.911 -0.4424  1.1889 -0.5661
  344MOL    C7741923   2.286   5.569   4.082  0.3380  0.2396  0.1412
  344MOL    H7841924   2.380   5.582   4.028 -1.6284  1.9845 -2.9540
  344MOL    H7941925   2.251   5.478   4.033 -0.3130  0.6742 -0.2024
  344MOL    C8041926   2.317   5.544   4.228  0.4480  0.4900  0.0737
  344MOL    F8141927   2.409   5.447   4.232 -0.6640  0.0221 -0.0583
  344MOL    F8241928   2.386   5.648   4.282 -0.6819 -0.4439  0.1088
  344MOL    C8341929   2.197   5.499   4.307  0.4119 -0.2194 -0.2628
  344MOL    H8441930   2.143   5.415   4.264 -0.2288 -1.0756  2.1437
  344MOL    H8541931   2.128   5.583   4.315 -0.6716 -1.2045  0.9638
  344MOL    C8641932   2.226   5.462   4.460 -0.0656 -0.6347  0.6381
  344MOL    F8741933   2.290   5.344   4.463 -0.8463 -0.0104 -0.3805
  344MOL    F8841934   2.304   5.555   4.519  0.1235  0.1760  0.2691
  344MOL    C8941935   2.092   5.451   4.533 -0.6152 -0.1516 -0.1496
  344MOL    H9041936   2.037   5.370   4.486  0.6661 -0.3915 -1.2624
  344MOL    H9141937   2.037   5.545   4.535 -0.1209  0.1131  1.9355
  344MOL    C9241938   2.116   5.402   4.680  0.0169  0.5839 -0.3294
  344MOL    F9341939   2.159   5.279   4.679 -0.2748 -0.0382  0.4894
  344MOL    F9441940   2.201   5.477   4.745  0.3655  0.3987 -0.3153
  344MOL    C9541941   1.980   5.400   4.751 -0.3806  0.2556  0.2064
  344MOL    H9641942   1.919   5.317   4.716  0.0579 -0.2227  0.5720
  344MOL    H9741943   1.919   5.488   4.730 -0.6746 -0.5338 -2.3631
  344MOL    C9841944   1.995   5.389   4.901 -0.0163  0.0563 -0.0549
  344MOL    F9941945   2.049   5.273   4.937  0.9458 -0.1260  0.3480
  344MOL   F10041946   2.066   5.489   4.955  0.3552 -0.4350 -0.4451
  344MOL   C10141947   1.856   5.397   4.973 -0.4071  0.3874 -0.2189
  344MOL   H10241948   1.803   5.490   4.951 -0.7225  0.2778  0.0746
  344MOL   H10341949   1.876   5.424   5.076  2.1026  3.0193 -1.3387
  344MOL   C10441950   1.762   5.275   4.964 -0.3189  0.4688  0.5616
  344MOL   F10541951   1.638   5.319   4.995 -0.5973 -0.1474 -0.1709
  344MOL   F10641952   1.747   5.221   4.841  0.0204 -0.1637 -0.0820
  344MOL   C10741953   1.803   5.155   5.059  0.1101 -0.9328  0.6992
  344MOL   H10841954   1.812   5.198   5.159  0.0960 -0.1103  0.3569
  344MOL   H10941955   1.902   5.124   5.026  1.4724  3.0437  0.7918
  344MOL   C11041956   1.703   5.033   5.064 -0.5574  0.0927 -0.5342
  344MOL   F11141957   1.592   5.066   5.127  0.3942  0.1882 -0.3053
  344MOL   F11241958   1.669   4.997   4.945  0.4415 -0.0807  0.5373
  344MOL   C11341959   1.749   4.915   5.150  0.4336 -0.0754 -0.7384
  344MOL   H11441960   1.660   4.852   5.163  0.3575  0.1516 -0.1143
  344MOL   H11541961   1.776   4.943   5.252 -1.4860 -0.2243 -0.1699
  344MOL   C11641962   1.852   4.814   5.093  0.5248 -1.1925  0.4731
  344MOL   F11741963   1.824   4.790   4.967  0.2643 -0.6395 -0.0796
  344MOL   F11841964   1.978   4.873   5.090  0.1728  0.2412  0.0839
  344MOL   C11941965   1.849   4.684   5.184 -0.0149  0.2197  0.2454
  344MOL   H12041966   1.827   4.699   5.290  0.3517 -0.7004  0.4501
  344MOL   H12141967   1.942   4.629   5.171  1.2368  2.2165  0.5127
  344MOL   H12241968   1.772   4.615   5.151  1.0029 -1.5946  1.5943
  345MOL     C141969   4.313   4.380   6.044  0.1616  0.2391 -0.3870
  345MOL     F241970   4.272   4.370   5.920  0.6611  0.1297  0.3222
  345MOL     F341971   4.443   4.380   6.044 -0.1867 -0.1539  0.2004
  345MOL     C441972   4.271   4.255   6.126  0.1056  0.4395 -0.1989
  345MOL     H541973   4.302   4.273   6.229 -2.5752  0.7526  0.5899
  345MOL     H641974   4.320   4.169   6.081  0.6355 -0.1696  1.5195
  345MOL     H741975   4.280   4.475   6.085  2.3946 -0.3625  2.9437
  345MOL     C841976   4.129   4.227   6.132  0.0070  0.6072  0.0164
  345MOL     F941977   4.056   4.338   6.144  0.2855 -0.5924  0.8066
  345MOL    F1041978   4.102   4.165   6.017  0.1324 -0.2642 -0.4007
  345MOL    C1141979   4.081   4.128   6.247  0.3895 -0.8740  0.5107
  345MOL    H1241980   4.088   4.182   6.341 -2.1354 -0.5404  0.5540
  345MOL    H1341981   4.148   4.044   6.265  1.2192 -0.0409  1.3456
  345MOL    C1441982   3.939   4.080   6.239  0.4748  0.3414 -0.4050
  345MOL    F1541983   3.925   3.988   6.145 -0.9457  0.2701 -0.0755
  345MOL    F1641984   3.912   4.018   6.352 -0.2499  0.1804  0.0685
  345MOL    C1741985   3.827   4.185   6.219  0.2797 -0.1768 -0.3280
  345MOL    H1841986   3.841   4.244   6.129 -0.7398 -0.6369 -0.7995
  345MOL    H1941987   3.823   4.250   6.306 -0.9208  0.3917 -0.8031
  345MOL    C2041988   3.683   4.127   6.220 -0.6263  0.3992 -0.8843
  345MOL    F2141989   3.662   4.031   6.129  0.5230 -0.1457  0.0105
  345MOL    F2241990   3.667   4.071   6.342 -0.2700  0.4856 -0.2574
  345MOL    C2341991   3.569   4.223   6.182 -0.7991  0.6617 -0.2370
  345MOL    H2441992   3.470   4.177   6.182 -1.3273  1.7555 -2.5865
  345MOL    H2541993   3.579   4.261   6.081  2.0189  1.2339  0.2061
  345MOL    C2641994   3.568   4.350   6.269 -0.5469  0.1217 -0.0304
  345MOL    F2741995   3.590   4.313   6.395 -0.1491  0.2860 -0.2362
  345MOL    F2841996   3.656   4.438   6.232  0.1791  0.3174  0.2955
  345MOL    C2941997   3.439   4.435   6.269  0.2083  0.0137 -0.6216
  345MOL    H3041998   3.453   4.511   6.346 -1.0955  0.8884 -1.2306
  345MOL    H3141999   3.364   4.361   6.296  0.0319  0.6580  0.6808
  345MOL    C3242000   3.388   4.508   6.147  0.0084 -0.2033 -0.2135
  345MOL    F3342001   3.417   4.436   6.036 -0.6702  0.2663 -0.0669
  345MOL    F3442002   3.253   4.537   6.153 -0.0565 -0.5302 -0.6749
  345MOL    C3542003   3.460   4.645   6.115 -0.2171 -0.3311 -0.6909
  345MOL    H3642004   3.568   4.635   6.119 -0.0196  0.7728 -2.6337
  345MOL    H3742005   3.423   4.706   6.198 -0.0053  0.0745 -0.8945
  345MOL    C3842006   3.422   4.716   5.985 -0.6272  0.4018  0.1111
  345MOL    F3942007   3.295   4.749   5.987  0.2056  0.6587 -0.0117
  345MOL    F4042008   3.493   4.823   5.981  0.0660 -0.4389  0.1052
  345MOL    C4142009   3.450   4.635   5.857 -0.2152 -0.3264  0.0890
  345MOL    H4242010   3.383   4.549   5.854 -1.6436  0.6544  2.5279
  345MOL    H4342011   3.550   4.594   5.848  0.7077  1.8126  0.3987
  345MOL    C4442012   3.416   4.712   5.724 -0.4253  0.3650 -0.1194
  345MOL    F4542013   3.289   4.757   5.739 -0.1387  0.5172 -0.1017
  345MOL    F4642014   3.501   4.816   5.711 -0.0037 -0.1335 -0.8367
  345MOL    C4742015   3.417   4.615   5.605 -0.0826 -0.4166  0.0903
  345MOL    H4842016   3.375   4.518   5.632  0.2178  0.2449  3.0930
  345MOL    H4942017   3.516   4.580   5.577  0.4316  0.4026  0.8377
  345MOL    C5042018   3.349   4.672   5.486  0.2782 -0.4895 -0.8395
  345MOL    F5142019   3.218   4.673   5.492  0.2843  0.5312  0.2543
  345MOL    F5242020   3.393   4.794   5.462 -0.6101 -0.3698  0.5708
  345MOL    C5342021   3.389   4.596   5.360 -0.7632 -0.1839  0.1452
  345MOL    H5442022   3.489   4.624   5.328 -0.8878 -2.1223 -2.0660
  345MOL    H5542023   3.325   4.627   5.277  1.1410 -2.2129 -2.1750
  345MOL    C5642024   3.393   4.438   5.368 -0.0639 -0.1526 -0.5287
  345MOL    F5742025   3.491   4.397   5.444 -0.1681  0.0174  0.1998
  345MOL    F5842026   3.280   4.388   5.422  0.2154 -0.2513 -0.3679
  345MOL    C5942027   3.425   4.358   5.248 -0.1902 -0.4896 -0.0160
  345MOL    H6042028   3.439   4.257   5.286  0.7424  0.4002  2.1004
  345MOL    H6142029   3.527   4.374   5.213 -1.3183  1.5592 -2.5702
  345MOL    C6242030   3.326   4.361   5.132  0.6616 -0.0425  0.3472
  345MOL    F6342031   3.303   4.487   5.092 -0.1117 -0.0702 -0.5313
  345MOL    F6442032   3.388   4.303   5.029  0.0307 -0.9934 -0.1688
  345MOL    C6542033   3.191   4.290   5.170 -0.3662 -0.6375 -0.0720
  345MOL    H6642034   3.130   4.355   5.232 -0.4023  0.6935 -1.5024
  345MOL    H6742035   3.210   4.204   5.235  1.4228 -1.0205 -1.0680
  345MOL    C6842036   3.106   4.252   5.051 -0.0909 -0.5820  0.5837
  345MOL    F6942037   3.101   4.355   4.962  0.2133 -0.6770 -0.0087
  345MOL    F7042038   3.157   4.150   4.987  0.0993 -0.3676  0.1981
  345MOL    C7142039   2.956   4.209   5.080  0.0788 -0.1174 -0.1985
  345MOL    H7242040   2.927   4.145   4.997  0.1592 -0.8781  0.3567
  345MOL    H7342041   2.898   4.301   5.076  3.3446  2.0465 -0.4868
  345MOL    C7442042   2.930   4.120   5.206 -0.8313 -0.3082 -0.1462
  345MOL    F7542043   2.973   3.996   5.190 -0.5690  0.0150 -0.4907
  345MOL    F7642044   2.995   4.176   5.311 -0.2009  0.0843  0.6605
  345MOL    C7742045   2.779   4.123   5.246  0.4547 -0.4809 -0.5260
  345MOL    H7842046   2.720   4.100   5.157  1.0584 -0.7062 -0.8758
  345MOL    H7942047   2.746   4.221   5.282 -0.6767 -1.4137  1.0271
  345MOL    C8042048   2.743   4.014   5.348  0.8795  0.1215 -0.7472
  345MOL    F8142049   2.822   4.035   5.453  0.1622 -0.6606  0.4456
  345MOL    F8242050   2.621   4.047   5.390  0.5774 -0.0807  0.4138
  345MOL    C8342051   2.747   3.863   5.290  0.1942 -0.2766  0.0549
  345MOL    H8442052   2.849   3.840   5.260  1.3167  2.7500  1.3649
  345MOL    H8542053   2.680   3.854   5.204  0.4077  0.7607 -0.2289
  345MOL    C8642054   2.702   3.760   5.397 -0.1695  0.3384  0.3632
  345MOL    F8742055   2.758   3.785   5.517 -0.2729 -0.2327  0.3900
  345MOL    F8842056   2.577   3.765   5.411  0.3798  0.0103 -0.0901
  345MOL    C8942057   2.750   3.623   5.351 -0.9560  0.0218 -0.4952
  345MOL    H9042058   2.858   3.622   5.330 -0.7284  0.3505  0.6614
  345MOL    H9142059   2.712   3.592   5.253 -0.5974 -0.9530 -0.3324
  345MOL    C9242060   2.707   3.511   5.441  0.0026 -0.2834 -0.7212
  345MOL    F9342061   2.743   3.531   5.564 -0.1230  0.5580 -0.5835
  345MOL    F9442062   2.575   3.494   5.433 -0.1517  0.2196  0.0845
  345MOL    C9542063   2.768   3.374   5.400 -0.1622  0.0778 -0.0796
  345MOL    H9642064   2.873   3.399   5.386 -0.1535  1.0497  1.6037
  345MOL    H9742065   2.721   3.356   5.303 -1.5944  1.1012  0.3937
  345MOL    C9842066   2.759   3.259   5.504 -0.3878  0.1087 -0.1524
  345MOL    F9942067   2.835   3.282   5.608 -0.3939  0.1191 -0.3848
  345MOL   F10042068   2.637   3.245   5.551  0.6014 -0.2044 -0.8644
  345MOL   C10142069   2.819   3.133   5.432 -0.5342 -0.0409 -0.4894
  345MOL   H10242070   2.926   3.148   5.417 -0.4979 -0.3047 -0.4986
  345MOL   H10342071   2.781   3.123   5.330  0.9763  2.7593 -1.3702
  345MOL   C10442072   2.813   3.000   5.504  0.2888  0.3329 -0.5182
  345MOL   F10542073   2.693   2.945   5.499  0.0117 -0.7205  0.2696
  345MOL   F10642074   2.892   2.911   5.446 -0.2186  0.7376  0.1042
  345MOL   C10742075   2.853   3.008   5.655  0.0938 -0.2502 -0.4737
  345MOL   H10842076   2.779   3.064   5.712  0.5829 -0.4671  0.3918
  345MOL   H10942077   2.943   3.065   5.678  0.0313 -0.7761  1.1220
  345MOL   C11042078   2.867   2.871   5.725 -0.1556 -0.5282 -0.1345
  345MOL   F11142079   2.746   2.828   5.750 -0.1087 -0.2740 -0.1964
  345MOL   F11242080   2.936   2.777   5.652  0.3149  0.2567 -0.2569
  345MOL   C11342081   2.933   2.887   5.866  0.6204 -0.2804 -0.1104
  345MOL   H11442082   2.878   2.964   5.920  0.2889  0.8152 -1.9580
  345MOL   H11542083   3.030   2.932   5.844  0.2966  0.5779  0.1667
  345MOL   C11642084   2.960   2.758   5.944  0.2480 -0.4142  0.2648
  345MOL   F11742085   3.058   2.684   5.898 -0.1007 -0.1269  0.1321
  345MOL   F11842086   2.980   2.796   6.063  0.0367  0.2888 -0.0925
  345MOL   C11942087   2.842   2.670   5.945 -0.5921  0.2116 -0.4006
  345MOL   H12042088   2.819   2.630   5.846 -0.7883 -1.7516  0.4131
  345MOL   H12142089   2.753   2.721   5.982  0.0894 -0.3538  2.1312
  345MOL   H12242090   2.861   2.575   5.996  1.1981  1.3005  1.0262
  346MOL     C142091   5.771   0.507   1.885  0.3850  0.5146 -0.3965
  346MOL     F242092   5.814   0.603   1.799  0.0717 -0.1527 -0.3148
  346MOL     F342093   5.781   0.562   2.006  0.8204  0.6032  0.2054
  346MOL     C442094   5.864   0.386   1.891 -0.4373 -0.1855  0.8935
  346MOL     H542095   5.830   0.312   1.962 -1.6414  0.7636  1.3243
  346MOL     H642096   5.960   0.427   1.924 -0.3915 -1.0371  1.8521
  346MOL     H742097   5.666   0.485   1.863  1.1226 -0.4938 -3.0317
  346MOL     C842098   5.886   0.328   1.742 -0.4235  0.4375  0.1128
  346MOL     F942099   5.766   0.291   1.703  0.0049 -0.0962  0.3671
  346MOL    F1042100   5.932   0.417   1.653 -0.2303 -0.6782 -0.4510
  346MOL    C1142101   5.976   0.202   1.732  0.1983  0.3351  0.2243
  346MOL    H1242102   5.969   0.168   1.629 -1.2259  1.7774 -0.1804
  346MOL    H1342103   5.923   0.132   1.796  0.1000  1.0382  0.9195
  346MOL    C1442104   6.123   0.213   1.785  0.0769 -0.2405 -0.3647
  346MOL    F1542105   6.194   0.284   1.696  0.3895  1.0450  0.8492
  346MOL    F1642106   6.118   0.259   1.905  0.3134  0.2258 -0.2459
  346MOL    C1742107   6.178   0.070   1.797 -0.0236 -0.0792 -0.2694
  346MOL    H1842108   6.166   0.022   1.699  0.5997  1.9441 -1.3567
  346MOL    H1942109   6.105   0.016   1.858  1.0629  0.0682  1.1846
  346MOL    C2042110   6.327   0.048   1.841  0.3483  0.0455  0.7733
  346MOL    F2142111   6.396   0.131   1.763 -0.1018  0.3621 -0.4882
  346MOL    F2242112   6.335   0.078   1.966 -0.0320 -0.2771  0.9036
  346MOL    C2342113   6.365   8.247   1.832  0.1473  0.0982 -0.1948
  346MOL    H2442114   6.301   8.196   1.759  0.6534  0.4683 -0.9079
  346MOL    H2542115   6.335   8.192   1.921  1.4923  0.3277  0.4188
  346MOL    C2642116   6.514   8.219   1.794  0.3651  0.2504 -0.1987
  346MOL    F2742117   6.522   8.089   1.764  0.1059  0.0753 -0.2792
  346MOL    F2842118   6.535   8.282   1.678 -0.1348  0.5586  0.0055
  346MOL    C2942119   6.615   8.273   1.892 -0.0873 -0.1449  0.3347
  346MOL    H3042120   6.618   0.031   1.878 -1.9399 -0.3957 -2.3709
  346MOL    H3142121   6.714   8.240   1.859  0.1908 -2.1032  2.9812
  346MOL    C3242122   6.604   8.228   2.036 -0.0226 -0.4111 -0.2254
  346MOL    F3342123   6.485   8.276   2.084  0.0785  0.2974 -0.4867
  346MOL    F3442124   6.612   8.093   2.049  0.2590  0.1389 -0.0642
  346MOL    C3542125   6.714   8.281   2.125  0.0355  0.3677  0.1416
  346MOL    H3642126   6.693   0.037   2.146 -1.0877  0.1946 -0.0533
  346MOL    H3742127   6.811   8.287   2.076  0.8342 -0.1545  1.6346
  346MOL    C3842128   6.748   8.206   2.256  0.3005  0.6488 -0.0578
  346MOL    F3942129   6.785   8.079   2.231 -0.3301  0.0391 -0.0362
  346MOL    F4042130   6.851   8.248   2.324 -0.1530  0.0106 -0.0390
  346MOL    C4142131   6.625   8.202   2.356  0.0808  0.3141 -0.6896
  346MOL    H4242132   6.647   8.122   2.427  0.1165  2.4208  1.7495
  346MOL    H4342133   6.537   8.166   2.303  0.5213  2.0639 -2.6620
  346MOL    C4442134   6.588   8.333   2.433 -0.3440 -0.6022  0.9615
  346MOL    F4542135   6.557   0.077   2.339 -0.4812 -0.2816  0.0530
  346MOL    F4642136   6.473   8.307   2.493 -0.1871  0.0117 -0.3513
  346MOL    C4742137   6.693   0.034   2.535 -0.3281 -0.9023  0.2573
  346MOL    H4842138   6.786   0.063   2.486 -0.2351 -0.9571  0.4025
  346MOL    H4942139   6.714   8.298   2.599  2.5965  0.8598  1.7628
  346MOL    C5042140   6.659   0.154   2.625  0.5174  0.3225 -0.6588
  346MOL    F5142141   6.532   0.138   2.683  0.0015  0.6710  0.1568
  346MOL    F5242142   6.759   0.158   2.718  0.4172  0.3499  0.2836
  346MOL    C5342143   6.666   0.287   2.551  0.3253  0.2474 -0.1111
  346MOL    H5442144   6.599   0.295   2.465 -1.2513 -0.1095  1.0411
  346MOL    H5542145   6.771   0.299   2.525  1.0037 -1.6874  1.5784
  346MOL    C5642146   6.629   0.398   2.660  0.6049 -0.2920 -1.0123
  346MOL    F5742147   6.505   0.388   2.711  0.3099 -0.0239  0.1593
  346MOL    F5842148   6.711   0.392   2.767 -0.0610  0.1953  0.2701
  346MOL    C5942149   6.654   0.540   2.604  0.4009 -0.9519  0.4956
  346MOL    H6042150   6.613   0.549   2.503 -1.0462 -0.2633  1.1438
  346MOL    H6142151   6.762   0.548   2.586  0.0779  0.8592 -0.7743
  346MOL    C6242152   6.601   0.668   2.675 -0.6880  0.0130  0.4258
  346MOL    F6342153   6.625   0.771   2.595 -0.3478  0.6780 -0.3747
  346MOL    F6442154   6.463   0.656   2.683 -0.4485 -0.4889 -0.3972
  346MOL    C6542155   6.656   0.691   2.815  0.1019  0.2206 -0.2003
  346MOL    H6642156   6.626   0.608   2.880  2.4428  0.3774  1.1471
  346MOL    H6742157   6.594   0.764   2.868  1.9850  0.1494  2.1708
  346MOL    C6842158   6.813   0.718   2.837 -0.1996  0.4896 -0.1353
  346MOL    F6942159   6.879   0.612   2.789  0.4169  0.1753 -0.2215
  346MOL    F7042160   6.845   0.823   2.764 -0.6234 -0.0544 -0.7860
  346MOL    C7142161   6.852   0.730   2.981 -0.9014 -0.2956  0.0929
  346MOL    H7242162   6.837   0.636   3.034  1.0159  0.2732  1.7080
  346MOL    H7342163   6.775   0.799   3.018 -0.7191 -0.0933  0.0978
  346MOL    C7442164   6.997   0.775   3.013  0.1827 -0.8118  0.3676
  346MOL    F7542165   7.080   0.693   2.944  0.0071 -0.5894  0.1772
  346MOL    F7642166   7.009   0.893   2.950  0.0666  0.3391  0.1973
  346MOL    C7742167   7.032   0.772   3.162 -0.1766 -0.0936  0.2320
  346MOL    H7842168   7.056   0.668   3.185 -0.0840  0.5533  3.3227
  346MOL    H7942169   6.943   0.799   3.218 -0.5626 -0.3658 -0.2566
  346MOL    C8042170   7.143   0.875   3.203 -0.2013 -0.1560 -0.3572
  346MOL    F8142171   7.230   0.868   3.111 -0.3623 -0.5936  0.2669
  346MOL    F8242172   7.094   0.999   3.193  0.0466 -0.0120  0.0165
  346MOL    C8342173   7.196   0.857   3.341  0.1942 -0.4539 -0.4312
  346MOL    H8442174   7.219   0.751   3.349 -1.1775 -0.6776  0.9851
  346MOL    H8542175   7.111   0.866   3.409  0.6247 -2.0991  0.3536
  346MOL    C8642176   7.315   0.951   3.395  0.2612 -0.0043  0.1212
  346MOL    F8742177   7.278   1.075   3.386 -0.6778 -1.0562  0.4631
  346MOL    F8842178   7.338   0.918   3.520 -0.2795 -0.5109  0.2117
  346MOL    C8942179   7.448   0.940   3.315 -0.4640 -0.1742  0.4614
  346MOL    H9042180   7.420   1.000   3.228 -1.5640  0.0510  0.9644
  346MOL    H9142181   7.467   0.838   3.284 -0.8804 -0.4871  1.2304
  346MOL    C9242182   7.575   0.991   3.376 -0.7831  0.1477  0.7704
  346MOL    F9342183   7.614   0.899   3.459 -0.4457 -0.0869  0.4426
  346MOL    F9442184   7.668   0.980   3.280  0.1218 -0.1583 -0.1685
  346MOL    C9542185   7.572   1.143   3.427  0.2580 -0.5062  0.1525
  346MOL    H9642186   7.496   1.148   3.505 -0.0847  1.8981 -0.2975
  346MOL    H9742187   7.534   1.200   3.342 -0.2162  1.1128  1.4358
  346MOL    C9842188   7.697   1.209   3.482 -0.0271  0.2730 -0.3680
  346MOL    F9942189   7.748   1.132   3.579 -0.2102  0.3425 -0.3400
  346MOL   F10042190   7.777   1.225   3.377 -0.2480  0.6974  0.2896
  346MOL   C10142191   7.668   1.352   3.536  0.7492 -0.9474  0.4818
  346MOL   H10242192   7.585   1.333   3.603 -0.1580  0.8505 -0.0907
  346MOL   H10342193   7.627   1.424   3.466 -0.4059 -0.2587  1.8469
  346MOL   C10442194   7.786   1.426   3.614 -0.4836 -1.0272 -0.1481
  346MOL   F10542195   7.781   1.389   3.743 -0.2608 -0.0955  0.2599
  346MOL   F10642196   7.903   1.383   3.564  0.2166  0.4150 -0.1270
  346MOL   C10742197   7.780   1.583   3.613  0.5130 -0.1640 -0.0701
  346MOL   H10842198   7.683   1.610   3.655 -0.7042 -2.4351 -1.2978
  346MOL   H10942199   7.778   1.608   3.507  1.6963  0.4885  0.0584
  346MOL   C11042200   7.902   1.666   3.665  0.0659  0.6603 -0.5820
  346MOL   F11142201   7.912   1.618   3.790  0.3772 -0.2503  0.1785
  346MOL   F11242202   8.021   1.626   3.602 -0.3329  0.2064 -0.5501
  346MOL   C11342203   7.889   1.821   3.664 -0.2262  0.0706 -0.6025
  346MOL   H11442204   7.972   1.864   3.720 -0.8859  1.1382 -0.4191
  346MOL   H11542205   7.803   1.851   3.724  1.4122  1.2077  1.2342
  346MOL   C11642206   7.884   1.889   3.526  0.2667 -0.9242 -0.5439
  346MOL   F11742207   7.997   1.871   3.464  0.2697  0.3332 -0.1210
  346MOL   F11842208   7.790   1.838   3.446 -0.2407 -0.3290 -0.0711
  346MOL   C11942209   7.849   2.041   3.533 -0.2082  0.2951  0.6426
  346MOL   H12042210   7.908   2.094   3.608  0.0468  0.2334  0.4839
  346MOL   H12142211   7.744   2.048   3.561 -0.3264 -0.0888  0.2993
  346MOL   H12242212   7.874   2.093   3.441 -0.2354 -2.8218 -1.2144
  347MOL     C142213   2.744   2.615   5.381 -0.4737 -0.1551 -0.4031
  347MOL     F242214   2.658   2.679   5.307 -0.5741  0.1786 -0.1498
  347MOL     F342215   2.744   2.486   5.334  0.0623 -0.1860 -0.1396
  347MOL     C442216   2.703   2.600   5.527  0.6396  0.0057 -0.0647
  347MOL     H542217   2.675   2.695   5.573  1.0804  0.4920 -0.7895
  347MOL     H642218   2.796   2.569   5.575  0.5452  2.0022  1.4535
  347MOL     H742219   2.845   2.656   5.378 -0.5239 -0.0931 -2.4520
  347MOL     C842220   2.587   2.499   5.560  0.7745 -0.6323 -0.3092
  347MOL     F942221   2.625   2.371   5.556 -0.3565  0.6010 -0.2983
  347MOL    F1042222   2.553   2.518   5.689  0.2608  0.1338 -0.5331
  347MOL    C1142223   2.457   2.510   5.466  0.1584 -0.4589 -0.1813
  347MOL    H1242224   2.387   2.430   5.490  0.3622 -1.4189 -2.6138
  347MOL    H1342225   2.492   2.496   5.363  0.5619  0.0520 -0.1187
  347MOL    C1442226   2.375   2.638   5.471  0.0180 -0.0304 -0.3573
  347MOL    F1542227   2.359   2.669   5.600  0.4040 -0.7277 -0.3041
  347MOL    F1642228   2.425   2.741   5.414  0.8892 -0.0128 -0.4156
  347MOL    C1742229   2.225   2.628   5.418  0.7711  0.1292 -0.0948
  347MOL    H1842230   2.178   2.725   5.432  1.7037  0.6520 -0.5264
  347MOL    H1942231   2.177   2.548   5.474 -0.6906  0.1734 -1.2663
  347MOL    C2042232   2.209   2.590   5.266 -0.1176  0.1973 -0.9973
  347MOL    F2142233   2.286   2.669   5.189  0.4954  0.3990  0.1759
  347MOL    F2242234   2.258   2.465   5.257  0.5028  0.8203  0.1517
  347MOL    C2342235   2.061   2.602   5.227  0.5437  0.7896  0.5470
  347MOL    H2442236   2.035   2.708   5.225 -3.0633 -0.0204  0.6252
  347MOL    H2542237   1.995   2.558   5.301 -0.5498  1.8405  0.2176
  347MOL    C2642238   2.026   2.543   5.089 -0.2945  0.6649  0.6269
  347MOL    F2742239   2.053   2.415   5.093 -0.2484  0.2222  0.4788
  347MOL    F2842240   1.897   2.548   5.063 -0.0395  0.3830 -0.4639
  347MOL    C2942241   2.106   2.593   4.965 -0.6414 -0.0881  0.0016
  347MOL    H3042242   2.084   2.530   4.878  2.0405 -3.7039  1.7850
  347MOL    H3142243   2.211   2.563   4.963 -0.5413  0.1512  1.2266
  347MOL    C3242244   2.069   2.734   4.922 -0.7407  0.4371 -1.1298
  347MOL    F3342245   1.936   2.739   4.915 -0.0509 -0.4320 -0.4551
  347MOL    F3442246   2.115   2.822   5.014 -0.0986  0.0067  0.6453
  347MOL    C3542247   2.147   2.773   4.791  0.1926  0.3691 -0.3293
  347MOL    H3642248   2.129   2.685   4.729  0.5963  0.2294 -0.2505
  347MOL    H3742249   2.253   2.763   4.813 -0.3997 -0.3448  2.3666
  347MOL    C3842250   2.103   2.906   4.729 -0.1191 -0.7664 -0.2370
  347MOL    F3942251   1.976   2.890   4.697  0.4547 -0.1745  0.0693
  347MOL    F4042252   2.109   3.006   4.816 -0.4901  0.6636 -0.1348
  347MOL    C4142253   2.182   2.943   4.603  0.4448 -0.8532 -0.9064
  347MOL    H4242254   2.284   2.935   4.640  0.2465  0.1837 -0.0914
  347MOL    H4342255   2.174   3.049   4.580  0.7487 -0.3069  1.3893
  347MOL    C4442256   2.149   2.859   4.483  0.0063 -0.3876  0.1834
  347MOL    F4542257   2.176   2.730   4.508  0.0280  0.1318  0.1122
  347MOL    F4642258   2.022   2.872   4.456 -0.7836  0.1536 -0.1736
  347MOL    C4742259   2.227   2.909   4.349  0.0947  0.0178 -0.0979
  347MOL    H4842260   2.181   2.992   4.294 -1.4532  0.6783  2.1276
  347MOL    H4942261   2.219   2.819   4.288 -0.1575 -0.2147  0.2765
  347MOL    C5042262   2.376   2.946   4.363  0.0039  0.0943 -0.3189
  347MOL    F5142263   2.375   3.064   4.439  0.5415  0.1252 -0.4890
  347MOL    F5242264   2.431   2.842   4.437  0.2895  0.3582 -0.7350
  347MOL    C5342265   2.452   2.965   4.228  0.2538 -0.2701 -0.0592
  347MOL    H5442266   2.555   2.997   4.241 -0.2632  1.7425 -0.7574
  347MOL    H5542267   2.394   3.047   4.187 -0.4524 -0.7822 -0.1026
  347MOL    C5642268   2.450   2.849   4.129  1.0356  0.0080 -0.2272
  347MOL    F5742269   2.463   2.735   4.199  0.1370  0.1330  0.2140
  347MOL    F5842270   2.330   2.833   4.074  0.3497  0.1496 -0.1253
  347MOL    C5942271   2.568   2.856   4.032  0.0482  0.4023 -0.6419
  347MOL    H6042272   2.556   2.775   3.961 -0.1518  1.3003 -1.6591
  347MOL    H6142273   2.662   2.825   4.078  0.6652  1.6666 -0.9925
  347MOL    C6242274   2.571   2.980   3.945 -0.2529 -0.2869 -0.3923
  347MOL    F6342275   2.454   2.982   3.883 -0.5714 -0.3592 -0.2561
  347MOL    F6442276   2.599   3.093   4.020  0.6005  0.6059  0.3587
  347MOL    C6542277   2.668   2.966   3.824  0.1493  0.2157  0.0205
  347MOL    H6642278   2.643   2.874   3.770 -1.2199  0.9049 -0.5439
  347MOL    H6742279   2.770   2.952   3.858  0.1921  3.7734  1.4837
  347MOL    C6842280   2.660   3.093   3.734  0.2889 -1.4061 -0.0477
  347MOL    F6942281   2.537   3.100   3.683  0.2214 -0.4455 -0.4949
  347MOL    F7042282   2.684   3.198   3.808 -0.5434  0.3833 -0.1672
  347MOL    C7142283   2.767   3.094   3.615  0.4285  0.0343 -1.0265
  347MOL    H7242284   2.761   2.990   3.584 -0.3882 -0.2656  0.0940
  347MOL    H7342285   2.865   3.113   3.660 -0.3580  1.1230  0.2694
  347MOL    C7442286   2.734   3.197   3.502  0.8275  0.5997 -0.5555
  347MOL    F7542287   2.830   3.205   3.412  0.4748 -0.3795 -0.7011
  347MOL    F7642288   2.630   3.148   3.439  0.2537 -0.3839 -0.8427
  347MOL    C7742289   2.709   3.339   3.557  0.1022  0.2462  0.4603
  347MOL    H7842290   2.800   3.368   3.610  1.5724 -0.8048 -1.4201
  347MOL    H7942291   2.634   3.331   3.636  0.5811  1.0616  1.0105
  347MOL    C8042292   2.646   3.438   3.456  1.0529  0.1725  0.3076
  347MOL    F8142293   2.536   3.388   3.414 -0.1287  0.2917 -0.2691
  347MOL    F8242294   2.617   3.544   3.524  0.0077  0.2330 -0.0444
  347MOL    C8342295   2.736   3.462   3.331 -0.2212 -0.9018  0.4671
  347MOL    H8442296   2.749   3.373   3.269 -2.4089 -1.5497  0.8929
  347MOL    H8542297   2.834   3.496   3.366 -0.7220  0.1808  0.8490
  347MOL    C8642298   2.680   3.562   3.225 -0.1760 -0.5608 -0.0218
  347MOL    F8742299   2.770   3.562   3.121 -0.3517  0.4179 -0.0812
  347MOL    F8842300   2.570   3.507   3.169 -0.1346  0.4135 -0.0843
  347MOL    C8942301   2.642   3.703   3.272 -0.2911 -0.0001  0.2283
  347MOL    H9042302   2.731   3.743   3.320 -1.2467  2.8297 -0.2613
  347MOL    H9142303   2.564   3.690   3.347  0.5581  1.9826  1.4823
  347MOL    C9242304   2.606   3.803   3.161  0.1304  0.3198  0.2651
  347MOL    F9342305   2.724   3.812   3.105  0.0824 -0.4168 -0.0696
  347MOL    F9442306   2.534   3.732   3.076  0.3370  0.3950 -0.4523
  347MOL    C9542307   2.556   3.942   3.200  0.1647 -0.2276 -0.4650
  347MOL    H9642308   2.611   3.988   3.281  1.2476  0.1891 -1.4231
  347MOL    H9742309   2.454   3.921   3.233  0.3698  0.6373  0.7396
  347MOL    C9842310   2.540   4.041   3.077  0.7818  0.8597  0.0645
  347MOL    F9942311   2.658   4.062   3.022 -0.1119  0.2524  0.2769
  347MOL   F10042312   2.463   3.990   2.988 -0.4058 -0.2220 -0.3141
  347MOL   C10142313   2.467   4.167   3.136  0.7148 -0.3997 -0.1435
  347MOL   H10242314   2.521   4.206   3.223  1.1694 -0.6145 -0.3313
  347MOL   H10342315   2.368   4.127   3.160  0.0138  0.8825 -0.8426
  347MOL   C10442316   2.451   4.283   3.037 -0.3684  1.0202  0.1588
  347MOL   F10542317   2.568   4.331   3.009 -0.1652  0.4955  0.4458
  347MOL   F10642318   2.393   4.238   2.925  1.2579 -0.6240 -0.2825
  347MOL   C10742319   2.370   4.386   3.106  0.0932 -0.2337 -0.6705
  347MOL   H10842320   2.416   4.419   3.200 -1.8251  0.2739  0.1084
  347MOL   H10942321   2.276   4.337   3.131  1.6174 -1.5878  2.7458
  347MOL   C11042322   2.341   4.519   3.036 -0.4870  0.2459  0.3143
  347MOL   F11142323   2.276   4.590   3.128  0.2763 -0.3909 -0.3938
  347MOL   F11242324   2.453   4.586   3.015 -0.1556  0.2138 -0.5048
  347MOL   C11342325   2.276   4.515   2.900  0.2750  0.3013 -0.0594
  347MOL   H11442326   2.183   4.458   2.894 -0.2961  1.0842  1.0928
  347MOL   H11542327   2.336   4.465   2.824  1.3674  0.6564  0.5559
  347MOL   C11642328   2.247   4.653   2.837  0.4455 -0.3811 -0.3537
  347MOL   F11742329   2.355   4.734   2.839  0.0582  0.4067  0.2590
  347MOL   F11842330   2.209   4.643   2.711 -0.4519 -0.5048  0.4384
  347MOL   C11942331   2.133   4.723   2.915  0.6279  0.3583 -0.3025
  347MOL   H12042332   2.160   4.751   3.017  1.8483 -2.7728  0.2762
  347MOL   H12142333   2.043   4.662   2.911 -1.4950  3.2319  1.3378
  347MOL   H12242334   2.121   4.823   2.873  0.1084  1.3927  2.1732
  348MOL     C142335   1.892   2.459   0.572 -0.3493  0.3611  0.2741
  348MOL     F242336   1.847   2.461   0.697  0.0066  0.0497 -0.3121
  348MOL     F342337   2.023   2.438   0.577  0.1231  0.4396 -0.0510
  348MOL     C442338   1.880   2.601   0.512  0.0137 -0.1808 -0.7447
  348MOL     H542339   1.935   2.676   0.569 -0.5120 -0.4747  0.1642
  348MOL     H642340   1.774   2.626   0.519  0.3180  0.5708  1.7330
  348MOL     H742341   1.849   2.373   0.519  1.5660 -0.2452 -0.3170
  348MOL     C842342   1.910   2.609   0.356 -0.1313 -0.3651  0.4544
  348MOL     F942343   1.826   2.530   0.287  0.4892  0.2448  0.5510
  348MOL    F1042344   1.901   2.730   0.303 -0.0648  0.7504  0.0749
  348MOL    C1142345   2.046   2.553   0.304  0.0838 -0.1096 -0.7729
  348MOL    H1242346   2.038   2.539   0.196  1.8938  0.3682 -0.9918
  348MOL    H1342347   2.062   2.454   0.347 -0.4600  0.5178  0.8978
  348MOL    C1442348   2.166   2.644   0.323 -0.2356  0.9489  0.3052
  348MOL    F1542349   2.151   2.758   0.245  0.1578  0.0087 -0.1772
  348MOL    F1642350   2.167   2.682   0.442  0.0421 -0.7300 -0.2187
  348MOL    C1742351   2.305   2.583   0.306  0.0026  0.0615 -0.5786
  348MOL    H1842352   2.320   2.495   0.369  3.9681  0.8988 -0.2090
  348MOL    H1942353   2.380   2.652   0.345  0.8319  0.3292 -2.6008
  348MOL    C2042354   2.334   2.543   0.161  0.5706 -0.2964  0.8632
  348MOL    F2142355   2.248   2.467   0.100 -0.4179  0.0311 -0.1007
  348MOL    F2242356   2.346   2.654   0.086  0.1080  0.2084 -0.1581
  348MOL    C2342357   2.475   2.479   0.160  0.2730 -0.5491  0.1019
  348MOL    H2442358   2.484   2.396   0.230 -1.2298 -1.3352 -0.6073
  348MOL    H2542359   2.548   2.558   0.180 -0.0606 -0.4755  1.0088
  348MOL    C2642360   2.511   2.417   0.021 -0.2633 -0.3520 -0.5240
  348MOL    F2742361   2.635   2.366   0.042 -0.6318 -0.3072 -0.2507
  348MOL    F2842362   2.443   2.309   8.340  0.2751 -0.3251 -0.4178
  348MOL    C2942363   2.524   2.520   8.255  0.2899 -0.0416  0.1692
  348MOL    H3042364   2.567   2.612   8.294  0.5238  0.1083 -0.4238
  348MOL    H3142365   2.423   2.534   8.217  0.0953  0.0587  0.7343
  348MOL    C3242366   2.601   2.463   8.132  0.0630 -0.1048 -0.2215
  348MOL    F3342367   2.596   2.566   8.055 -0.0861 -0.0456  0.2028
  348MOL    F3442368   2.731   2.447   8.156 -0.5000  0.3198 -0.3600
  348MOL    C3542369   2.536   2.341   8.061  1.1302 -0.1961 -0.4028
  348MOL    H3642370   2.434   2.372   8.040  0.9820 -0.6630 -0.3736
  348MOL    H3742371   2.539   2.264   8.138 -0.4566 -1.4608 -1.5683
  348MOL    C3842372   2.617   2.296   7.941  0.1975  0.6181  0.0021
  348MOL    F3942373   2.748   2.267   7.955  0.3441 -0.3219  0.5495
  348MOL    F4042374   2.563   2.186   7.917  0.1081 -0.5094 -0.4175
  348MOL    C4142375   2.590   2.394   7.827  0.3848  0.2274  0.4500
  348MOL    H4242376   2.648   2.486   7.841  2.2474 -0.7452 -0.6070
  348MOL    H4342377   2.487   2.427   7.841  0.1692 -0.8854  1.5219
  348MOL    C4442378   2.612   2.355   7.680  0.1760 -0.1641  0.0616
  348MOL    F4542379   2.737   2.302   7.671 -0.0715  0.1354  0.1858
  348MOL    F4642380   2.530   2.264   7.632  0.1038 -0.2936  0.3190
  348MOL    C4742381   2.600   2.478   7.587 -0.2228 -0.4660  0.0814
  348MOL    H4842382   2.630   2.456   7.485 -0.0884  2.0990 -0.4594
  348MOL    H4942383   2.676   2.545   7.627 -0.1017 -0.8684  0.5356
  348MOL    C5042384   2.463   2.548   7.561  0.6585 -0.2510 -0.3639
  348MOL    F5142385   2.367   2.456   7.538 -0.4482 -0.3201  0.0851
  348MOL    F5242386   2.426   2.611   7.670  0.0270  0.4516  0.2525
  348MOL    C5342387   2.475   2.646   7.447  0.0581 -0.6074 -0.0039
  348MOL    H5442388   2.470   2.602   7.348 -0.4813 -0.6062  0.0228
  348MOL    H5542389   2.573   2.691   7.462 -0.2537 -0.3990  1.4834
  348MOL    C5642390   2.365   2.753   7.437  0.8537  0.4031 -0.9774
  348MOL    F5742391   2.388   2.854   7.523  0.0249  0.1289  0.7759
  348MOL    F5842392   2.370   2.818   7.322 -0.0932 -0.1584 -0.1588
  348MOL    C5942393   2.217   2.718   7.465  0.0269 -1.0842 -0.5221
  348MOL    H6042394   2.163   2.810   7.484  0.3062 -1.7532  3.9161
  348MOL    H6142395   2.206   2.668   7.561  1.9623 -0.8017 -0.1241
  348MOL    C6242396   2.132   2.635   7.361  0.4765 -0.5073  0.5139
  348MOL    F6342397   2.196   2.521   7.351 -0.1242 -0.5187  0.6888
  348MOL    F6442398   2.012   2.607   7.418 -0.0044 -0.2874  0.0994
  348MOL    C6542399   2.113   2.695   7.215 -0.2252  0.1790 -0.0665
  348MOL    H6642400   2.072   2.616   7.153 -0.9638  1.0668 -0.7246
  348MOL    H6742401   2.212   2.708   7.170 -0.0062 -0.0874  0.3356
  348MOL    C6842402   2.022   2.818   7.209  0.3140  0.1968 -0.2295
  348MOL    F6942403   2.064   2.903   7.299 -0.3273 -0.5675 -0.3099
  348MOL    F7042404   2.026   2.874   7.089 -0.7345  0.1486 -0.1307
  348MOL    C7142405   1.871   2.777   7.239 -0.0176 -0.2255 -0.0234
  348MOL    H7242406   1.845   2.777   7.345 -0.1483 -3.4672 -0.0209
  348MOL    H7342407   1.845   2.677   7.206  1.1458 -0.7684  0.6565
  348MOL    C7442408   1.769   2.873   7.177  0.0266  0.8035 -0.1388
  348MOL    F7542409   1.772   2.842   7.053  0.3254  0.4706  0.0034
  348MOL    F7642410   1.654   2.817   7.226  0.3517  0.3628 -0.6503
  348MOL    C7742411   1.789   3.022   7.204  0.4554  0.6122  0.0339
  348MOL    H7842412   1.893   3.048   7.188  0.4708  0.2702 -0.4484
  348MOL    H7942413   1.767   3.019   7.311  0.9941  1.4107  0.1663
  348MOL    C8042414   1.691   3.113   7.143 -0.2294 -0.7046  0.1353
  348MOL    F8142415   1.685   3.079   7.012  0.2931 -0.1081  0.4431
  348MOL    F8242416   1.572   3.082   7.194 -0.3854  0.5420 -0.0967
  348MOL    C8342417   1.708   3.266   7.158  0.4226 -0.3169  0.0425
  348MOL    H8442418   1.618   3.315   7.121  0.7265  0.5739  0.4574
  348MOL    H8542419   1.780   3.306   7.086 -1.9961 -0.5673 -2.6139
  348MOL    C8642420   1.740   3.321   7.305 -0.2879  0.4411  0.3496
  348MOL    F8742421   1.651   3.265   7.390  0.2503  0.0573  0.5869
  348MOL    F8842422   1.858   3.273   7.340  0.4409  0.6018 -0.6962
  348MOL    C8942423   1.727   3.474   7.317  0.5997  0.3277 -0.4789
  348MOL    H9042424   1.620   3.494   7.306  0.1273 -2.3090 -0.9720
  348MOL    H9142425   1.774   3.523   7.231 -0.6235  0.5086 -1.0590
  348MOL    C9242426   1.780   3.537   7.447 -0.4372  0.5034  0.3382
  348MOL    F9342427   1.918   3.528   7.443 -0.0461 -0.1257  0.2000
  348MOL    F9442428   1.738   3.667   7.448  0.0249 -0.4859 -0.0288
  348MOL    C9542429   1.711   3.470   7.569  0.3466 -0.1363 -0.5642
  348MOL    H9642430   1.760   3.375   7.588 -1.4056 -1.0214 -0.3768
  348MOL    H9742431   1.606   3.446   7.555  0.6819 -1.8266 -0.3267
  348MOL    C9842432   1.708   3.560   7.700 -0.3310  0.1502 -0.8660
  348MOL    F9942433   1.617   3.663   7.687 -0.0967 -0.6105  0.6092
  348MOL   F10042434   1.672   3.479   7.802 -0.1072  0.4704  0.3496
  348MOL   C10142435   1.845   3.616   7.730 -0.7215  0.8007  0.1920
  348MOL   H10242436   1.881   3.679   7.649  0.0351 -0.1036 -0.1836
  348MOL   H10342437   1.918   3.537   7.749 -1.2297  0.3670  0.3770
  348MOL   C10442438   1.852   3.710   7.848  1.0088  0.8548 -0.0039
  348MOL   F10542439   1.986   3.744   7.867 -0.3839  0.5475 -0.7486
  348MOL   F10642440   1.783   3.827   7.827 -0.4330  0.2788 -0.2324
  348MOL   C10742441   1.798   3.657   7.984 -0.1787 -0.2542  0.5957
  348MOL   H10842442   1.855   3.566   8.003  0.4778  0.4334  2.0175
  348MOL   H10942443   1.691   3.633   7.987 -0.0331 -0.7582  2.2027
  348MOL   C11042444   1.828   3.733   8.107 -0.5790  0.2333 -0.3592
  348MOL   F11142445   1.948   3.790   8.111 -0.0577 -0.2232  0.1824
  348MOL   F11242446   1.740   3.827   8.124  0.2687  0.1629  0.1791
  348MOL   C11342447   1.843   3.646   8.230 -0.1442 -0.3636 -0.4302
  348MOL   H11442448   1.899   3.705   8.302 -0.7007 -1.1420  0.6611
  348MOL   H11542449   1.904   3.559   8.207 -0.7052 -1.8073  3.1031
  348MOL   C11642450   1.713   3.595   8.302  0.0065 -0.4521  0.5701
  348MOL   F11742451   1.622   3.692   8.295 -0.0072  0.7086 -0.1170
  348MOL   F11842452   1.665   3.489   8.240 -0.3417 -0.0702 -0.2758
  348MOL   C11942453   1.724   3.575   0.105  0.0927  0.7789  0.6971
  348MOL   H12042454   1.761   3.661   0.161 -0.7769  1.0404  0.8809
  348MOL   H12142455   1.801   3.502   0.129 -0.1030  1.2795  2.9071
  348MOL   H12242456   1.638   3.536   0.159  0.8756 -0.8311  0.8122
  349MOL     C142457   1.903   3.915   4.589  0.1320  0.3270 -0.0597
  349MOL     F242458   1.907   4.048   4.608 -0.1405  0.3275 -0.4140
  349MOL     F342459   2.022   3.860   4.591 -0.1854 -0.4235 -0.3866
  349MOL     C442460   1.824   3.857   4.466  0.7441 -0.7479  0.2707
  349MOL     H542461   1.856   3.754   4.452  2.2159 -0.0653 -1.5515
  349MOL     H642462   1.850   3.900   4.369  0.8128 -0.3829  0.4521
  349MOL     H742463   1.848   3.880   4.676 -0.4341  0.7305 -0.2591
  349MOL     C842464   1.673   3.873   4.480  0.8266  0.3348 -0.3152
  349MOL     F942465   1.643   3.828   4.601 -0.2826  0.0273  0.4990
  349MOL    F1042466   1.645   4.007   4.477  0.1563 -0.1424 -0.1465
  349MOL    C1142467   1.580   3.810   4.377 -0.2396 -0.0262  0.6724
  349MOL    H1242468   1.478   3.844   4.393 -0.2494  0.6244 -0.7491
  349MOL    H1342469   1.569   3.704   4.397  3.0348 -0.5963 -0.1951
  349MOL    C1442470   1.622   3.822   4.231  0.1718  0.8548  0.9081
  349MOL    F1542471   1.636   3.952   4.208 -0.0548 -0.1860  0.5732
  349MOL    F1642472   1.741   3.765   4.204 -0.3633 -0.3007  0.0549
  349MOL    C1742473   1.517   3.766   4.133  0.7096  0.4479 -0.0008
  349MOL    H1842474   1.553   3.792   4.033 -1.7094  0.2532 -0.9596
  349MOL    H1942475   1.428   3.827   4.147  0.4717  0.4189 -1.2839
  349MOL    C2042476   1.463   3.623   4.134 -0.0500 -0.4236 -0.3363
  349MOL    F2142477   1.562   3.544   4.141 -0.8005 -0.3792  0.1701
  349MOL    F2242478   1.395   3.595   4.242  0.1534 -0.2412  0.4825
  349MOL    C2342479   1.391   3.577   4.006 -0.1285 -0.4363  0.4224
  349MOL    H2442480   1.359   3.474   4.016 -2.6510  0.1729 -0.7766
  349MOL    H2542481   1.458   3.586   3.920  0.7116  1.0977  1.2000
  349MOL    C2642482   1.262   3.652   3.960 -0.0898  0.0320 -1.3402
  349MOL    F2742483   1.183   3.650   4.068  0.2230 -0.5046 -0.0119
  349MOL    F2842484   1.294   3.783   3.945 -0.5552  0.0764 -0.5221
  349MOL    C2942485   1.197   3.595   3.832  0.2159 -0.1187  0.4087
  349MOL    H3042486   1.203   3.486   3.839 -0.3767 -0.1888 -0.1515
  349MOL    H3142487   1.242   3.640   3.744 -0.5038 -0.8352 -0.3382
  349MOL    C3242488   1.055   3.639   3.810  0.4259  0.1638 -0.6748
  349MOL    F3342489   0.977   3.574   3.895  0.2450 -0.0723 -0.3053
  349MOL    F3442490   1.054   3.770   3.830 -0.5974 -0.3096 -0.3353
  349MOL    C3542491   0.999   3.598   3.670  0.1537  0.3733  0.8008
  349MOL    H3642492   1.038   3.664   3.592  0.0399 -1.4651 -0.8354
  349MOL    H3742493   0.892   3.617   3.674 -0.1051 -1.0169  0.5868
  349MOL    C3842494   1.024   3.447   3.619  0.2825  0.1862  0.2069
  349MOL    F3942495   0.975   3.436   3.491 -0.1277 -0.5122  0.3499
  349MOL    F4042496   1.159   3.445   3.608  0.1699 -0.6364 -0.3045
  349MOL    C4142497   0.954   3.338   3.699  0.2606 -0.1096  0.2363
  349MOL    H4242498   0.851   3.332   3.664  0.8622 -0.1946 -1.5624
  349MOL    H4342499   0.956   3.376   3.801 -2.7190 -0.6619  0.5361
  349MOL    C4442500   1.017   3.202   3.693 -0.2144 -0.3582 -0.3621
  349MOL    F4542501   1.136   3.209   3.755 -0.1138  0.1733 -0.6459
  349MOL    F4642502   0.935   3.128   3.771 -0.1025 -0.2901  0.2012
  349MOL    C4742503   1.030   3.140   3.551  0.5957 -0.6464 -0.0517
  349MOL    H4842504   1.115   3.190   3.505  1.3525 -0.3053  1.6858
  349MOL    H4942505   0.946   3.171   3.488  1.3019 -0.9723 -1.1674
  349MOL    C5042506   1.060   2.984   3.538 -0.0329  0.1423 -0.0124
  349MOL    F5142507   0.954   2.908   3.573 -0.0665  0.0711 -0.0620
  349MOL    F5242508   1.089   2.963   3.412  0.3738  0.2346  0.2040
  349MOL    C5342509   1.189   2.940   3.616  0.7081 -0.2256  0.5441
  349MOL    H5442510   1.178   2.954   3.723  0.6838  0.9198  0.3993
  349MOL    H5542511   1.273   3.007   3.593  1.0731 -0.5312  0.9765
  349MOL    C5642512   1.230   2.796   3.592  0.1969 -0.9720  0.7950
  349MOL    F5742513   1.135   2.716   3.641  0.6032  0.4660 -0.3580
  349MOL    F5842514   1.236   2.774   3.461 -0.2066 -0.4504 -0.1692
  349MOL    C5942515   1.368   2.764   3.657 -0.3161  0.1211  0.3803
  349MOL    H6042516   1.339   2.751   3.761 -3.0075 -2.3615 -0.6127
  349MOL    H6142517   1.431   2.852   3.644 -1.4838  1.0275  0.7261
  349MOL    C6242518   1.449   2.646   3.598 -0.0011 -0.4309 -0.3854
  349MOL    F6342519   1.469   2.680   3.472 -0.7087  0.1809  0.1225
  349MOL    F6442520   1.567   2.625   3.656 -0.4219 -0.4914  0.3243
  349MOL    C6542521   1.383   2.512   3.574 -0.2553  0.7635  0.9989
  349MOL    H6642522   1.460   2.454   3.524 -0.6764  0.9135  0.1607
  349MOL    H6742523   1.308   2.519   3.495  0.6011  1.2336  0.2152
  349MOL    C6842524   1.340   2.433   3.700 -0.2397  0.2342 -0.4759
  349MOL    F6942525   1.439   2.437   3.787 -0.0975 -0.1011 -0.7396
  349MOL    F7042526   1.239   2.494   3.752  0.7736  0.1547  0.1031
  349MOL    C7142527   1.305   2.287   3.681 -0.3283 -0.5721 -0.3437
  349MOL    H7242528   1.240   2.286   3.593 -0.8251  0.6405 -0.0037
  349MOL    H7342529   1.246   2.246   3.763 -1.8579  1.6268 -0.2841
  349MOL    C7442530   1.425   2.199   3.657 -0.5509  0.0393  0.6852
  349MOL    F7542531   1.466   2.229   3.531 -0.4431 -0.5053 -0.0604
  349MOL    F7642532   1.528   2.210   3.741  0.6726  0.5759  0.0057
  349MOL    C7742533   1.373   2.057   3.665 -0.3178  0.2706 -0.1017
  349MOL    H7842534   1.346   2.032   3.768  0.5914  0.3446  0.1530
  349MOL    H7942535   1.456   1.988   3.652 -1.3591 -0.9565 -0.3829
  349MOL    C8042536   1.255   2.016   3.572 -0.2954 -0.3418 -0.2263
  349MOL    F8142537   1.141   2.059   3.623 -0.7294  0.8036  0.6192
  349MOL    F8242538   1.258   2.062   3.447 -0.5965 -0.7039  0.0506
  349MOL    C8342539   1.248   1.860   3.568  0.7314 -0.2006 -0.4489
  349MOL    H8442540   1.223   1.835   3.671 -1.1985  1.4151 -0.5073
  349MOL    H8542541   1.345   1.811   3.558  1.6531  1.6251 -0.6842
  349MOL    C8642542   1.157   1.808   3.459  0.1156  0.2850  0.4932
  349MOL    F8742543   1.035   1.865   3.448 -0.3239  0.1933 -0.3551
  349MOL    F8842544   1.213   1.837   3.339  0.0002  0.6670  0.2976
  349MOL    C8942545   1.135   1.657   3.469 -0.1086 -0.1651  0.0379
  349MOL    H9042546   1.222   1.594   3.454 -1.5060 -1.3087 -3.6523
  349MOL    H9142547   1.061   1.635   3.392 -1.4365  0.2080  1.1747
  349MOL    C9242548   1.079   1.612   3.606 -0.0657  0.3782 -0.4152
  349MOL    F9342549   1.171   1.570   3.694 -0.1236 -0.9073  0.0753
  349MOL    F9442550   1.011   1.699   3.664  0.5015  0.5580 -0.4941
  349MOL    C9542551   0.996   1.485   3.586 -0.3509 -0.8626 -0.6307
  349MOL    H9642552   1.064   1.414   3.538  0.4710 -0.7223  0.3254
  349MOL    H9742553   0.911   1.504   3.520 -0.9530  0.4839  0.4991
  349MOL    C9842554   0.932   1.425   3.717  0.6066  0.1125  0.0369
  349MOL    F9942555   0.848   1.330   3.667  0.2650  0.2997  0.0321
  349MOL   F10042556   1.023   1.362   3.788 -0.0064 -0.5553  0.3571
  349MOL   C10142557   0.834   1.521   3.793 -0.3649 -0.0320 -0.2797
  349MOL   H10242558   0.781   1.590   3.727 -3.0879 -1.9474 -0.1481
  349MOL   H10342559   0.890   1.580   3.866 -0.4586  0.2506 -0.4326
  349MOL   C10442560   0.714   1.456   3.867 -0.1038  0.1462  0.4145
  349MOL   F10542561   0.626   1.412   3.783 -0.0762 -0.2850 -0.2585
  349MOL   F10642562   0.760   1.353   3.940  0.3705 -0.2122 -0.0382
  349MOL   C10742563   0.651   1.557   3.971  0.2573  0.0651  0.1031
  349MOL   H10842564   0.631   1.647   3.913 -1.3758  0.0589  0.6488
  349MOL   H10942565   0.721   1.580   4.052  0.3437  3.4308 -0.8770
  349MOL   C11042566   0.530   1.504   4.047  0.3237  0.3063 -0.2568
  349MOL   F11142567   0.433   1.498   3.952 -0.3804  0.5465 -0.1247
  349MOL   F11242568   0.552   1.385   4.098 -0.1396 -0.1549  0.5961
  349MOL   C11342569   0.480   1.600   4.157  0.4714  0.0445 -0.1205
  349MOL   H11442570   0.394   1.547   4.198 -0.2836  0.5150 -1.0757
  349MOL   H11542571   0.442   1.689   4.108 -0.6153 -0.3253  0.0428
  349MOL   C11642572   0.572   1.626   4.283 -0.4178  0.5664  0.0754
  349MOL   F11742573   0.596   1.504   4.334 -0.2009  0.0587 -0.1881
  349MOL   F11842574   0.683   1.693   4.249 -0.2486 -0.5312  0.1174
  349MOL   C11942575   0.490   1.700   4.389  0.2395  0.3564 -0.0598
  349MOL   H12042576   0.456   1.793   4.344  1.7295  0.7197 -0.4590
  349MOL   H12142577   0.557   1.723   4.471 -0.3972 -0.5906  0.7381
  349MOL   H12242578   0.401   1.644   4.420 -1.3512  1.9523 -1.5984
  350MOL     C142579   0.154   8.144   2.822  0.2228  0.8807  0.4032
  350MOL     F242580   0.114   8.255   2.883  0.4076 -0.0252  0.0130
  350MOL     F342581   0.286   8.146   2.799 -0.1887 -0.0235 -0.7072
  350MOL     C442582   0.075   8.132   2.692  0.3147  0.2765 -0.2519
  350MOL     H542583   0.129   8.075   2.616 -1.5014 -2.6748  0.5694
  350MOL     H642584   0.075   8.225   2.635  0.9972 -0.0666 -0.8095
  350MOL     H742585   0.130   8.056   2.881  1.7070 -0.3488 -0.8052
  350MOL     C842586   8.284   8.073   2.706 -0.6878 -0.1818 -0.5616
  350MOL     F942587   8.287   7.956   2.757 -0.2327  0.3044  0.3205
  350MOL    F1042588   8.213   8.148   2.781 -0.0493 -0.3201 -0.2740
  350MOL    C1142589   8.211   8.074   2.568  0.2221  0.6820 -0.2121
  350MOL    H1242590   8.284   8.028   2.502  0.1254  2.6526 -1.7569
  350MOL    H1342591   8.208   8.179   2.539  0.2675  1.2119  1.6830
  350MOL    C1442592   8.079   8.002   2.563 -0.9689  0.4515  0.2632
  350MOL    F1542593   8.103   7.868   2.581 -0.2189  0.5182 -0.6456
  350MOL    F1642594   8.008   8.050   2.664 -0.5544 -0.2503 -0.8864
  350MOL    C1742595   7.999   8.028   2.441 -0.3805 -0.1434 -0.0296
  350MOL    H1842596   7.975   8.134   2.440 -0.5925 -0.1940 -0.2999
  350MOL    H1942597   7.904   7.975   2.452  0.2027 -1.4520 -1.1255
  350MOL    C2042598   8.055   7.968   2.307 -0.3011  0.3724  0.8822
  350MOL    F2142599   8.180   8.000   2.280  0.6895  0.3804  0.0244
  350MOL    F2242600   8.049   7.833   2.307 -0.1228  0.2536  0.2041
  350MOL    C2342601   7.969   8.014   2.188  0.4155  0.0862 -0.1852
  350MOL    H2442602   8.001   8.115   2.161  1.6383 -0.2585 -0.0427
  350MOL    H2542603   7.862   8.016   2.204  0.1503  2.6911 -1.9468
  350MOL    C2642604   7.996   7.923   2.063  0.7289  0.0832  0.5835
  350MOL    F2742605   8.125   7.891   2.066  0.3787 -0.5835  0.2829
  350MOL    F2842606   7.940   7.804   2.079  0.4364 -0.0597 -0.1369
  350MOL    C2942607   7.958   7.972   1.920 -0.4204 -1.0003  0.5161
  350MOL    H3042608   8.002   7.916   1.837  2.1873  2.5160 -0.6234
  350MOL    H3142609   8.011   8.065   1.897  1.4404 -2.3279 -0.7130
  350MOL    C3242610   7.804   8.002   1.910 -0.4375 -0.1760  0.2894
  350MOL    F3342611   7.732   7.899   1.947 -0.5463 -0.0650 -0.0529
  350MOL    F3442612   7.764   8.100   1.985 -0.0842  0.4234 -0.0545
  350MOL    C3542613   7.762   8.031   1.769  0.2198  0.0031 -0.2436
  350MOL    H3642614   7.656   8.056   1.761 -0.8850 -4.6323 -1.6543
  350MOL    H3742615   7.781   7.941   1.712 -1.6195 -1.7614  1.8081
  350MOL    C3842616   7.840   8.141   1.678 -0.0141  0.3037  0.1907
  350MOL    F3942617   7.967   8.111   1.682  0.0510 -1.1966 -0.3810
  350MOL    F4042618   7.788   8.131   1.556 -0.4032  0.3545 -0.7301
  350MOL    C4142619   7.823   8.282   1.737 -0.3404  0.2400  0.2189
  350MOL    H4242620   7.881   8.281   1.829  3.5774 -0.1446 -2.1726
  350MOL    H4342621   7.717   8.292   1.763 -0.4910 -0.4729 -0.0988
  350MOL    C4442622   7.862   0.059   1.660 -0.3940  0.4903  0.1856
  350MOL    F4542623   7.788   0.059   1.555 -0.2073  0.4096 -0.1545
  350MOL    F4642624   7.821   0.169   1.728 -0.2114  0.7796 -0.1428
  350MOL    C4742625   8.014   0.067   1.627  0.9445  0.4757  0.0634
  350MOL    H4842626   8.013   0.142   1.547 -2.0025  1.0189  0.5658
  350MOL    H4942627   8.044   8.324   1.578 -1.0429  0.3334 -0.9257
  350MOL    C5042628   8.101   0.108   1.746  0.4257  0.5118  0.2470
  350MOL    F5142629   8.057   0.221   1.801 -0.8380  0.4883  0.4479
  350MOL    F5242630   8.103   0.011   1.838  0.4299  0.1139  0.3347
  350MOL    C5342631   8.241   0.150   1.707 -0.6320 -0.6659  0.0652
  350MOL    H5442632   8.233   0.236   1.640 -3.5476 -1.0546 -0.1399
  350MOL    H5542633   8.287   0.071   1.648  0.3165  0.5464 -0.8579
  350MOL    C5642634   8.344   0.193   1.816  0.2328 -0.4931 -0.6756
  350MOL    F5742635   8.290   0.282   1.894  0.5274 -0.3808  0.0384
  350MOL    F5842636   0.028   0.082   1.889  0.2040 -0.5781 -0.3470
  350MOL    C5942637   0.120   0.249   1.739 -0.0319  0.4578  0.4317
  350MOL    H6042638   0.091   0.340   1.687  1.1787 -0.6008 -2.2185
  350MOL    H6142639   0.146   0.175   1.663 -1.7711  1.3279 -1.0351
  350MOL    C6242640   0.242   0.277   1.826 -0.7154 -0.3076 -0.5084
  350MOL    F6342641   0.221   0.379   1.916  0.4513 -0.9200  0.2011
  350MOL    F6442642   0.280   0.159   1.886  0.1182  0.2523  0.3727
  350MOL    C6542643   0.363   0.323   1.747  0.0548 -0.0254  0.3397
  350MOL    H6642644   0.343   0.409   1.683  0.5013  0.3767  0.7268
  350MOL    H6742645   0.388   0.245   1.676  0.8969  0.5087  0.0378
  350MOL    C6842646   0.495   0.341   1.821  0.4794  0.0715  0.0082
  350MOL    F6942647   0.488   0.396   1.939 -0.5173 -0.2714 -0.3782
  350MOL    F7042648   0.547   0.218   1.827  0.4295  0.0197  0.3758
  350MOL    C7142649   0.600   0.424   1.740  0.0256  0.4233  0.2432
  350MOL    H7242650   0.546   0.516   1.715 -2.9729 -0.6321  2.6331
  350MOL    H7342651   0.626   0.380   1.644  0.4164  0.5024  0.3119
  350MOL    C7442652   0.732   0.465   1.805 -0.1564  0.3753 -0.4981
  350MOL    F7542653   0.706   0.542   1.911 -0.2967  0.4497  0.2498
  350MOL    F7642654   0.779   0.354   1.860  0.1391 -0.0676 -0.1888
  350MOL    C7742655   0.832   0.514   1.704 -0.2722  0.1587 -0.1748
  350MOL    H7842656   0.834   0.444   1.621 -0.9243 -0.2846  0.1804
  350MOL    H7942657   0.933   0.514   1.745 -0.7247  0.4678  0.9535
  350MOL    C8042658   0.803   0.670   1.663  0.3800 -0.2690 -0.1090
  350MOL    F8142659   0.697   0.654   1.583  0.0597 -0.2845  0.2431
  350MOL    F8242660   0.771   0.741   1.770 -0.2535  0.2024 -0.1885
  350MOL    C8342661   0.910   0.745   1.587  0.2797 -0.0093  0.4467
  350MOL    H8442662   1.000   0.739   1.648  1.2727  2.3623 -0.7422
  350MOL    H8542663   0.887   0.851   1.593 -0.9546 -0.2403 -0.1030
  350MOL    C8642664   0.956   0.707   1.447 -0.1561 -0.5286 -0.5320
  350MOL    F8742665   1.056   0.788   1.419  0.4825 -0.1976  0.0544
  350MOL    F8842666   0.998   0.579   1.447  0.1197 -0.2563  0.6091
  350MOL    C8942667   0.851   0.729   1.340 -0.0752 -0.4217  0.8624
  350MOL    H9042668   0.808   0.827   1.362 -0.2026 -0.3284  0.2043
  350MOL    H9142669   0.771   0.658   1.361  0.2468 -1.0107  0.1173
  350MOL    C9242670   0.904   0.712   1.200  0.2778  0.6901  0.3186
  350MOL    F9342671   0.788   0.735   1.133 -0.6237  0.8405 -0.0965
  350MOL    F9442672   0.990   0.812   1.165  0.2299  0.0274  0.5194
  350MOL    C9542673   0.975   0.580   1.165 -0.4501 -0.8544 -1.1098
  350MOL    H9642674   0.919   0.497   1.208  2.0717 -1.3688  1.2588
  350MOL    H9742675   1.072   0.572   1.214 -0.5465  1.5414 -0.4918
  350MOL    C9842676   1.012   0.550   1.019 -0.0485 -0.2261 -0.5048
  350MOL    F9942677   1.105   0.636   0.985  0.0150  0.7751  0.0375
  350MOL   F10042678   1.086   0.436   1.013  0.2106  0.4157 -0.0806
  350MOL   C10142679   0.886   0.553   0.926 -0.1245  0.4390 -0.3611
  350MOL   H10242680   0.838   0.651   0.926 -2.0310 -0.4881 -0.0776
  350MOL   H10342681   0.809   0.495   0.976  0.3661 -0.4096 -0.5751
  350MOL   C10442682   0.913   0.521   0.778 -0.2915  0.8493  0.3387
  350MOL   F10542683   1.010   0.605   0.738  0.2120 -0.2384  0.2978
  350MOL   F10642684   0.958   0.394   0.780  0.5363 -0.0479  0.2413
  350MOL   C10742685   0.791   0.517   0.681  1.1528  0.4683 -0.4864
  350MOL   H10842686   0.835   0.482   0.588  1.5046 -2.3906  0.7076
  350MOL   H10942687   0.757   0.620   0.667  2.1713  0.9458  0.5203
  350MOL   C11042688   0.668   0.429   0.719  0.1872  0.2702 -0.2489
  350MOL   F11142689   0.703   0.310   0.759  0.1621  0.3662 -0.1441
  350MOL   F11242690   0.616   0.488   0.825 -0.2178 -0.3423 -0.2716
  350MOL   C11342691   0.559   0.409   0.609 -0.1919 -0.1588 -0.2544
  350MOL   H11442692   0.603   0.380   0.513  0.8726 -2.8132  0.9709
  350MOL   H11542693   0.500   0.499   0.593 -2.4127 -1.3467  0.9764
  350MOL   C11642694   0.456   0.294   0.639  0.5588  0.8232  0.3540
  350MOL   F11742695   0.515   0.177   0.660 -0.5933 -0.1783 -0.3863
  350MOL   F11842696   0.375   0.319   0.747 -0.3390  0.0332 -0.1683
  350MOL   C11942697   0.364   0.269   0.525  0.2432  0.3158 -0.5096
  350MOL   H12042698   0.316   0.361   0.492  2.3401  1.4967 -0.3924
  350MOL   H12142699   0.291   0.198   0.564  1.3717 -1.0843 -0.8672
  350MOL   H12242700   0.411   0.222   0.438  0.9820 -2.0868  1.1554
  351MOL     C142701   4.137   6.330   7.925 -0.5739  0.2170 -0.6943
  351MOL     F242702   4.096   6.210   7.880  0.8557 -0.2933 -0.2846
  351MOL     F342703   4.171   6.330   8.056 -0.0211 -0.0103 -0.2454
  351MOL     C442704   4.039   6.443   7.901  0.5146  0.2391 -0.3205
  351MOL     H542705   3.973   6.434   7.988 -0.6619  0.4370 -1.1711
  351MOL     H642706   3.975   6.424   7.814 -0.7872  0.0118  0.6610
  351MOL     H742707   4.226   6.331   7.862  0.3210 -0.4479  0.5378
  351MOL     C842708   4.091   6.591   7.889  0.0675 -0.4398 -0.0795
  351MOL     F942709   4.142   6.614   8.012 -0.0233  0.1777 -0.1959
  351MOL    F1042710   4.187   6.585   7.798  0.9503 -0.6587  0.1928
  351MOL    C1142711   3.986   6.696   7.858 -0.5064 -0.1131 -0.4276
  351MOL    H1242712   4.039   6.791   7.854  0.2594 -0.4628  0.9363
  351MOL    H1342713   3.919   6.696   7.943 -1.4446  0.3710 -1.1556
  351MOL    C1442714   3.890   6.685   7.739  0.4848  0.0574  0.4772
  351MOL    F1542715   3.794   6.594   7.765  0.1970 -0.0953  0.2561
  351MOL    F1642716   3.819   6.799   7.730 -0.1126  0.0999  0.0388
  351MOL    C1742717   3.942   6.660   7.599  0.2387  0.0876 -0.5502
  351MOL    H1842718   3.992   6.563   7.608  0.4930  0.0670 -2.2056
  351MOL    H1942719   4.020   6.729   7.570  0.6302 -0.7362 -1.4849
  351MOL    C2042720   3.842   6.656   7.475  0.4260 -0.4470  0.3552
  351MOL    F2142721   3.793   6.780   7.455 -0.3931  0.4772 -0.6368
  351MOL    F2242722   3.925   6.629   7.376 -0.0946  0.7104 -0.3809
  351MOL    C2342723   3.722   6.552   7.471 -0.3519 -0.3332  0.0640
  351MOL    H2442724   3.656   6.582   7.390 -0.6348  1.0585  0.8059
  351MOL    H2542725   3.669   6.568   7.565 -0.0383 -1.6205  0.4696
  351MOL    C2642726   3.772   6.401   7.457  1.0096 -1.0526 -0.0955
  351MOL    F2742727   3.866   6.380   7.545  0.1686 -0.5214 -0.3762
  351MOL    F2842728   3.667   6.323   7.485 -1.1354  0.2112  0.0619
  351MOL    C2942729   3.823   6.358   7.313 -0.5171 -0.5544  0.4413
  351MOL    H3042730   3.863   6.257   7.313 -1.8806 -1.1037  0.0373
  351MOL    H3142731   3.902   6.427   7.283 -0.6597 -0.1893  0.8871
  351MOL    C3242732   3.721   6.378   7.191  0.4040 -0.7675 -0.0265
  351MOL    F3342733   3.666   6.499   7.180 -0.2578 -0.4672 -0.2700
  351MOL    F3442734   3.796   6.375   7.079 -0.3468 -0.5640 -0.2574
  351MOL    C3542735   3.617   6.264   7.177  0.1958 -0.2710  0.2603
  351MOL    H3642736   3.549   6.274   7.262 -1.0157  1.3304 -0.8657
  351MOL    H3742737   3.675   6.174   7.197  0.5470 -0.0783  0.1038
  351MOL    C3842738   3.536   6.254   7.054 -0.4994  0.3657 -0.2489
  351MOL    F3942739   3.611   6.222   6.951  0.2514  0.2271  0.2735
  351MOL    F4042740   3.450   6.156   7.079  0.6808 -0.3418  0.2777
  351MOL    C4142741   3.454   6.386   7.012  0.0443 -0.0052  0.2209
  351MOL    H4242742   3.533   6.452   6.976  0.6674  0.1553  1.8033
  351MOL    H4342743   3.409   6.434   7.099 -1.3955  0.4383 -0.7598
  351MOL    C4442744   3.357   6.370   6.894 -0.0093  0.0215 -0.1029
  351MOL    F4542745   3.431   6.359   6.785  0.0886  0.2849  0.0728
  351MOL    F4642746   3.284   6.256   6.911 -0.2123 -0.0644  0.4407
  351MOL    C4742747   3.259   6.496   6.874 -0.0287  0.9687  0.4910
  351MOL    H4842748   3.313   6.585   6.840  0.3502  0.3407 -0.5619
  351MOL    H4942749   3.200   6.515   6.963 -0.9413 -0.2924  0.1649
  351MOL    C5042750   3.145   6.484   6.775  0.6438 -0.3188 -0.2890
  351MOL    F5142751   3.059   6.386   6.809 -0.2634  0.5892  0.1284
  351MOL    F5242752   3.084   6.608   6.788 -0.6109 -0.1882  0.4441
  351MOL    C5342753   3.185   6.456   6.625  0.7009  0.1101 -0.2125
  351MOL    H5442754   3.229   6.357   6.619  1.5233  0.4714 -0.2016
  351MOL    H5542755   3.274   6.516   6.611 -0.8764  1.9057 -2.9291
  351MOL    C5642756   3.078   6.477   6.514 -0.2594  0.2824 -0.1875
  351MOL    F5742757   2.987   6.381   6.528  0.1193 -0.3006 -0.0178
  351MOL    F5842758   3.013   6.595   6.529  0.2734  0.0352  0.1323
  351MOL    C5942759   3.129   6.461   6.375  0.4852  1.0680  0.3509
  351MOL    H6042760   3.043   6.479   6.311  1.6409 -0.5927 -1.6843
  351MOL    H6142761   3.150   6.355   6.362 -0.2104  1.2117 -2.1441
  351MOL    C6242762   3.254   6.534   6.322  0.7351 -0.0159  0.0444
  351MOL    F6342763   3.369   6.504   6.383 -0.2123  0.2603  0.1291
  351MOL    F6442764   3.259   6.497   6.191 -0.6449  0.4113  0.0630
  351MOL    C6542765   3.245   6.689   6.321 -0.5256 -0.3575 -0.8028
  351MOL    H6642766   3.247   6.707   6.429 -0.2069 -2.0116 -0.5092
  351MOL    H6742767   3.148   6.732   6.297  0.1222  1.1741 -0.7100
  351MOL    C6842768   3.357   6.759   6.238  0.3019  0.3849 -0.5663
  351MOL    F6942769   3.483   6.718   6.276 -0.3933  0.5762  0.4318
  351MOL    F7042770   3.341   6.733   6.104 -0.4094 -0.1154 -0.0435
  351MOL    C7142771   3.365   6.912   6.249 -0.2581 -0.6314 -0.1503
  351MOL    H7242772   3.450   6.934   6.184  1.8913 -3.2884  1.6588
  351MOL    H7342773   3.392   6.942   6.351  1.7522 -0.3181 -0.7541
  351MOL    C7442774   3.242   6.992   6.201 -0.1978  0.3976 -0.4710
  351MOL    F7542775   3.199   6.948   6.081 -0.4965 -0.2854  0.2607
  351MOL    F7642776   3.142   6.981   6.292 -0.2765 -0.2668 -0.3808
  351MOL    C7742777   3.283   7.139   6.188 -0.1696 -0.5606  0.1646
  351MOL    H7842778   3.365   7.134   6.117 -0.0211  0.8165  0.2369
  351MOL    H7942779   3.318   7.183   6.281 -1.1908  0.1209  0.2348
  351MOL    C8042780   3.182   7.233   6.122 -0.1804 -0.2717 -0.6988
  351MOL    F8142781   3.140   7.190   6.005 -0.1300  0.0069 -0.0309
  351MOL    F8242782   3.076   7.218   6.203 -0.4348 -0.1146 -0.0534
  351MOL    C8342783   3.235   7.374   6.115  0.2212  0.0191 -0.5031
  351MOL    H8442784   3.330   7.360   6.065 -1.1437 -0.9440 -2.9516
  351MOL    H8542785   3.238   7.411   6.217 -0.0710 -1.4063  0.0221
  351MOL    C8642786   3.155   7.476   6.038  0.4693  0.3807  1.1061
  351MOL    F8742787   3.031   7.471   6.086  0.0437  0.0750 -0.3346
  351MOL    F8842788   3.202   7.593   6.083 -0.1638 -0.3280  0.0691
  351MOL    C8942789   3.161   7.464   5.883 -0.3295  0.0690  0.1428
  351MOL    H9042790   3.122   7.370   5.845 -0.2027  0.3099 -0.6110
  351MOL    H9142791   3.266   7.469   5.853  0.1708 -1.5765  1.5453
  351MOL    C9242792   3.082   7.587   5.808  0.0120  0.1298 -0.2832
  351MOL    F9342793   2.963   7.595   5.858  0.1375  0.8135 -0.0926
  351MOL    F9442794   3.140   7.706   5.835  0.1329 -0.0111 -0.3774
  351MOL    C9542795   3.069   7.570   5.657 -0.1752  0.5025 -0.3290
  351MOL    H9642796   3.014   7.476   5.656  0.1764  0.2058  3.1111
  351MOL    H9742797   3.171   7.551   5.625 -0.4954 -0.9307 -0.5423
  351MOL    C9842798   2.989   7.678   5.579 -0.3990  0.2056  0.3189
  351MOL    F9942799   2.867   7.672   5.625  0.0047  0.6103  0.2859
  351MOL   F10042800   3.043   7.794   5.615  0.6436 -0.0766  0.1688
  351MOL   C10142801   2.984   7.664   5.432  0.2076 -0.5277 -0.3683
  351MOL   H10242802   3.081   7.677   5.385  0.1856  1.0001 -0.0173
  351MOL   H10342803   2.939   7.756   5.394 -2.8310 -1.4053  0.9540
  351MOL   C10442804   2.912   7.541   5.369  0.3846  0.5014 -0.6800
  351MOL   F10542805   2.927   7.543   5.236  0.1102  0.0171 -0.3946
  351MOL   F10642806   2.962   7.428   5.417 -0.2110  0.0115  0.2468
  351MOL   C10742807   2.767   7.517   5.427  0.4926  0.9027  0.4348
  351MOL   H10842808   2.721   7.616   5.431  0.4896  0.8159  3.0468
  351MOL   H10942809   2.778   7.490   5.532  1.0258 -0.6930 -0.0124
  351MOL   C11042810   2.681   7.430   5.333 -0.3020 -0.3222 -0.3747
  351MOL   F11142811   2.568   7.425   5.404  0.4654 -0.3211  0.2804
  351MOL   F11242812   2.649   7.491   5.225 -0.3480 -0.7044 -0.2045
  351MOL   C11342813   2.731   7.284   5.303 -0.7847  0.1915 -0.2467
  351MOL   H11442814   2.747   7.234   5.398 -1.7285 -2.0897 -1.2644
  351MOL   H11542815   2.832   7.290   5.264  1.1671 -1.6320  4.2051
  351MOL   C11642816   2.657   7.199   5.202  0.3585 -0.5723 -0.4518
  351MOL   F11742817   2.634   7.270   5.091  0.0401  0.2173  0.0556
  351MOL   F11842818   2.737   7.090   5.178 -0.1667 -0.1627 -0.0790
  351MOL   C11942819   2.524   7.149   5.275 -0.4114  0.4708  0.2903
  351MOL   H12042820   2.546   7.106   5.373 -1.1399  0.2014  0.3369
  351MOL   H12142821   2.462   7.087   5.211 -1.3945  2.6832 -0.9783
  351MOL   H12242822   2.465   7.240   5.289 -0.0423  0.7776 -0.1336
  352MOL     C142823   2.935   7.064   4.498 -0.4312  0.6345 -0.3932
  352MOL     F242824   2.813   7.020   4.471  0.2874  0.0916  0.2941
  352MOL     F342825   3.013   6.959   4.508  1.0912  0.3933  0.2592
  352MOL     C442826   2.942   7.130   4.639  0.1685  0.0885 -0.0738
  352MOL     H542827   3.048   7.147   4.656  0.6680 -2.3110 -0.6531
  352MOL     H642828   2.906   7.059   4.714 -1.3942 -0.8285 -1.6546
  352MOL     H742829   2.961   7.135   4.419 -0.0628 -0.3485 -1.1656
  352MOL     C842830   2.873   7.269   4.642 -0.8466 -0.6184  0.2724
  352MOL     F942831   2.923   7.352   4.548 -0.3444 -0.0214  0.4518
  352MOL    F1042832   2.749   7.244   4.617  0.5003 -0.5198 -0.0110
  352MOL    C1142833   2.878   7.347   4.778 -0.1989  0.0031 -0.0642
  352MOL    H1242834   2.980   7.380   4.798 -0.6278  0.9204  0.6770
  352MOL    H1342835   2.854   7.278   4.859  0.2301  0.0128  0.0699
  352MOL    C1442836   2.809   7.483   4.789 -0.4486  0.0375  0.1677
  352MOL    F1542837   2.869   7.570   4.705 -0.4603  0.6109  0.0342
  352MOL    F1642838   2.683   7.480   4.749 -0.1291 -0.6081  0.9547
  352MOL    C1742839   2.810   7.538   4.931 -0.2633  0.4312  0.1835
  352MOL    H1842840   2.905   7.502   4.970 -0.8489 -0.5169  0.7594
  352MOL    H1942841   2.741   7.493   5.001  1.6989 -2.2802  0.4359
  352MOL    C2042842   2.785   7.689   4.941 -0.4677 -0.1874 -0.0224
  352MOL    F2142843   2.802   7.718   5.072 -0.0773 -0.1636  0.2188
  352MOL    F2242844   2.872   7.766   4.868  0.5536 -0.3897  0.4462
  352MOL    C2342845   2.640   7.734   4.899  0.1166 -0.0834 -0.5744
  352MOL    H2442846   2.576   7.674   4.964  1.5445  0.8272  1.7282
  352MOL    H2542847   2.620   7.699   4.798 -0.8480  1.4457 -0.9295
  352MOL    C2642848   2.604   7.888   4.919 -0.2317  0.3005 -0.2988
  352MOL    F2742849   2.616   7.911   5.043  0.9527  0.0639 -0.1316
  352MOL    F2842850   2.699   7.956   4.855 -0.0992 -0.6481  0.1494
  352MOL    C2942851   2.465   7.934   4.892 -0.6696  0.0060 -0.9387
  352MOL    H3042852   2.461   8.037   4.927  2.0093  0.1796 -1.0655
  352MOL    H3142853   2.400   7.869   4.950  1.0596 -2.0009 -1.2125
  352MOL    C3242854   2.427   7.924   4.743  0.6713 -0.5296  0.0193
  352MOL    F3342855   2.521   7.981   4.662 -0.1531  0.0864  0.1650
  352MOL    F3442856   2.424   7.786   4.711 -0.3481  0.0531  0.0830
  352MOL    C3542857   2.283   7.983   4.717 -0.0830  0.2352 -0.0685
  352MOL    H3642858   2.296   8.091   4.724  1.1689  0.0000  1.4817
  352MOL    H3742859   2.220   7.952   4.800 -1.5191  1.0100 -0.8463
  352MOL    C3842860   2.218   7.950   4.581 -0.0643  0.1411  0.7088
  352MOL    F3942861   2.171   7.830   4.598  0.0820 -0.1857 -0.5090
  352MOL    F4042862   2.116   8.033   4.570  0.3475  0.3624 -1.2416
  352MOL    C4142863   2.303   7.952   4.454  0.1385  0.0377 -0.2455
  352MOL    H4242864   2.393   7.890   4.461  0.7966  1.1567  1.6272
  352MOL    H4342865   2.345   8.052   4.445  2.3055 -0.9574 -1.5386
  352MOL    C4442866   2.236   7.899   4.326 -0.6021  0.6410  0.0212
  352MOL    F4542867   2.127   7.971   4.305 -0.2138 -0.0636  0.1586
  352MOL    F4642868   2.327   7.925   4.229  0.8576 -0.1631 -0.1372
  352MOL    C4742869   2.192   7.748   4.317 -0.1822 -0.4798  0.0301
  352MOL    H4842870   2.126   7.724   4.400 -1.1106  0.5672 -0.3994
  352MOL    H4942871   2.278   7.684   4.341  1.0283  1.6779  1.6520
  352MOL    C5042872   2.122   7.703   4.186  0.3837 -0.3611 -0.0733
  352MOL    F5142873   2.008   7.778   4.165 -0.0789  0.5678  0.5719
  352MOL    F5242874   2.200   7.720   4.084  0.1435  0.4716  0.4161
  352MOL    C5342875   2.076   7.556   4.189 -0.2197  0.6306 -0.0542
  352MOL    H5442876   1.996   7.541   4.261 -0.8184  0.3256 -0.7713
  352MOL    H5542877   2.156   7.493   4.229 -0.8975  1.7549  3.2082
  352MOL    C5642878   2.017   7.486   4.060  0.1018  0.2636  0.3692
  352MOL    F5742879   2.100   7.517   3.947  0.4066 -0.3625 -0.4866
  352MOL    F5842880   2.008   7.360   4.084 -0.0440 -0.3771  0.1539
  352MOL    C5942881   1.866   7.536   4.023  0.1400  0.4336  0.1708
  352MOL    H6042882   1.869   7.643   4.002 -2.9425  0.1227 -2.2028
  352MOL    H6142883   1.815   7.537   4.119 -1.1256 -0.6911 -0.4770
  352MOL    C6242884   1.783   7.458   3.914  0.3556  0.4184  0.8638
  352MOL    F6342885   1.785   7.330   3.934 -0.3542  0.4359  0.1464
  352MOL    F6442886   1.656   7.508   3.920  0.2076  0.0536  0.4567
  352MOL    C6542887   1.836   7.488   3.770  0.2461 -0.0162  0.1498
  352MOL    H6642888   1.940   7.458   3.757  0.2726  0.3469 -0.4800
  352MOL    H6742889   1.846   7.594   3.750  0.7381 -0.4139 -1.8080
  352MOL    C6842890   1.764   7.428   3.649  0.4059 -0.2068  0.7299
  352MOL    F6942891   1.762   7.295   3.665 -0.8654 -0.7203  0.0115
  352MOL    F7042892   1.634   7.463   3.637  0.1453  0.3896 -0.1325
  352MOL    C7142893   1.839   7.465   3.519 -0.3201 -0.1346  0.2885
  352MOL    H7242894   1.947   7.470   3.531 -0.2466 -2.3797  0.8204
  352MOL    H7342895   1.806   7.567   3.501  2.4043  0.4201 -1.7865
  352MOL    C7442896   1.802   7.381   3.394 -0.5146  0.1412 -0.0029
  352MOL    F7542897   1.840   7.256   3.423  0.2826  0.2178  0.4697
  352MOL    F7642898   1.671   7.381   3.382 -0.0803 -0.3008 -0.0241
  352MOL    C7742899   1.861   7.415   3.259 -0.1917 -0.2346  0.6410
  352MOL    H7842900   1.970   7.414   3.270  0.0056 -0.8237 -1.2595
  352MOL    H7942901   1.839   7.521   3.258  0.8681 -0.0109 -1.5324
  352MOL    C8042902   1.815   7.343   3.133 -0.3751  0.2825 -0.2917
  352MOL    F8142903   1.683   7.339   3.142  0.1256  0.5575 -0.5119
  352MOL    F8242904   1.845   7.419   3.030  0.1109  0.4461 -0.0019
  352MOL    C8342905   1.863   7.196   3.112  0.4900 -0.2017  0.8771
  352MOL    H8442906   1.814   7.154   3.024  0.4317 -1.2670  1.4072
  352MOL    H8542907   1.835   7.135   3.198 -0.1257 -0.1921  0.6831
  352MOL    C8642908   2.017   7.171   3.089 -0.1606  0.0698 -0.0429
  352MOL    F8742909   2.063   7.272   3.011  0.2526  0.6274 -0.0900
  352MOL    F8842910   2.074   7.187   3.208 -0.2776 -0.1169  0.1353
  352MOL    C8942911   2.067   7.035   3.041 -0.1727 -0.7705  0.4593
  352MOL    H9042912   2.056   6.956   3.116  2.5499 -1.9136 -0.2719
  352MOL    H9142913   2.175   7.040   3.026 -0.5949  0.9746 -2.2358
  352MOL    C9242914   2.005   6.985   2.912  0.0193 -0.1893  0.3890
  352MOL    F9342915   1.875   6.944   2.934 -0.2372  0.0194  0.2965
  352MOL    F9442916   2.008   7.081   2.828  0.6420 -0.1836  0.7136
  352MOL    C9542917   2.066   6.860   2.847 -0.0691  0.6344 -0.3827
  352MOL    H9642918   2.164   6.893   2.812  0.6770  0.7227  1.7535
  352MOL    H9742919   2.004   6.828   2.763  0.5825 -1.2349 -0.1871
  352MOL    C9842920   2.103   6.730   2.923 -0.0172 -0.5125  0.2715
  352MOL    F9942921   2.145   6.647   2.832  0.0453  0.2948  0.0974
  352MOL   F10042922   2.202   6.761   3.005 -0.5568  0.0381  0.4316
  352MOL   C10142923   1.992   6.672   3.008  0.2607 -0.1081 -0.0108
  352MOL   H10242924   1.905   6.653   2.945 -0.4267  1.2604  0.5192
  352MOL   H10342925   1.953   6.727   3.093 -1.8517 -2.9770  0.9764
  352MOL   C10442926   2.028   6.534   3.074  0.3325  0.1345  0.4515
  352MOL   F10542927   2.038   6.456   2.964  0.2088 -0.2920 -0.2178
  352MOL   F10642928   2.146   6.537   3.137 -0.0658 -0.0484 -0.0117
  352MOL   C10742929   1.930   6.471   3.171  0.9027 -0.3447  0.3742
  352MOL   H10842930   1.947   6.510   3.272 -0.8192  0.3273  0.4146
  352MOL   H10942931   1.948   6.364   3.179 -0.1123 -0.6952 -1.7272
  352MOL   C11042932   1.782   6.486   3.148  0.7523 -0.7745 -0.5814
  352MOL   F11142933   1.739   6.612   3.166 -0.7662 -0.5238  0.5533
  352MOL   F11242934   1.745   6.455   3.024 -0.6877  0.4168  0.4223
  352MOL   C11342935   1.694   6.400   3.236  0.0194  0.2367  0.0416
  352MOL   H11442936   1.703   6.297   3.200  1.6170  0.0289  0.9661
  352MOL   H11542937   1.594   6.436   3.214 -1.1363 -0.9701  2.9850
  352MOL   C11642938   1.706   6.409   3.390 -0.0114  0.0043  0.4139
  352MOL   F11742939   1.597   6.343   3.436 -0.2420 -0.1406 -0.2741
  352MOL   F11842940   1.805   6.333   3.425 -0.4024  0.0240 -0.1094
  352MOL   C11942941   1.719   6.543   3.456  0.6045  0.9845 -0.0991
  352MOL   H12042942   1.649   6.613   3.410  0.4597 -0.5737 -2.3289
  352MOL   H12142943   1.822   6.577   3.452  0.6937  0.8139  0.7167
  352MOL   H12242944   1.700   6.535   3.563  0.0226 -1.2121 -0.3424
  353MOL     C142945   3.215   7.594   4.824  0.1170 -0.8004 -0.5778
  353MOL     F242946   3.150   7.534   4.729 -0.6580 -0.8113  0.5572
  353MOL     F342947   3.125   7.627   4.920 -0.5898  0.2448 -0.0674
  353MOL     C442948   3.295   7.721   4.772  0.7325  0.6459 -0.1489
  353MOL     H542949   3.223   7.801   4.753  0.5943  0.2644 -1.2738
  353MOL     H642950   3.343   7.686   4.681  1.7184 -0.8422  0.9210
  353MOL     H742951   3.281   7.517   4.864  0.5893 -0.6827 -1.1275
  353MOL     C842952   3.392   7.780   4.872 -0.3944 -0.2782  0.5371
  353MOL     F942953   3.338   7.809   4.989 -0.0480 -0.2328  0.7057
  353MOL    F1042954   3.508   7.708   4.895  0.5976 -0.1507 -0.1626
  353MOL    C1142955   3.445   7.920   4.815 -0.0213  0.2166 -0.1186
  353MOL    H1242956   3.365   7.969   4.761  0.6299 -0.0405 -1.3364
  353MOL    H1342957   3.516   7.895   4.735  0.7771  0.8179  0.3909
  353MOL    C1442958   3.523   8.022   4.894  0.0354  1.0266 -0.2550
  353MOL    F1542959   3.529   8.128   4.810  0.2492  0.1520 -0.0693
  353MOL    F1642960   3.454   8.045   5.006  0.1971 -0.1447 -0.0349
  353MOL    C1742961   3.667   7.979   4.941  0.2660 -0.0183 -0.5350
  353MOL    H1842962   3.732   7.950   4.858 -0.9548  3.7355 -2.9287
  353MOL    H1942963   3.653   7.880   4.986 -3.4575  1.2028  1.1675
  353MOL    C2042964   3.755   8.078   5.027  0.8940 -0.2026  0.6418
  353MOL    F2142965   3.707   8.101   5.148 -0.4335 -0.1661 -0.1136
  353MOL    F2242966   3.876   8.013   5.050 -0.5303 -0.0943 -0.0730
  353MOL    C2342967   3.776   8.219   4.950  0.9605 -0.0317 -0.0522
  353MOL    H2442968   3.677   8.255   4.922  1.1098  1.2120  0.9598
  353MOL    H2542969   3.831   8.192   4.860 -1.0351  2.1928 -2.0200
  353MOL    C2642970   3.853   8.332   5.030 -0.2564  0.7019  0.0964
  353MOL    F2742971   3.960   8.264   5.068  0.1453 -0.2905  0.1746
  353MOL    F2842972   3.903   0.061   4.938 -0.0352 -0.1583  0.0885
  353MOL    C2942973   3.781   0.050   5.144  0.8216  0.4499  0.3204
  353MOL    H3042974   3.849   0.107   5.208 -0.9523  0.8611  1.8757
  353MOL    H3142975   3.736   8.325   5.209 -0.3659  1.1082  0.2565
  353MOL    C3242976   3.664   0.153   5.099 -0.0630 -0.3543 -0.3096
  353MOL    F3342977   3.717   0.243   5.018  0.6877 -0.0054  0.2595
  353MOL    F3442978   3.583   0.067   5.028  0.2273 -0.1077 -0.2097
  353MOL    C3542979   3.579   0.227   5.210 -0.3892 -0.1694 -0.5677
  353MOL    H3642980   3.500   0.283   5.159 -1.5682 -0.5805  0.7883
  353MOL    H3742981   3.641   0.308   5.249 -1.7023  0.8280 -0.5368
  353MOL    C3842982   3.528   0.143   5.336 -0.5606  0.1411 -0.0568
  353MOL    F3942983   3.474   0.035   5.297 -0.1067  0.6839  0.2677
  353MOL    F4042984   3.633   0.114   5.413  0.0058  0.3774  0.0022
  353MOL    C4142985   3.431   0.227   5.419 -0.0439  0.1239 -0.2120
  353MOL    H4242986   3.346   0.250   5.355  0.5938  1.0636 -0.7254
  353MOL    H4342987   3.471   0.325   5.446 -2.1802  1.8863 -3.1587
  353MOL    C4442988   3.372   0.169   5.549  0.0882  0.1947  0.8620
  353MOL    F4542989   3.468   0.115   5.627 -0.2386  0.1625 -0.1464
  353MOL    F4642990   3.321   0.270   5.618  0.1160 -0.4524  0.2822
  353MOL    C4742991   3.262   0.068   5.526 -0.6447  0.3184 -0.5703
  353MOL    H4842992   3.293   8.342   5.454  0.2714  1.1097 -1.0099
  353MOL    H4942993   3.173   0.119   5.489 -0.9851  1.0469  1.2343
  353MOL    C5042994   3.201   8.340   5.646 -0.1716 -1.1038  0.4142
  353MOL    F5142995   3.313   8.294   5.706  0.0538 -0.1942  0.2997
  353MOL    F5242996   3.151   0.081   5.729  0.0107  0.2412 -0.1229
  353MOL    C5342997   3.096   8.236   5.605 -0.2235  0.5158 -0.5812
  353MOL    H5442998   3.130   8.158   5.536 -0.4506  0.7351 -0.9395
  353MOL    H5542999   3.023   8.297   5.552 -0.5521  0.1259 -0.5735
  353MOL    C5643000   3.008   8.189   5.733  0.3994  0.1560 -0.0179
  353MOL    F5743001   2.947   8.294   5.782 -0.2238  0.1559  0.0538
  353MOL    F5843002   2.920   8.110   5.680  0.2542  0.2269  0.1770
  353MOL    C5943003   3.081   8.110   5.836 -0.6334  0.3146  0.2343
  353MOL    H6043004   3.172   8.164   5.862 -0.0240 -1.1824  1.2663
  353MOL    H6143005   3.117   8.020   5.786 -1.9083  0.1533 -0.4213
  353MOL    C6243006   3.005   8.074   5.965  0.3627 -0.8989  0.1755
  353MOL    F6343007   3.076   7.978   6.022  0.2315 -0.1286  0.2640
  353MOL    F6443008   3.019   8.182   6.040 -0.4098  0.1077 -0.0898
  353MOL    C6543009   2.855   8.029   5.951  1.1304  0.3262  0.0500
  353MOL    H6643010   2.839   7.951   5.876 -2.5141 -0.3163  1.3677
  353MOL    H6743011   2.802   8.114   5.908  0.0573 -0.0733  0.5357
  353MOL    C6843012   2.772   7.989   6.077  0.6729 -0.3934 -0.2718
  353MOL    F6943013   2.642   7.982   6.041  0.1380  0.0429 -0.4700
  353MOL    F7043014   2.814   7.873   6.130  0.1708  0.0407  0.1860
  353MOL    C7143015   2.761   8.099   6.189  0.1366 -0.1816  0.0081
  353MOL    H7243016   2.698   8.180   6.152  2.3991  0.7251 -2.0072
  353MOL    H7343017   2.859   8.146   6.201  0.7655 -1.3317 -0.4996
  353MOL    C7443018   2.709   8.042   6.331 -0.4412 -0.6617  0.0988
  353MOL    F7543019   2.607   7.961   6.313  0.1758  0.5449 -0.2511
  353MOL    F7643020   2.803   7.965   6.385  0.4384  0.0965 -0.1451
  353MOL    C7743021   2.672   8.161   6.431 -0.3068  0.2135 -0.5777
  353MOL    H7843022   2.635   8.124   6.527  2.7295  1.0878  1.0109
  353MOL    H7943023   2.582   8.206   6.390 -2.1350 -2.2859  0.5792
  353MOL    C8043024   2.776   8.270   6.450  0.1515  0.1261  0.3897
  353MOL    F8143025   2.801   8.332   6.336  0.1911  0.1499  0.5786
  353MOL    F8243026   2.717   0.017   6.519 -0.0140  0.0620  0.0394
  353MOL    C8343027   2.904   8.231   6.527  0.2848  0.2505  0.0423
  353MOL    H8443028   2.969   8.164   6.471  3.1596  1.8232  1.4356
  353MOL    H8543029   2.871   8.192   6.624 -1.2326 -0.2732 -0.6616
  353MOL    C8643030   3.001   8.346   6.554 -0.2219 -0.3226 -0.3997
  353MOL    F8743031   2.963   0.060   6.665  0.1304 -0.1555  0.8239
  353MOL    F8843032   3.109   8.281   6.588  0.3314  0.1903  0.4012
  353MOL    C8943033   3.047   0.092   6.447 -0.1569  0.1414 -0.0471
  353MOL    H9043034   3.110   0.162   6.504 -0.7648  1.2114 -0.6692
  353MOL    H9143035   2.956   0.142   6.416  1.9721  2.9956 -1.9715
  353MOL    C9243036   3.123   0.029   6.330  0.9076  0.0576  0.3106
  353MOL    F9343037   3.238   8.332   6.371 -0.2050 -0.6155 -0.2078
  353MOL    F9443038   3.059   8.272   6.275  0.1931 -0.2827  0.6697
  353MOL    C9543039   3.156   0.122   6.211 -0.3426  0.3142  0.8604
  353MOL    H9643040   3.055   0.131   6.171 -0.8367  1.2672  2.2635
  353MOL    H9743041   3.224   0.075   6.141 -3.5326 -1.8008 -0.9454
  353MOL    C9843042   3.222   0.259   6.251  0.1828 -0.3147  0.5408
  353MOL    F9943043   3.129   0.327   6.313  0.2031  0.1068 -0.2616
  353MOL   F10043044   3.316   0.227   6.331  0.1166  0.1284  0.7060
  353MOL   C10143045   3.278   0.350   6.132  0.3815 -0.2716  0.3147
  353MOL   H10243046   3.346   0.282   6.080  0.3880 -1.3773  1.7628
  353MOL   H10343047   3.337   0.430   6.176  0.4111 -0.8391  1.3318
  353MOL   C10443048   3.172   0.402   6.026 -0.6226 -0.6879  0.3986
  353MOL   F10543049   3.087   0.302   5.987  0.0684  0.6995  0.4255
  353MOL   F10643050   3.098   0.504   6.074  0.3683 -0.4572 -0.2001
  353MOL   C10743051   3.252   0.463   5.910 -0.9552  0.4594  0.5198
  353MOL   H10843052   3.308   0.380   5.867 -1.1215  0.5941  0.0287
  353MOL   H10943053   3.322   0.531   5.957  1.4387 -3.4801  2.9060
  353MOL   C11043054   3.177   0.539   5.791 -0.0210  0.9949 -0.0863
  353MOL   F11143055   3.111   0.641   5.842 -0.1043 -0.3865  0.2897
  353MOL   F11243056   3.266   0.589   5.699  0.4340 -0.1233  0.1233
  353MOL   C11343057   3.073   0.437   5.730  0.0846  0.3676 -0.5516
  353MOL   H11443058   3.003   0.420   5.812  0.1649  1.3799 -0.2651
  353MOL   H11543059   3.113   0.338   5.706  0.8471  0.5012  0.1392
  353MOL   C11643060   3.004   0.472   5.596 -1.3394  0.0254 -0.1324
  353MOL   F11743061   2.951   0.591   5.591  0.2978 -0.2714 -0.9161
  353MOL   F11843062   3.081   0.467   5.484 -0.1818 -0.0151  0.2062
  353MOL   C11943063   2.896   0.364   5.574 -0.0648  0.4687  0.1852
  353MOL   H12043064   2.812   0.374   5.642 -0.4185 -1.0389 -0.0186
  353MOL   H12143065   2.936   0.264   5.587 -1.2400  0.2232  1.9818
  353MOL   H12243066   2.853   0.362   5.474 -1.4282 -0.9461  0.7935
  354MOL     C143067   5.285   1.215   1.562  1.1249  0.0410 -0.3491
  354MOL     F243068   5.344   1.135   1.471  0.2275 -1.0829  0.4584
  354MOL     F343069   5.213   1.321   1.510  0.2066  0.0724 -0.5761
  354MOL     C443070   5.379   1.266   1.673  0.1086 -0.1547  0.1844
  354MOL     H543071   5.423   1.179   1.722 -0.4231 -1.0884 -0.9723
  354MOL     H643072   5.333   1.337   1.742  0.7475  0.9013 -0.4676
  354MOL     H743073   5.212   1.151   1.611  1.2304 -1.1398 -1.6748
  354MOL     C843074   5.492   1.354   1.622  0.0432  0.0679  0.5397
  354MOL     F943075   5.436   1.461   1.563  0.3236  0.0050 -0.2771
  354MOL    F1043076   5.563   1.397   1.727 -0.3922 -0.1085  0.2572
  354MOL    C1143077   5.592   1.286   1.524 -0.3545 -0.4799  0.0519
  354MOL    H1243078   5.542   1.286   1.427  0.2026 -1.4533 -0.2434
  354MOL    H1343079   5.599   1.182   1.555 -1.0740 -0.3844  0.5621
  354MOL    C1443080   5.730   1.354   1.515  0.2166 -0.1916 -0.2647
  354MOL    F1543081   5.804   1.323   1.623 -0.0074  0.6529 -0.1639
  354MOL    F1643082   5.802   1.285   1.428 -0.2174  0.0082 -0.0941
  354MOL    C1743083   5.729   1.505   1.487 -1.1776  0.4937  0.0249
  354MOL    H1843084   5.823   1.552   1.516 -2.3998  1.5755  2.3355
  354MOL    H1943085   5.660   1.549   1.559 -1.3112 -1.5377  1.1659
  354MOL    C2043086   5.684   1.544   1.339  0.0438  0.2288 -0.4221
  354MOL    F2143087   5.766   1.486   1.256  0.4674  0.1592  0.3358
  354MOL    F2243088   5.562   1.495   1.317  0.7439  0.0654  0.2020
  354MOL    C2343089   5.675   1.694   1.304 -0.8189  0.1054 -0.0094
  354MOL    H2443090   5.615   1.741   1.382 -0.7702  0.1389  0.0078
  354MOL    H2543091   5.633   1.717   1.206  1.6520 -2.2867 -1.7047
  354MOL    C2643092   5.811   1.771   1.308 -0.3517 -0.0182  0.3185
  354MOL    F2743093   5.877   1.747   1.426 -0.0054 -0.5945  0.3805
  354MOL    F2843094   5.898   1.725   1.212 -0.0663  0.5908  0.3163
  354MOL    C2943095   5.786   1.923   1.298  0.3433  0.2386  0.0230
  354MOL    H3043096   5.882   1.973   1.314  2.0962 -3.1676  0.6000
  354MOL    H3143097   5.708   1.951   1.370  1.8092  0.2386  1.6552
  354MOL    C3243098   5.735   1.974   1.161 -0.1626  0.1228 -0.4138
  354MOL    F3343099   5.805   1.920   1.065  0.1811 -0.2546  0.0010
  354MOL    F3443100   5.607   1.934   1.170  0.0605  0.7690  0.3837
  354MOL    C3543101   5.740   2.126   1.141  0.4311 -0.0492 -0.0308
  354MOL    H3643102   5.692   2.140   1.044  0.0203  1.1673  0.3469
  354MOL    H3743103   5.846   2.150   1.134  0.7165 -0.7331  1.7440
  354MOL    C3843104   5.660   2.215   1.247  0.0050 -0.6765 -0.5070
  354MOL    F3943105   5.535   2.172   1.265  0.0033 -0.1851  0.1929
  354MOL    F4043106   5.726   2.223   1.365 -0.0966  0.3908  0.1586
  354MOL    C4143107   5.660   2.355   1.187  0.0875 -0.6164 -0.8686
  354MOL    H4243108   5.603   2.350   1.094 -2.3657 -0.4340  0.5854
  354MOL    H4343109   5.758   2.384   1.150  0.5339 -1.1628 -0.1434
  354MOL    C4443110   5.605   2.462   1.279 -0.2163 -0.0896  0.2062
  354MOL    F4543111   5.594   2.573   1.203  0.2975  0.2873  0.1686
  354MOL    F4643112   5.483   2.419   1.322 -0.6164  0.1081  0.2888
  354MOL    C4743113   5.694   2.511   1.397  0.2295 -0.6608  0.0366
  354MOL    H4843114   5.703   2.427   1.465  1.7749  0.5486  1.3797
  354MOL    H4943115   5.648   2.594   1.452 -0.2232 -0.8716 -0.0215
  354MOL    C5043116   5.841   2.556   1.369  0.5228 -0.2086 -0.0489
  354MOL    F5143117   5.906   2.448   1.330  0.3533  0.4335  0.4846
  354MOL    F5243118   5.836   2.635   1.264 -0.3434 -0.2019  0.1528
  354MOL    C5343119   5.902   2.630   1.487  0.2599 -0.3428  0.1605
  354MOL    H5443120   5.850   2.722   1.513  1.0061  0.2214 -0.3147
  354MOL    H5543121   6.005   2.660   1.467 -0.0358  1.3689  1.1066
  354MOL    C5643122   5.920   2.548   1.610  0.1754  0.4480  0.3673
  354MOL    F5743123   5.802   2.529   1.679  0.2491  0.5885  0.5883
  354MOL    F5843124   5.978   2.429   1.583  0.0907  0.4309 -0.0163
  354MOL    C5943125   6.020   2.617   1.709 -0.4398  0.5873 -0.3403
  354MOL    H6043126   6.114   2.643   1.660 -1.1092 -0.9020 -2.4337
  354MOL    H6143127   6.044   2.543   1.785  3.1231  1.0520 -0.8945
  354MOL    C6243128   5.969   2.749   1.782 -0.0975  1.0725  0.0053
  354MOL    F6343129   6.053   2.775   1.884  0.3322  0.0517 -0.2297
  354MOL    F6443130   5.987   2.841   1.695 -0.0695 -0.5667  0.3823
  354MOL    C6543131   5.821   2.758   1.837  0.3921  0.3222 -1.1445
  354MOL    H6643132   5.747   2.742   1.759 -0.9011  0.5082  0.0213
  354MOL    H6743133   5.786   2.859   1.861  0.2529 -0.3045  1.5248
  354MOL    C6843134   5.787   2.665   1.964 -0.1544  0.1570  0.3996
  354MOL    F6943135   5.823   2.543   1.927 -0.2440  0.2812 -0.0613
  354MOL    F7043136   5.864   2.704   2.069  0.5912  0.6653 -0.1046
  354MOL    C7143137   5.644   2.673   2.003  0.2229 -0.1016  0.1173
  354MOL    H7243138   5.584   2.637   1.919  0.9633 -0.5668 -0.2171
  354MOL    H7343139   5.618   2.779   2.009 -2.7756 -0.7599 -0.5624
  354MOL    C7443140   5.595   2.595   2.124 -0.0121  0.0483  0.9757
  354MOL    F7543141   5.624   2.467   2.102  0.0184 -0.1873  0.4219
  354MOL    F7643142   5.672   2.621   2.232 -0.0771  0.0979  0.1428
  354MOL    C7743143   5.446   2.612   2.149 -0.5697  0.3396 -0.1753
  354MOL    H7843144   5.382   2.590   2.064 -2.2132  1.6282  0.7039
  354MOL    H7943145   5.429   2.717   2.173 -1.2504  0.3097 -0.5275
  354MOL    C8043146   5.395   2.533   2.277 -0.1672 -0.5627 -0.1662
  354MOL    F8143147   5.445   2.591   2.386  0.2135  0.5634  0.6694
  354MOL    F8243148   5.263   2.555   2.284  0.3364  0.3921  0.5852
  354MOL    C8343149   5.412   2.380   2.273  0.0637  0.5079 -0.0617
  354MOL    H8443150   5.371   2.348   2.368 -0.2998 -0.7189 -0.6166
  354MOL    H8543151   5.513   2.340   2.276 -0.1839 -0.5264 -3.1115
  354MOL    C8643152   5.334   2.313   2.157 -0.2508  0.6013 -0.6369
  354MOL    F8743153   5.205   2.338   2.171  0.1177  0.2154  0.0948
  354MOL    F8843154   5.368   2.360   2.028  0.2363  0.0023  0.1208
  354MOL    C8943155   5.330   2.154   2.162  0.3139  0.4053  0.3718
  354MOL    H9043156   5.244   2.118   2.104  2.6665  0.2222 -3.1528
  354MOL    H9143157   5.313   2.114   2.262  0.0138  0.0577  0.1842
  354MOL    C9243158   5.460   2.081   2.090  0.3598  0.3666 -0.4686
  354MOL    F9343159   5.467   2.114   1.960 -0.5078 -0.0578 -0.4235
  354MOL    F9443160   5.573   2.137   2.146  0.0936  0.3929  0.4099
  354MOL    C9543161   5.455   1.926   2.104 -0.3532  0.0209  0.0549
  354MOL    H9643162   5.368   1.894   2.047 -0.2630  2.4332 -1.4667
  354MOL    H9743163   5.435   1.899   2.208 -2.4362  2.1733  0.2503
  354MOL    C9843164   5.585   1.842   2.058 -0.1093 -0.4696 -0.9370
  354MOL    F9943165   5.693   1.907   2.103 -0.2951  0.3111  0.4153
  354MOL   F10043166   5.572   1.728   2.122  0.3327 -0.3530 -0.4288
  354MOL   C10143167   5.606   1.823   1.906  0.1746  0.5148 -0.2691
  354MOL   H10243168   5.581   1.914   1.852 -1.9504  0.5330  0.6825
  354MOL   H10343169   5.526   1.754   1.876 -0.3249 -1.0461  4.2953
  354MOL   C10443170   5.744   1.767   1.857 -0.2516  0.2244 -0.2619
  354MOL   F10543171   5.725   1.734   1.720 -0.5207 -0.2789 -0.2194
  354MOL   F10643172   5.829   1.869   1.862 -0.3402  0.3322 -0.0411
  354MOL   C10743173   5.792   1.643   1.941 -0.3803 -0.9259  0.4212
  354MOL   H10843174   5.710   1.570   1.940 -1.9458  0.7998  0.4561
  354MOL   H10943175   5.814   1.673   2.043  3.7335 -0.0061 -0.6571
  354MOL   C11043176   5.926   1.584   1.891  0.8054  0.5094 -0.2084
  354MOL   F11143177   5.941   1.608   1.760  0.5362 -0.0492  0.3035
  354MOL   F11243178   6.023   1.646   1.947  0.6146  0.0890 -0.2667
  354MOL   C11343179   5.941   1.431   1.911  0.5533  0.4513 -0.3514
  354MOL   H11443180   6.016   1.392   1.842 -0.4804  0.9476 -1.7897
  354MOL   H11543181   5.848   1.393   1.867 -0.4251  0.3575  1.7329
  354MOL   C11643182   5.971   1.382   2.053  0.6897 -0.5837  0.0393
  354MOL   F11743183   6.098   1.413   2.071 -0.0684 -0.4054 -0.0674
  354MOL   F11843184   5.888   1.447   2.140  0.0772 -0.0783 -0.1348
  354MOL   C11943185   5.946   1.231   2.068  0.0713  0.3639 -0.6072
  354MOL   H12043186   5.971   1.194   2.168 -1.4955  1.3289  0.1524
  354MOL   H12143187   6.011   1.167   2.009 -1.4772 -1.1785 -0.6699
  354MOL   H12243188   5.839   1.219   2.054 -0.1601  0.7088  0.7933
  355MOL     C143189   5.665   2.957   2.371 -0.7561 -0.7814  0.2331
  355MOL     F243190   5.585   2.915   2.271 -0.1749 -0.5281 -0.1996
  355MOL     F343191   5.614   2.901   2.477  0.4970 -0.2202 -0.1301
  355MOL     C443192   5.653   3.105   2.400  0.2863  0.1873  0.4044
  355MOL     H543193   5.551   3.136   2.421 -0.6552 -2.9338  0.5998
  355MOL     H643194   5.685   3.147   2.304  1.4767 -3.3987 -0.8490
  355MOL     H743195   5.767   2.922   2.360 -0.6343 -0.4558  0.3085
  355MOL     C843196   5.737   3.164   2.519  0.4387 -0.1231  0.1623
  355MOL     F943197   5.703   3.102   2.632 -0.5208 -0.2699  0.1176
  355MOL    F1043198   5.863   3.129   2.503 -0.1464  0.0784 -0.3520
  355MOL    C1143199   5.738   3.315   2.553  0.0105 -0.0891 -0.6110
  355MOL    H1243200   5.759   3.379   2.467  0.1160 -1.3764 -1.5536
  355MOL    H1343201   5.832   3.329   2.607  0.7139 -0.8166 -1.6314
  355MOL    C1443202   5.617   3.362   2.634  0.1099  0.4340 -0.0825
  355MOL    F1543203   5.507   3.344   2.550  0.1442 -0.2413  0.3599
  355MOL    F1643204   5.586   3.292   2.747  0.1164  0.1755  0.1154
  355MOL    C1743205   5.629   3.514   2.670 -0.2960 -0.0264 -0.1573
  355MOL    H1843206   5.678   3.563   2.586 -0.7470  1.5150  0.4596
  355MOL    H1943207   5.685   3.526   2.763 -2.2638 -1.8174  1.3105
  355MOL    C2043208   5.486   3.579   2.691  0.4745  0.4667 -0.9916
  355MOL    F2143209   5.523   3.704   2.717  0.4100  0.4482  0.4907
  355MOL    F2243210   5.416   3.584   2.576 -1.0652 -0.0571  0.2696
  355MOL    C2343211   5.399   3.548   2.821  0.0344 -0.8429  0.0711
  355MOL    H2443212   5.382   3.441   2.812 -3.7094 -0.2831 -0.4689
  355MOL    H2543213   5.306   3.604   2.810  0.8430  0.6665  0.7522
  355MOL    C2643214   5.463   3.579   2.960  0.1874 -0.1210 -0.7202
  355MOL    F2743215   5.554   3.478   2.979 -1.0411  0.2040  0.0457
  355MOL    F2843216   5.523   3.696   2.962  0.6234 -0.1961 -0.3317
  355MOL    C2943217   5.366   3.578   3.083  0.2127 -0.1443 -0.5870
  355MOL    H3043218   5.302   3.492   3.068 -1.5758  0.7795  1.5574
  355MOL    H3143219   5.306   3.667   3.064  0.2969  0.2120  0.7644
  355MOL    C3243220   5.434   3.579   3.228  0.6749 -0.0386  0.0205
  355MOL    F3343221   5.524   3.477   3.236 -0.1837 -0.0486 -0.6713
  355MOL    F3443222   5.495   3.697   3.260 -0.2812  0.7649 -0.2694
  355MOL    C3543223   5.319   3.552   3.328  1.1308  0.0938 -0.1497
  355MOL    H3643224   5.268   3.461   3.297 -1.3642  0.6079  2.2884
  355MOL    H3743225   5.244   3.630   3.311 -0.5213 -1.0596  1.6345
  355MOL    C3843226   5.361   3.542   3.469 -0.0401 -0.4608 -0.2374
  355MOL    F3943227   5.451   3.448   3.487  0.3078  0.5150 -0.0607
  355MOL    F4043228   5.422   3.652   3.504  0.2052 -0.0683 -0.2369
  355MOL    C4143229   5.237   3.521   3.557 -0.2623 -0.8190  0.4435
  355MOL    H4243230   5.209   3.415   3.551  0.3991 -1.1139  2.2433
  355MOL    H4343231   5.149   3.573   3.520  0.5297 -1.1357 -1.9485
  355MOL    C4443232   5.254   3.566   3.706  0.0592  0.6062  0.1372
  355MOL    F4543233   5.161   3.515   3.779  0.5009  0.2347  0.4414
  355MOL    F4643234   5.367   3.503   3.737  0.1565 -0.4377  0.0862
  355MOL    C4743235   5.276   3.717   3.731 -0.3720 -0.1596 -0.7651
  355MOL    H4843236   5.372   3.751   3.693 -0.1679 -1.9736 -1.9525
  355MOL    H4943237   5.280   3.736   3.839  2.5298  2.5475 -1.2838
  355MOL    C5043238   5.159   3.808   3.682  0.6647  0.0158  0.0205
  355MOL    F5143239   5.140   3.799   3.549 -0.1249  0.6356  0.3585
  355MOL    F5243240   5.046   3.764   3.731  0.3070  0.0008  0.0579
  355MOL    C5343241   5.169   3.959   3.705 -0.3119  0.2917 -0.3399
  355MOL    H5443242   5.084   4.005   3.655  1.3784  1.1621 -2.4998
  355MOL    H5543243   5.259   3.989   3.651 -1.3164 -0.4163 -2.4765
  355MOL    C5643244   5.178   3.998   3.853  0.0824 -0.1735 -0.0412
  355MOL    F5743245   5.086   3.942   3.929 -0.0814  0.0022  0.0876
  355MOL    F5843246   5.297   3.956   3.897 -0.1436  0.2501  0.3902
  355MOL    C5943247   5.184   4.149   3.882 -0.7534  0.3119 -0.2943
  355MOL    H6043248   5.085   4.174   3.844 -1.6034 -1.1276  0.8968
  355MOL    H6143249   5.263   4.189   3.818 -1.0736  0.7805 -0.3985
  355MOL    C6243250   5.205   4.190   4.026 -0.1826 -0.2932  0.1486
  355MOL    F6343251   5.314   4.141   4.070  0.2569 -0.1099 -0.1762
  355MOL    F6443252   5.218   4.321   4.003  0.4385 -0.3234  0.4632
  355MOL    C6543253   5.101   4.157   4.137 -0.0310  0.5480  0.0834
  355MOL    H6643254   5.070   4.053   4.147 -2.2135  1.2082  0.3973
  355MOL    H6743255   5.014   4.223   4.128 -1.1350 -1.0798 -1.7050
  355MOL    C6843256   5.153   4.179   4.285  0.2236 -0.0411 -0.6386
  355MOL    F6943257   5.056   4.157   4.373 -0.8294  0.2337 -0.4090
  355MOL    F7043258   5.255   4.104   4.317 -0.2336  0.3130  0.2415
  355MOL    C7143259   5.196   4.327   4.316 -0.2964  0.4354 -0.8041
  355MOL    H7243260   5.113   4.392   4.290 -0.7019  0.3397  0.2376
  355MOL    H7343261   5.272   4.347   4.241  1.3326 -0.8578  0.4671
  355MOL    C7443262   5.244   4.365   4.457 -0.0118 -0.2403 -0.3541
  355MOL    F7543263   5.218   4.490   4.466 -0.6015 -0.5490 -0.3599
  355MOL    F7643264   5.162   4.306   4.537  0.0516  0.1113  0.4337
  355MOL    C7743265   5.388   4.323   4.501  0.5525 -0.2183 -0.6907
  355MOL    H7843266   5.392   4.214   4.502  2.2539 -0.1841 -1.8795
  355MOL    H7943267   5.406   4.359   4.602  0.1211 -1.2644 -0.2343
  355MOL    C8043268   5.514   4.365   4.418  0.4974 -0.5734  0.1521
  355MOL    F8143269   5.491   4.490   4.376 -0.1090 -0.4885 -0.2450
  355MOL    F8243270   5.626   4.365   4.486  0.2969 -0.0126 -0.4136
  355MOL    C8343271   5.539   4.265   4.292 -0.1792 -0.6113 -0.0659
  355MOL    H8443272   5.455   4.244   4.226  0.0263 -1.0300 -0.1936
  355MOL    H8543273   5.559   4.170   4.342 -2.0082  0.3499  2.5899
  355MOL    C8643274   5.646   4.303   4.185 -0.3983 -0.3765 -0.0367
  355MOL    F8743275   5.618   4.422   4.140 -0.3200  0.6369  0.0299
  355MOL    F8843276   5.766   4.304   4.235 -0.1363 -0.2588 -0.6978
  355MOL    C8943277   5.661   4.199   4.071  0.8667  0.0371 -0.0405
  355MOL    H9043278   5.566   4.182   4.021  0.7904 -1.5786  0.6117
  355MOL    H9143279   5.677   4.100   4.115 -1.4420 -0.7571 -0.9083
  355MOL    C9243280   5.771   4.230   3.970  0.1798  0.7468  0.0729
  355MOL    F9343281   5.760   4.351   3.919  0.0561 -0.3467 -0.4372
  355MOL    F9443282   5.887   4.219   4.035  0.0094  0.0328  0.3125
  355MOL    C9543283   5.779   4.135   3.847  0.6716 -0.1818 -0.1985
  355MOL    H9643284   5.813   4.038   3.882  0.6985  0.5189  1.7814
  355MOL    H9743285   5.853   4.172   3.775  0.1845  0.2480 -0.4808
  355MOL    C9843286   5.663   4.115   3.757 -0.4831 -0.0420  0.0343
  355MOL    F9943287   5.578   4.035   3.819 -0.2289 -0.0583 -0.4847
  355MOL   F10043288   5.602   4.233   3.743 -0.1277  1.0424  0.5317
  355MOL   C10143289   5.700   4.068   3.611 -0.2184 -0.5199  0.0951
  355MOL   H10243290   5.769   3.983   3.611 -0.5989 -0.8405  0.8253
  355MOL   H10343291   5.756   4.143   3.556 -2.7107  1.9014  0.7386
  355MOL   C10443292   5.577   4.022   3.530 -0.5016  0.0604  0.3032
  355MOL   F10543293   5.503   3.939   3.600  0.6606  0.6012 -0.4622
  355MOL   F10643294   5.507   4.127   3.500  0.2636 -0.2187  0.6453
  355MOL   C10743295   5.611   3.932   3.405 -0.4480 -0.2542  0.4295
  355MOL   H10843296   5.516   3.922   3.353  0.2451 -2.4479 -0.4940
  355MOL   H10943297   5.645   3.834   3.441  0.6509 -0.2974 -0.6718
  355MOL   C11043298   5.723   3.984   3.311 -0.6175 -0.2624 -0.3287
  355MOL   F11143299   5.715   4.117   3.287  0.0115 -0.4309 -0.3879
  355MOL   F11243300   5.841   3.948   3.368 -0.0376 -0.0181 -0.0390
  355MOL   C11343301   5.712   3.915   3.173  0.4372  0.0603 -0.6208
  355MOL   H11443302   5.618   3.948   3.128 -0.5923  0.5691  1.7948
  355MOL   H11543303   5.693   3.808   3.189  0.1311  0.1996 -0.0347
  355MOL   C11643304   5.839   3.926   3.085 -0.2123 -0.2581  0.2109
  355MOL   F11743305   5.869   4.049   3.072 -0.6615 -0.0957 -0.0973
  355MOL   F11843306   5.943   3.863   3.143 -0.6984  0.0108 -0.2245
  355MOL   C11943307   5.824   3.865   2.949  0.0869  0.2243 -0.5577
  355MOL   H12043308   5.748   3.916   2.890  0.6410  2.9016  0.9544
  355MOL   H12143309   5.793   3.760   2.948 -0.5661  0.4247 -1.4676
  355MOL   H12243310   5.913   3.864   2.887 -0.6221  0.2363 -1.5835
  356MOL     C143311   7.291   0.409   6.515 -0.3102  0.0989 -0.8881
  356MOL     F243312   7.285   0.316   6.420 -0.7097 -0.0920 -0.0623
  356MOL     F343313   7.260   0.368   6.638 -0.2589  0.4903  0.0819
  356MOL     C443314   7.184   0.505   6.469 -0.0992 -0.6554 -0.1071
  356MOL     H543315   7.086   0.462   6.490 -0.2319 -0.1501  0.3248
  356MOL     H643316   7.190   0.515   6.361  0.4893  1.5508  0.1043
  356MOL     H743317   7.389   0.456   6.509  0.2792 -1.0730 -0.4746
  356MOL     C843318   7.203   0.643   6.531  0.1530  0.1547 -0.4684
  356MOL     F943319   7.212   0.629   6.664 -0.2006 -0.7572 -0.0630
  356MOL    F1043320   7.324   0.693   6.491 -0.0267  0.7282  0.1323
  356MOL    C1143321   7.089   0.752   6.500 -0.0388 -0.6015  0.3450
  356MOL    H1243322   7.103   0.840   6.562 -1.2321 -1.8568  2.4608
  356MOL    H1343323   6.989   0.715   6.524 -0.0631 -0.7686 -0.0167
  356MOL    C1443324   7.090   0.807   6.362  0.4118  0.7520  0.4259
  356MOL    F1543325   7.206   0.868   6.335  0.0209  0.0481 -0.2055
  356MOL    F1643326   7.089   0.705   6.277  0.2281  0.3069 -0.1049
  356MOL    C1743327   6.976   0.901   6.318  0.1745  0.3976  0.6826
  356MOL    H1843328   6.968   0.995   6.374 -0.1192  1.3263 -0.8655
  356MOL    H1943329   6.882   0.846   6.328  1.1782 -1.8336 -1.7219
  356MOL    C2043330   6.975   0.945   6.167 -0.2624 -0.1855  0.0866
  356MOL    F2143331   6.943   0.837   6.090 -0.2174 -0.2290  1.0520
  356MOL    F2243332   6.881   1.036   6.157 -0.1312  0.1085  0.4719
  356MOL    C2343333   7.095   1.020   6.094 -0.2977 -0.4261 -0.3697
  356MOL    H2443334   7.179   0.952   6.102  0.1603  0.0791 -0.9052
  356MOL    H2543335   7.119   1.107   6.156  1.4547  2.3951 -4.7780
  356MOL    C2643336   7.072   1.073   5.947 -0.3067  0.5022  0.2127
  356MOL    F2743337   7.021   0.978   5.867 -0.4831  0.4149 -0.0181
  356MOL    F2843338   6.985   1.171   5.956  0.0945 -0.2584 -0.6014
  356MOL    C2943339   7.204   1.129   5.874  0.1258 -0.0300  0.0696
  356MOL    H3043340   7.242   1.208   5.940 -1.2308  1.2311 -0.6064
  356MOL    H3143341   7.168   1.187   5.789  0.7340  2.0994  1.2148
  356MOL    C3243342   7.311   1.033   5.828 -0.3734  0.1992 -0.0393
  356MOL    F3343343   7.410   1.031   5.918  0.3097 -0.0965  0.1140
  356MOL    F3443344   7.255   0.914   5.826  0.5827 -0.5733 -0.5141
  356MOL    C3543345   7.381   1.055   5.699 -0.7426  0.1265 -0.0886
  356MOL    H3643346   7.299   1.062   5.628  1.2892 -1.9962 -2.7604
  356MOL    H3743347   7.438   0.969   5.666 -1.2931 -0.0165 -0.6634
  356MOL    C3843348   7.470   1.186   5.679  0.3860  0.5599  0.4692
  356MOL    F3943349   7.394   1.296   5.683  0.4541  0.0822 -0.2712
  356MOL    F4043350   7.556   1.185   5.780 -0.1215 -0.3464 -0.3390
  356MOL    C4143351   7.541   1.185   5.546 -0.2725  0.9147  0.4294
  356MOL    H4243352   7.622   1.112   5.548 -0.4455  0.7241  0.6089
  356MOL    H4343353   7.588   1.283   5.534 -1.7444  1.7507  1.3244
  356MOL    C4443354   7.454   1.154   5.422  0.8119  0.0247  0.3022
  356MOL    F4543355   7.417   1.026   5.416 -0.3170 -0.6606 -0.0668
  356MOL    F4643356   7.340   1.222   5.433 -0.0553 -0.0496  0.0209
  356MOL    C4743357   7.510   1.195   5.283  0.1849  0.6063 -0.2701
  356MOL    H4843358   7.541   1.299   5.280 -0.8604  0.8806 -1.9337
  356MOL    H4943359   7.426   1.191   5.214 -0.1615 -0.2261  0.1939
  356MOL    C5043360   7.633   1.119   5.228 -0.7808 -0.3841 -0.1595
  356MOL    F5143361   7.730   1.122   5.318  0.4952 -0.0886 -0.3017
  356MOL    F5243362   7.608   0.991   5.203  0.8687 -0.3404  0.0183
  356MOL    C5343363   7.699   1.163   5.100  0.3060 -0.0295 -0.7409
  356MOL    H5443364   7.775   1.086   5.087 -1.1494 -1.3669 -1.5085
  356MOL    H5543365   7.756   1.252   5.124 -1.2647  0.6205  0.7255
  356MOL    C5643366   7.615   1.186   4.969  0.6010 -0.3332 -1.2474
  356MOL    F5743367   7.548   1.068   4.939 -0.7175  0.1069 -0.4378
  356MOL    F5843368   7.530   1.283   4.999 -0.0104 -0.5082  0.1424
  356MOL    C5943369   7.702   1.225   4.849 -0.1207 -0.3268  0.7170
  356MOL    H6043370   7.789   1.160   4.847  0.9310  1.0312  1.5635
  356MOL    H6143371   7.744   1.320   4.883 -0.1826  0.4006 -1.1780
  356MOL    C6243372   7.638   1.248   4.703 -0.7145 -0.3325  0.8286
  356MOL    F6343373   7.566   1.356   4.707  0.3858  0.3556 -0.5001
  356MOL    F6443374   7.741   1.278   4.618 -0.3077  0.5857 -0.8390
  356MOL    C6543375   7.569   1.127   4.641 -0.8336  0.5279  0.5421
  356MOL    H6643376   7.506   1.076   4.714 -0.2476  0.2721  0.8731
  356MOL    H6743377   7.643   1.049   4.623 -1.0528  0.2761  0.7245
  356MOL    C6843378   7.480   1.154   4.521 -0.9916 -0.1805 -0.1387
  356MOL    F6943379   7.374   1.227   4.559 -0.3262  0.9772 -0.1119
  356MOL    F7043380   7.559   1.205   4.427  0.2714  0.1721  0.3576
  356MOL    C7143381   7.422   1.021   4.466  0.5237 -0.1841  0.5878
  356MOL    H7243382   7.349   0.984   4.538 -2.0563 -0.2721 -1.9992
  356MOL    H7343383   7.493   0.939   4.456  0.7990  0.1011  0.1897
  356MOL    C7443384   7.351   1.033   4.327  0.6883 -0.0638  0.3527
  356MOL    F7543385   7.294   1.153   4.325  0.3828 -0.2974  0.3536
  356MOL    F7643386   7.439   1.017   4.228  0.1652  0.1176  1.1171
  356MOL    C7743387   7.247   0.918   4.300  0.5454  0.8716  0.3832
  356MOL    H7843388   7.170   0.914   4.378 -0.4978  0.5190 -0.6488
  356MOL    H7943389   7.306   0.827   4.311  2.9797  2.3454 -0.1155
  356MOL    C8043390   7.162   0.923   4.173  0.0201  0.0869 -0.3721
  356MOL    F8143391   7.088   1.032   4.176 -0.4610 -0.1725  0.0691
  356MOL    F8243392   7.250   0.922   4.070 -0.4521  0.6980  0.3133
  356MOL    C8343393   7.068   0.793   4.175  0.4461  0.0710  0.0766
  356MOL    H8443394   7.022   0.782   4.273 -1.5674  0.3490 -0.8120
  356MOL    H8543395   7.128   0.703   4.161  0.2785  0.0472 -0.4954
  356MOL    C8643396   6.949   0.800   4.070  0.5445  0.3469  0.4303
  356MOL    F8743397   6.892   0.685   4.076  0.1789  0.1457 -0.2160
  356MOL    F8843398   6.865   0.897   4.110  0.0213 -0.2542  0.2652
  356MOL    C8943399   6.997   0.820   3.922 -0.7773 -0.3282  0.1499
  356MOL    H9043400   7.087   0.761   3.903 -1.2700 -1.5286  1.5154
  356MOL    H9143401   7.029   0.923   3.906 -0.4246 -0.7198 -1.8812
  356MOL    C9243402   6.903   0.758   3.808 -0.3389 -0.9736 -0.0495
  356MOL    F9343403   6.968   0.780   3.693  0.5064 -0.0234  0.0693
  356MOL    F9443404   6.891   0.625   3.820  0.6950 -0.3131 -0.5884
  356MOL    C9543405   6.754   0.809   3.804 -0.0816 -0.6337  0.0406
  356MOL    H9643406   6.729   0.771   3.903 -1.0620 -1.1219 -0.3840
  356MOL    H9743407   6.704   0.747   3.730  0.0196 -0.3569 -0.2608
  356MOL    C9843408   6.729   0.964   3.781  0.4219  0.1955 -0.2829
  356MOL    F9943409   6.608   0.999   3.832 -0.0885 -0.3173  0.2380
  356MOL   F10043410   6.823   1.033   3.842 -0.6824 -0.1179  0.7785
  356MOL   C10143411   6.728   0.989   3.631  0.1146  0.3862  0.1897
  356MOL   H10243412   6.657   0.923   3.582 -0.4371  0.7600  0.4763
  356MOL   H10343413   6.825   0.959   3.590 -0.9522  0.3821 -2.3961
  356MOL   C10443414   6.708   1.131   3.586 -0.3724 -0.3781 -0.0891
  356MOL   F10543415   6.595   1.180   3.636 -0.0370  0.1675 -0.0259
  356MOL   F10643416   6.806   1.201   3.627 -0.2612  0.3076  0.5662
  356MOL   C10743417   6.682   1.141   3.430  0.1047 -0.6020 -0.0895
  356MOL   H10843418   6.671   1.248   3.410 -0.3942 -0.2856  1.7033
  356MOL   H10943419   6.590   1.090   3.402  0.0093 -0.1389 -0.6237
  356MOL   C11043420   6.798   1.096   3.343  0.0350 -0.6451  0.0949
  356MOL   F11143421   6.907   1.150   3.388 -0.0407 -0.3964  0.1630
  356MOL   F11243422   6.816   0.962   3.346 -0.8269 -0.0259  0.1896
  356MOL   C11343423   6.790   1.127   3.191 -0.1373  0.2800  1.0888
  356MOL   H11443424   6.876   1.087   3.139  0.4500 -1.6661  3.4240
  356MOL   H11543425   6.816   1.233   3.184  0.3841  0.0350 -0.7292
  356MOL   C11643426   6.661   1.098   3.118 -0.9106  0.4563  0.2633
  356MOL   F11743427   6.620   0.975   3.135 -0.0323  0.1386 -0.1038
  356MOL   F11843428   6.560   1.175   3.149  0.0397  0.1882 -0.2828
  356MOL   C11943429   6.679   1.111   2.964  0.3719 -0.0538 -0.6616
  356MOL   H12043430   6.753   1.189   2.947 -0.6827  1.2810  0.8025
  356MOL   H12143431   6.588   1.139   2.910 -1.8146 -0.3365  2.6813
  356MOL   H12243432   6.719   1.022   2.916 -0.6849 -1.8733  1.7123
  357MOL     C143433   2.259   6.318   6.094  0.1526 -0.0360  0.7876
  357MOL     F243434   2.307   6.227   6.007  0.0234 -0.0576  0.6560
  357MOL     F343435   2.229   6.265   6.208  0.8315 -0.5323  0.2603
  357MOL     C443436   2.137   6.383   6.035  0.1129 -0.7778  0.0055
  357MOL     H543437   2.172   6.425   5.940  0.0451  1.6614  1.0293
  357MOL     H643438   2.113   6.471   6.095 -0.9561 -0.3479 -1.0393
  357MOL     H743439   2.335   6.396   6.106  0.9185 -0.4426 -1.2031
  357MOL     C843440   2.009   6.291   6.006 -0.0823 -0.1563 -0.3589
  357MOL     F943441   1.921   6.380   5.950 -0.3095  0.6059  0.0674
  357MOL    F1043442   2.044   6.194   5.918  0.5172 -0.0761 -0.3463
  357MOL    C1143443   1.939   6.229   6.130 -0.1123 -0.2037 -0.4081
  357MOL    H1243444   1.905   6.301   6.205  1.2987 -1.0029  1.0355
  357MOL    H1343445   2.017   6.168   6.175 -1.4051 -0.3790  1.6779
  357MOL    C1443446   1.811   6.142   6.103  0.3909  1.0829 -0.5321
  357MOL    F1543447   1.708   6.215   6.063 -0.3475 -0.1884  0.5714
  357MOL    F1643448   1.833   6.050   6.008 -0.5469  0.1454 -0.2428
  357MOL    C1743449   1.774   6.061   6.228 -0.5644 -0.5146 -0.2674
  357MOL    H1843450   1.748   6.141   6.298  0.1136 -1.0131  0.5700
  357MOL    H1943451   1.863   6.026   6.279  0.4743  1.3255 -0.7638
  357MOL    C2043452   1.657   5.963   6.228  0.1968 -0.4870  0.7893
  357MOL    F2143453   1.661   5.897   6.342  0.3402  0.1182 -0.0102
  357MOL    F2243454   1.538   6.025   6.230 -0.2670 -0.0322  0.0647
  357MOL    C2343455   1.652   5.855   6.117 -0.1511 -0.3048 -0.5495
  357MOL    H2443456   1.651   5.895   6.015 -0.6989 -1.1614 -0.8775
  357MOL    H2543457   1.556   5.804   6.113  0.3242 -1.2549  0.0084
  357MOL    C2643458   1.761   5.746   6.139 -0.5540 -0.3946 -0.4299
  357MOL    F2743459   1.882   5.783   6.183  0.8778  0.3915  0.3548
  357MOL    F2843460   1.708   5.653   6.221  0.5931  0.3192 -0.7912
  357MOL    C2943461   1.779   5.683   5.999  0.5047 -0.4781 -0.5195
  357MOL    H3043462   1.836   5.759   5.946  0.1099  0.7198  0.7057
  357MOL    H3143463   1.678   5.682   5.957  0.3292  1.2220 -0.2029
  357MOL    C3243464   1.855   5.548   5.982  0.1070 -0.4142  0.1254
  357MOL    F3343465   1.865   5.531   5.851 -0.4574 -0.2114  0.3027
  357MOL    F3443466   1.973   5.554   6.042 -0.7223  0.4824  0.0497
  357MOL    C3543467   1.765   5.435   6.046  0.0420 -0.0720 -0.2042
  357MOL    H3643468   1.663   5.458   6.014  0.1387 -0.9326 -1.1534
  357MOL    H3743469   1.775   5.447   6.154 -0.3478 -0.7400 -0.0903
  357MOL    C3843470   1.809   5.286   6.003  0.2336  0.1614 -0.5487
  357MOL    F3943471   1.788   5.260   5.875 -0.3772  0.4565 -0.4702
  357MOL    F4043472   1.943   5.257   6.024  0.2120 -0.5623  0.2794
  357MOL    C4143473   1.740   5.184   6.108  0.9207 -0.2439 -0.2778
  357MOL    H4243474   1.747   5.210   6.213 -2.4919 -1.6274  0.3551
  357MOL    H4343475   1.789   5.087   6.110  1.1054 -0.1323  0.6981
  357MOL    C4443476   1.593   5.151   6.077 -0.0547  0.3409  0.1678
  357MOL    F4543477   1.511   5.260   6.080 -0.1439  0.0758 -0.3055
  357MOL    F4643478   1.572   5.082   5.963  0.0578  0.2988 -0.3552
  357MOL    C4743479   1.539   5.064   6.197  0.0886 -0.3430  0.3968
  357MOL    H4843480   1.551   5.119   6.290 -0.8578  2.2303 -0.9444
  357MOL    H4943481   1.606   4.980   6.214  2.3648  1.5106  0.8673
  357MOL    C5043482   1.384   5.023   6.198 -0.3181  0.0776  0.1028
  357MOL    F5143483   1.302   5.126   6.163 -0.3672 -0.1095 -0.5080
  357MOL    F5243484   1.361   4.931   6.103  0.6323 -0.4176  0.0625
  357MOL    C5343485   1.326   4.965   6.329  0.3461 -0.0789  0.1350
  357MOL    H5443486   1.236   4.921   6.285  0.0951 -0.3545  0.9301
  357MOL    H5543487   1.286   5.050   6.386  0.9246  1.6315 -1.9219
  357MOL    C5643488   1.396   4.843   6.400 -0.6579  0.3198  0.2483
  357MOL    F5743489   1.411   4.744   6.318 -0.4823  0.3490 -0.6869
  357MOL    F5843490   1.512   4.890   6.440  0.4825 -0.2228 -0.5699
  357MOL    C5943491   1.329   4.781   6.522 -0.2079 -0.8266  0.5462
  357MOL    H6043492   1.325   4.848   6.608 -1.5024  0.9634 -0.8726
  357MOL    H6143493   1.392   4.695   6.547 -0.1789 -0.8394  0.4292
  357MOL    C6243494   1.182   4.733   6.490 -0.7259  0.0201  0.1014
  357MOL    F6343495   1.103   4.839   6.470 -0.1055  0.9561  0.0095
  357MOL    F6443496   1.185   4.655   6.382  0.3601  0.2059 -0.4842
  357MOL    C6543497   1.127   4.658   6.611 -0.3533  0.0890 -0.0840
  357MOL    H6643498   1.209   4.596   6.647 -0.2592 -0.8778 -1.8933
  357MOL    H6743499   1.053   4.583   6.583 -0.1348 -1.0207  2.2060
  357MOL    C6843500   1.068   4.747   6.717 -0.1419  0.2182 -0.5387
  357MOL    F6943501   1.142   4.853   6.734  0.2745  0.0180  0.1161
  357MOL    F7043502   0.956   4.792   6.678 -0.0094 -0.8281  0.0564
  357MOL    C7143503   1.067   4.679   6.856  0.6183 -0.3398 -0.5446
  357MOL    H7243504   1.171   4.681   6.889  0.0773  2.8898  1.1039
  357MOL    H7343505   1.048   4.572   6.842  1.4544 -0.3933 -1.2766
  357MOL    C7443506   0.993   4.744   6.979 -0.3058  0.8580 -0.2764
  357MOL    F7543507   1.033   4.872   6.984  0.1776  0.7168 -0.0091
  357MOL    F7643508   0.862   4.733   6.955 -0.0490  0.4235  0.2309
  357MOL    C7743509   1.028   4.686   7.115 -0.6024 -0.1206  0.0685
  357MOL    H7843510   0.984   4.750   7.191  1.6305 -0.2635  1.5317
  357MOL    H7943511   1.134   4.700   7.135 -1.2658  1.4141  2.7826
  357MOL    C8043512   0.971   4.543   7.141  0.3588  0.1419 -0.3432
  357MOL    F8143513   0.842   4.539   7.133 -0.2402 -0.0620 -0.0553
  357MOL    F8243514   1.013   4.456   7.048 -0.4360  0.1452  0.4549
  357MOL    C8343515   1.006   4.490   7.278 -0.3107 -0.0592  1.0079
  357MOL    H8443516   0.983   4.571   7.348 -0.4659 -0.1183  1.0259
  357MOL    H8543517   1.113   4.468   7.283 -0.5554 -1.2664  1.0586
  357MOL    C8643518   0.939   4.355   7.310 -0.2568  0.1178  0.0227
  357MOL    F8743519   0.806   4.374   7.310 -0.3724 -0.1158 -0.2476
  357MOL    F8843520   0.971   4.269   7.209  0.2403 -0.4796  0.4293
  357MOL    C8943521   0.993   4.296   7.436 -0.1973 -0.2389  0.2756
  357MOL    H9043522   0.964   4.373   7.508 -1.0613 -0.2266 -0.0689
  357MOL    H9143523   1.101   4.284   7.435 -0.1692 -0.0186 -0.8730
  357MOL    C9243524   0.933   4.170   7.486 -0.5616 -0.0188  0.1473
  357MOL    F9343525   0.801   4.174   7.461  0.4602  0.6699 -0.1533
  357MOL    F9443526   1.002   4.075   7.423 -0.5601  0.4858  0.0934
  357MOL    C9543527   0.957   4.157   7.640  0.6858 -0.3429  0.2033
  357MOL    H9643528   0.909   4.239   7.694 -2.5333 -3.7979  2.9131
  357MOL    H9743529   1.060   4.154   7.674  0.8390 -0.6389 -0.2846
  357MOL    C9843530   0.894   4.026   7.702 -0.1387  0.3202  0.8995
  357MOL    F9943531   0.765   4.015   7.656 -0.4760  0.5383 -1.1348
  357MOL   F10043532   0.958   3.911   7.662  0.3763  0.3005  0.0318
  357MOL   C10143533   0.878   4.024   7.858 -0.9715 -0.2616 -0.3069
  357MOL   H10243534   0.801   3.956   7.892 -0.3467 -0.4560  0.7422
  357MOL   H10343535   0.831   4.118   7.889 -1.5567 -0.2803 -1.1294
  357MOL   C10443536   1.010   4.009   7.936  1.0157  0.6591  0.2385
  357MOL   F10543537   1.091   3.927   7.873 -0.1381  0.0094 -0.5653
  357MOL   F10643538   1.075   4.127   7.949  0.0224  0.0451  0.2529
  357MOL   C10743539   0.973   3.952   8.075  0.0837 -0.0711  0.3011
  357MOL   H10843540   0.919   3.858   8.064 -2.2742  1.1843  0.9588
  357MOL   H10943541   0.896   4.022   8.104  0.2179 -0.1170  0.7710
  357MOL   C11043542   1.084   3.941   8.180 -0.2963  0.1852 -0.0828
  357MOL   F11143543   1.176   3.857   8.136 -0.1858  0.0826 -0.3068
  357MOL   F11243544   1.143   4.060   8.200 -0.0987 -0.0882 -0.0754
  357MOL   C11343545   1.029   3.905   8.321 -0.0302  0.2108 -0.7238
  357MOL   H11443546   0.958   3.981   0.003  1.9937  1.8248  0.0496
  357MOL   H11543547   1.118   3.898   0.035 -1.3589 -0.8411  1.0746
  357MOL   C11643548   0.960   3.772   8.343  0.1429 -0.0838 -0.8931
  357MOL   F11743549   0.857   3.763   8.261  0.3831 -0.1835  0.1520
  357MOL   F11843550   1.054   3.683   8.317 -0.0630  0.1372 -0.5594
  357MOL   C11943551   0.900   3.756   0.131 -0.3180 -0.6800 -0.2329
  357MOL   H12043552   0.975   3.781   0.206 -1.0959  1.4786 -0.1447
  357MOL   H12143553   0.882   3.651   0.153 -0.3886 -0.6595 -0.1948
  357MOL   H12243554   0.820   3.827   0.152 -0.6080 -1.1433  0.2392
  358MOL     C143555   6.202   7.291   3.627  0.3607  0.0451  0.0812
  358MOL     F243556   6.111   7.354   3.545 -0.5984  0.0940 -0.0904
  358MOL     F343557   6.138   7.210   3.710 -0.1179  0.0002 -0.3797
  358MOL     C443558   6.290   7.402   3.695 -0.1038 -0.1975  0.1133
  358MOL     H543559   6.338   7.355   3.781  1.3533  0.0267 -0.5607
  358MOL     H643560   6.222   7.471   3.745 -1.4349 -1.3176 -0.1510
  358MOL     H743561   6.262   7.224   3.566  0.4665  1.6204 -1.5815
  358MOL     C843562   6.401   7.470   3.612  0.0151  0.9933 -0.3079
  358MOL     F943563   6.490   7.376   3.595  0.1794 -0.5736 -0.2717
  358MOL    F1043564   6.342   7.497   3.502  0.0440  0.1751  0.2933
  358MOL    C1143565   6.468   7.594   3.677 -0.4936  0.2771  1.0742
  358MOL    H1243566   6.519   7.571   3.770  2.2846  0.1519 -0.4237
  358MOL    H1343567   6.387   7.660   3.705 -1.0348 -0.4271  1.1841
  358MOL    C1443568   6.572   7.665   3.592  0.0656 -0.4809  0.2810
  358MOL    F1543569   6.666   7.573   3.564 -0.2417  0.1224 -0.1330
  358MOL    F1643570   6.519   7.713   3.478 -1.0871 -0.0478 -0.6074
  358MOL    C1743571   6.640   7.786   3.666 -0.0246 -0.1734 -0.4574
  358MOL    H1843572   6.673   7.766   3.767 -0.6591  2.8557  0.4050
  358MOL    H1943573   6.563   7.858   3.695 -0.2996 -0.2289 -1.0285
  358MOL    C2043574   6.754   7.867   3.594  0.2697  0.6993 -0.2822
  358MOL    F2143575   6.719   7.899   3.471  0.0128  0.2361 -0.4872
  358MOL    F2243576   6.750   7.976   3.673  0.0316 -0.1717 -0.3753
  358MOL    C2343577   6.889   7.793   3.606  0.3510  0.0991  0.6484
  358MOL    H2443578   6.882   7.708   3.538 -0.1141 -0.1243  0.9702
  358MOL    H2543579   6.905   7.755   3.706 -0.1131 -1.0443  0.2989
  358MOL    C2643580   7.010   7.871   3.560  0.1938 -0.0382  0.1163
  358MOL    F2743581   6.984   7.906   3.428  0.4226 -0.2506 -0.1739
  358MOL    F2843582   7.011   7.979   3.638 -0.0671 -0.2496 -0.5852
  358MOL    C2943583   7.146   7.797   3.568  0.6730  0.5768 -0.6512
  358MOL    H3043584   7.135   7.696   3.528 -0.5274  1.6780 -3.1955
  358MOL    H3143585   7.177   7.789   3.672  0.8818  0.8111 -0.6957
  358MOL    C3243586   7.265   7.866   3.498 -0.1117 -0.1382 -0.3562
  358MOL    F3343587   7.238   7.863   3.372 -0.1365  0.3934  0.4693
  358MOL    F3443588   7.269   7.991   3.533 -0.0789 -0.2184 -0.0200
  358MOL    C3543589   7.396   7.804   3.525  0.3644 -0.1841 -0.1800
  358MOL    H3643590   7.398   7.699   3.499  1.2136 -0.8443  2.3352
  358MOL    H3743591   7.418   7.811   3.632 -2.5377 -0.6617  0.4779
  358MOL    C3843592   7.501   7.866   3.432 -0.7316  0.3937 -0.3692
  358MOL    F3943593   7.487   7.833   3.303  0.1802 -0.4622  0.0010
  358MOL    F4043594   7.488   7.998   3.423  0.1861  0.2085 -0.4022
  358MOL    C4143595   7.646   7.836   3.488  0.6805  0.2812  0.0208
  358MOL    H4243596   7.645   7.876   3.590  1.3208  1.1456 -0.3078
  358MOL    H4343597   7.717   7.904   3.441 -0.4366  1.8993  0.6288
  358MOL    C4443598   7.692   7.686   3.502 -0.3127  0.2761 -0.5647
  358MOL    F4543599   7.810   7.691   3.563 -0.7139  0.8142 -0.2366
  358MOL    F4643600   7.608   7.621   3.581  0.0514  0.5655  0.6389
  358MOL    C4743601   7.692   7.626   3.360 -0.3035  0.1697 -0.0097
  358MOL    H4843602   7.764   7.673   3.293  0.7323 -1.0605  0.2256
  358MOL    H4943603   7.597   7.640   3.308 -1.7936 -4.1437  1.3446
  358MOL    C5043604   7.719   7.472   3.342 -0.2289 -0.2374  0.6825
  358MOL    F5143605   7.633   7.407   3.413  0.0536  0.2538 -0.3253
  358MOL    F5243606   7.703   7.449   3.214  0.1535  0.4535  0.0839
  358MOL    C5343607   7.860   7.439   3.389 -0.3891 -0.3320 -0.7519
  358MOL    H5443608   7.857   7.441   3.498  0.6117 -0.0737 -0.7186
  358MOL    H5543609   7.933   7.511   3.352  0.2537  0.7618  2.4661
  358MOL    C5643610   7.905   7.296   3.348 -1.3511  0.3946  0.6063
  358MOL    F5743611   7.941   7.292   3.215 -0.1484  0.0842  0.3592
  358MOL    F5843612   8.019   7.274   3.408  0.6351 -0.7957 -0.1987
  358MOL    C5943613   7.801   7.187   3.381 -0.2513  0.2341 -0.1569
  358MOL    H6043614   7.711   7.208   3.323  0.7087  1.5800 -1.1932
  358MOL    H6143615   7.759   7.198   3.481 -1.1290  1.5918 -0.6616
  358MOL    C6243616   7.848   7.038   3.358  0.1210  0.0835 -0.5473
  358MOL    F6343617   7.931   7.019   3.459 -1.1809  0.2130  0.0845
  358MOL    F6443618   7.740   6.966   3.392  0.0472 -0.4857  0.5340
  358MOL    C6543619   7.903   7.000   3.217  0.2318  0.1839 -0.6035
  358MOL    H6643620   7.982   7.066   3.183  0.2798  2.0311  2.8317
  358MOL    H6743621   7.832   7.031   3.141  1.2310 -1.6541 -2.3267
  358MOL    C6843622   7.951   6.855   3.199  0.6912 -0.0429  0.0672
  358MOL    F6943623   8.070   6.847   3.252 -0.3319 -0.3059 -0.0358
  358MOL    F7043624   7.880   6.767   3.270  0.1405  0.2255 -0.3862
  358MOL    C7143625   7.971   6.813   3.050 -0.2200  0.7785 -0.1746
  358MOL    H7243626   8.034   6.890   3.004 -0.2510  0.0382 -1.4794
  358MOL    H7343627   7.874   6.821   3.000 -0.1150  0.4181 -0.4345
  358MOL    C7443628   8.020   6.672   3.022  0.0768 -0.2897  0.9225
  358MOL    F7543629   7.942   6.580   3.086 -0.5302  0.2325  0.4569
  358MOL    F7643630   7.995   6.659   2.893 -0.3838  0.5317 -0.0541
  358MOL    C7743631   8.168   6.637   3.061  0.2257 -0.0855 -0.2142
  358MOL    H7843632   8.172   6.629   3.170  1.4225  2.2537 -0.0563
  358MOL    H7943633   8.233   6.719   3.032 -2.2462  1.7991 -0.4884
  358MOL    C8043634   8.230   6.514   2.991  0.5507  0.1296  0.0285
  358MOL    F8143635   8.149   6.408   2.985  0.3829  0.5299  0.3477
  358MOL    F8243636   8.261   6.534   2.865  0.2182 -0.4189  0.2596
  358MOL    C8343637   0.014   6.468   3.057 -0.6190  0.2143  0.4768
  358MOL    H8443638   0.060   6.394   2.991 -0.1571  0.1536  0.8578
  358MOL    H8543639   8.338   6.421   3.152  1.9313 -1.8098  0.2191
  358MOL    C8643640   0.130   6.571   3.083 -0.2028 -0.2679 -0.2235
  358MOL    F8743641   0.089   6.660   3.173 -0.2364  0.3862  0.3343
  358MOL    F8843642   0.240   6.505   3.129  0.7252 -0.6579  0.1770
  358MOL    C8943643   0.176   6.641   2.951  0.1275 -0.6502  0.1502
  358MOL    H9043644   0.090   6.703   2.930  1.0348  0.1069 -1.3785
  358MOL    H9143645   0.196   6.567   2.874  1.3730  0.3152 -0.4749
  358MOL    C9243646   0.300   6.742   2.954 -0.2590  0.2015 -0.1186
  358MOL    F9343647   0.415   6.673   2.981 -0.2031  0.4003  0.4276
  358MOL    F9443648   0.299   6.799   2.834 -0.1182 -0.0909  0.2823
  358MOL    C9543649   0.280   6.861   3.057 -0.1265 -0.8195 -0.4478
  358MOL    H9643650   0.269   6.823   3.159 -4.1286  0.6474 -0.2220
  358MOL    H9743651   0.188   6.916   3.039  0.5937  0.6456  0.3221
  358MOL    C9843652   0.403   6.962   3.062 -0.0409  0.1739 -0.4573
  358MOL    F9943653   0.509   6.911   3.114  0.6292  0.2889 -0.4880
  358MOL   F10043654   0.438   6.992   2.939  0.2167  0.7233 -0.4170
  358MOL   C10143655   0.361   7.087   3.143  0.1965  0.9421  0.2046
  358MOL   H10243656   0.328   7.040   3.235  0.1899 -0.8996 -0.7170
  358MOL   H10343657   0.274   7.140   3.104 -0.3212 -1.2398 -1.7094
  358MOL   C10443658   0.484   7.172   3.170 -0.7363  0.4632 -0.0598
  358MOL   F10543659   0.565   7.109   3.249 -0.1199  0.0941  0.3624
  358MOL   F10643660   0.548   7.200   3.062 -0.0288  0.1959 -0.3381
  358MOL   C10743661   0.448   7.306   3.243 -0.4529  0.0388  0.0189
  358MOL   H10843662   0.366   7.290   3.313 -1.1967  0.8056 -0.6703
  358MOL   H10943663   0.401   7.368   3.167  0.4158 -1.2401 -1.5930
  358MOL   C11043664   0.555   7.397   3.297  0.4106  0.5047 -0.5943
  358MOL   F11143665   0.627   7.333   3.395 -0.1974  0.6041 -0.1246
  358MOL   F11243666   0.647   7.418   3.199 -0.0698 -0.3454  0.0119
  358MOL   C11343667   0.516   7.539   3.347  0.2820 -0.2010  0.0469
  358MOL   H11443668   0.486   7.606   3.265 -2.2704 -0.6682  0.5598
  358MOL   H11543669   0.604   7.589   3.386 -0.7821  1.6533  0.1448
  358MOL   C11643670   0.397   7.548   3.451  0.3146  0.0451  0.1450
  358MOL   F11743671   0.290   7.514   3.380 -0.4803 -0.5205  0.2125
  358MOL   F11843672   0.409   7.469   3.558 -0.2479  0.6069  0.0702
  358MOL   C11943673   0.369   7.693   3.493 -0.5828  0.6518  0.4294
  358MOL   H12043674   0.448   7.737   3.554  1.0153  0.4350 -1.4072
  358MOL   H12143675   0.276   7.699   3.549 -1.2270  3.7948 -0.8494
  358MOL   H12243676   0.362   7.761   3.408 -1.2890  1.6110  1.2472
  359MOL     C143677   3.342   1.614   2.668 -0.2501  0.3412  0.2778
  359MOL     F243678   3.350   1.626   2.804 -0.2156  0.8460  0.3208
  359MOL     F343679   3.220   1.647   2.630 -0.2394  0.2013  0.3147
  359MOL     C443680   3.389   1.471   2.619 -0.2032 -0.4013 -0.4258
  359MOL     H543681   3.321   1.396   2.657  0.3547 -0.4143  0.5622
  359MOL     H643682   3.485   1.450   2.667 -0.1586  0.0420 -0.3114
  359MOL     H743683   3.414   1.685   2.627 -3.8419  2.7040 -2.2363
  359MOL     C843684   3.416   1.454   2.469  1.4504 -0.4954 -0.3612
  359MOL     F943685   3.513   1.539   2.434 -0.2498  0.3511 -0.2150
  359MOL    F1043686   3.470   1.329   2.467 -0.1787 -0.3642 -0.0954
  359MOL    C1143687   3.287   1.458   2.372  0.6116  0.3218  0.3463
  359MOL    H1243688   3.221   1.540   2.400  0.7985  0.1227  1.3836
  359MOL    H1343689   3.235   1.371   2.412  0.1617  1.3548  2.0683
  359MOL    C1443690   3.328   1.439   2.225 -0.0808 -0.7387 -1.1462
  359MOL    F1543691   3.391   1.547   2.180 -0.4867 -0.2466 -0.8514
  359MOL    F1643692   3.411   1.339   2.216 -0.3605 -0.4154  0.0598
  359MOL    C1743693   3.215   1.403   2.122  0.1636 -0.0670 -1.0060
  359MOL    H1843694   3.189   1.299   2.144  0.7213 -0.2762 -1.3384
  359MOL    H1943695   3.252   1.397   2.020  3.1281 -0.2217  0.0428
  359MOL    C2043696   3.092   1.489   2.133  0.3583 -0.4675  0.4541
  359MOL    F2143697   3.024   1.474   2.243 -0.2392  0.2552 -0.0498
  359MOL    F2243698   3.124   1.619   2.130 -0.4605  0.0930  0.3655
  359MOL    C2343699   2.997   1.460   2.009  0.5137 -0.0911 -0.1638
  359MOL    H2443700   2.966   1.356   2.016  1.4120 -0.3583 -0.1424
  359MOL    H2543701   3.059   1.482   1.921  1.0676  1.1312  0.5250
  359MOL    C2643702   2.870   1.541   2.010  0.0406 -0.0220  0.1527
  359MOL    F2743703   2.806   1.504   1.903  0.1943  0.1035 -0.4347
  359MOL    F2843704   2.810   1.499   2.119 -0.4116  0.1808  0.5540
  359MOL    C2943705   2.898   1.694   2.002  0.0148  0.4493  0.1835
  359MOL    H3043706   2.986   1.717   1.942  0.2374  1.4218  0.8731
  359MOL    H3143707   2.933   1.736   2.096  1.1531  2.0643 -0.9296
  359MOL    C3243708   2.791   1.784   1.947  0.4103 -0.5028 -0.4104
  359MOL    F3343709   2.775   1.754   1.822  0.1175 -0.0046  0.1396
  359MOL    F3443710   2.683   1.756   2.019  0.3384 -0.3813 -0.3337
  359MOL    C3543711   2.822   1.935   1.960  0.2044 -0.3885  0.1980
  359MOL    H3643712   2.916   1.957   1.908 -0.0500 -1.1157 -0.5734
  359MOL    H3743713   2.842   1.959   2.065  1.3639 -0.5605  0.0286
  359MOL    C3843714   2.712   2.025   1.905 -0.1493  0.0230  0.1506
  359MOL    F3943715   2.670   2.001   1.779  0.2958  0.5998  0.5980
  359MOL    F4043716   2.606   2.001   1.978  0.0106 -0.9004 -0.0941
  359MOL    C4143717   2.754   2.172   1.921  0.2575  0.2634  0.0655
  359MOL    H4243718   2.850   2.198   1.875  0.3243  1.1590  0.6907
  359MOL    H4343719   2.773   2.190   2.027  0.5212 -0.0459  0.0693
  359MOL    C4443720   2.644   2.266   1.867  0.2991 -0.1115  0.2049
  359MOL    F4543721   2.628   2.252   1.736 -0.4190  0.2222 -0.1347
  359MOL    F4643722   2.525   2.258   1.921 -0.0081  0.1775 -0.1824
  359MOL    C4743723   2.680   2.412   1.877  0.3572  0.8590 -0.3428
  359MOL    H4843724   2.597   2.465   1.830  1.7454  1.1361 -2.5051
  359MOL    H4943725   2.762   2.439   1.811 -0.0962 -1.8020 -2.0390
  359MOL    C5043726   2.706   2.472   2.017 -0.5519  0.2069  0.3138
  359MOL    F5143727   2.599   2.453   2.098  0.2208  0.7852 -0.5463
  359MOL    F5243728   2.817   2.421   2.068  0.2053  0.6527 -0.5249
  359MOL    C5343729   2.710   2.624   2.009  0.1899 -0.4262 -0.7013
  359MOL    H5443730   2.615   2.665   1.974  0.4527  1.1677  0.4546
  359MOL    H5543731   2.788   2.638   1.934  1.5088 -3.4252  0.0271
  359MOL    C5643732   2.751   2.697   2.139  0.1562 -0.7712  0.1034
  359MOL    F5743733   2.660   2.684   2.230 -0.3031 -0.8287  0.2433
  359MOL    F5843734   2.869   2.650   2.181 -1.1657  0.1406 -0.5292
  359MOL    C5943735   2.758   2.846   2.098 -0.6215  0.0692 -0.5355
  359MOL    H6043736   2.664   2.888   2.062 -0.7720  1.6142  1.6246
  359MOL    H6143737   2.828   2.864   2.015 -1.1420 -0.3316 -1.0672
  359MOL    C6243738   2.784   2.946   2.213 -0.5968 -0.3538  0.0549
  359MOL    F6343739   2.908   2.932   2.261  1.2360 -0.0933  0.3178
  359MOL    F6443740   2.771   3.073   2.161 -0.3723 -0.3490  0.1207
  359MOL    C6543741   2.682   2.942   2.333  0.2209 -0.0562  0.6642
  359MOL    H6643742   2.709   3.013   2.411  1.4344 -1.1890  1.2983
  359MOL    H6743743   2.674   2.851   2.393 -1.6577 -0.3695 -0.0355
  359MOL    C6843744   2.527   2.976   2.293 -0.0507 -0.6734  0.0442
  359MOL    F6943745   2.516   3.079   2.206  0.1583 -0.6831  0.0581
  359MOL    F7043746   2.476   2.872   2.225  0.0251  0.3391  0.0728
  359MOL    C7143747   2.448   3.008   2.417 -0.0775 -0.4810 -0.6546
  359MOL    H7243748   2.492   3.102   2.453  1.4933 -1.0648 -0.9982
  359MOL    H7343749   2.463   2.937   2.498  0.0053 -0.0292 -0.2741
  359MOL    C7443750   2.297   3.028   2.399  0.0099  0.2632 -0.2726
  359MOL    F7543751   2.278   3.117   2.299  0.4252  0.4229  0.3638
  359MOL    F7643752   2.239   2.919   2.364  0.1552  0.1524 -0.4095
  359MOL    C7743753   2.220   3.093   2.528 -0.3823  0.6319  0.0050
  359MOL    H7843754   2.243   3.200   2.528 -0.6761  0.7271 -3.0005
  359MOL    H7943755   2.265   3.045   2.615  0.0165  0.3585 -0.3484
  359MOL    C8043756   2.068   3.076   2.526 -0.2708  0.8539  0.6636
  359MOL    F8143757   2.031   2.948   2.519  0.5173 -0.3812 -0.4416
  359MOL    F8243758   2.036   3.112   2.652 -0.0366  0.5487  0.8201
  359MOL    C8343759   1.989   3.150   2.417  0.6455 -0.1833 -0.4023
  359MOL    H8443760   1.887   3.138   2.455  0.7119 -1.8251 -0.7202
  359MOL    H8543761   2.012   3.103   2.322  2.8473 -0.2191  0.1323
  359MOL    C8643762   1.999   3.307   2.416  0.4506 -0.2529  0.3501
  359MOL    F8743763   1.970   3.335   2.542 -0.6987 -0.7118 -0.3751
  359MOL    F8843764   2.120   3.360   2.397 -0.0874  0.7139 -0.1006
  359MOL    C8943765   1.898   3.376   2.318 -0.5550  0.3082 -0.0378
  359MOL    H9043766   1.797   3.341   2.341 -1.0908  1.9743  0.1795
  359MOL    H9143767   1.930   3.348   2.217  0.0279 -0.7501  0.4280
  359MOL    C9243768   1.901   3.529   2.332  0.7266 -0.1890 -0.5070
  359MOL    F9343769   1.886   3.561   2.460 -0.3810 -0.4456  0.1744
  359MOL    F9443770   2.012   3.575   2.279  0.5351  0.2993  0.1302
  359MOL    C9543771   1.782   3.594   2.258 -0.2506  0.6841 -0.0694
  359MOL    H9643772   1.798   3.702   2.257 -0.1080  0.6872  1.9702
  359MOL    H9743773   1.697   3.584   2.325 -0.1042  1.1750  0.1896
  359MOL    C9843774   1.745   3.537   2.117 -0.8216  0.1176 -0.3873
  359MOL    F9943775   1.861   3.540   2.047 -0.1459  0.2203  0.0382
  359MOL   F10043776   1.704   3.413   2.135  0.2118 -0.2055  0.1366
  359MOL   C10143777   1.620   3.604   2.047  0.0621  0.7565  0.0017
  359MOL   H10243778   1.544   3.605   2.125  0.6697  2.8620  0.5803
  359MOL   H10343779   1.574   3.543   1.970 -3.2459 -0.1356  2.5807
  359MOL   C10443780   1.645   3.751   1.986  0.2554  0.0114 -0.1998
  359MOL   F10543781   1.532   3.809   1.941  0.6943 -0.1712 -0.3233
  359MOL   F10643782   1.690   3.836   2.088  0.3396  0.2573 -0.1333
  359MOL   C10743783   1.752   3.766   1.881  0.3157  0.4434  0.0697
  359MOL   H10843784   1.848   3.745   1.927  1.4797  1.1035 -2.0133
  359MOL   H10943785   1.756   3.872   1.855  0.8563  0.6673  1.0676
  359MOL   C11043786   1.738   3.681   1.753  0.1071 -0.4897 -0.1852
  359MOL   F11143787   1.760   3.556   1.789  0.1468 -0.2049 -0.4872
  359MOL   F11243788   1.620   3.685   1.694  0.3800 -0.3838  0.2603
  359MOL   C11343789   1.838   3.722   1.647  0.2615  0.2936 -0.3063
  359MOL   H11443790   1.841   3.831   1.655  0.9248  0.2334  0.2434
  359MOL   H11543791   1.807   3.710   1.543  1.6027 -1.4479 -0.5430
  359MOL   C11643792   1.979   3.669   1.664 -0.9870 -0.1620  0.3965
  359MOL   F11743793   2.061   3.748   1.586  0.1027 -0.4370  0.0586
  359MOL   F11843794   2.033   3.694   1.781  0.0420  0.6271 -0.3640
  359MOL   C11943795   2.008   3.522   1.631  0.5332 -0.0660 -0.2794
  359MOL   H12043796   1.976   3.457   1.713  0.3209  1.5250  0.9289
  359MOL   H12143797   2.114   3.504   1.613  0.9085  0.5924  1.2024
  359MOL   H12243798   1.953   3.492   1.541 -0.8988  1.0049  0.2244
  360MOL     C143799   2.093   6.812   8.074  0.4844  0.0575  0.1409
  360MOL     F243800   2.145   6.889   7.987 -0.3332  0.1800 -0.4671
  360MOL     F343801   1.977   6.765   8.026 -0.1784 -0.1314 -0.5203
  360MOL     C443802   2.083   6.888   8.204  0.9657 -1.2182 -0.4932
  360MOL     H543803   2.007   6.965   8.192 -0.0023 -2.2142 -0.7934
  360MOL     H643804   2.176   6.944   8.219  0.8243 -0.7946 -1.2023
  360MOL     H743805   2.163   6.731   8.096  0.0826 -0.2658  0.2328
  360MOL     C843806   2.046   6.801   8.326  0.6904  0.0186  0.0229
  360MOL     F943807   1.942   6.724   8.291  0.1058  0.3407  0.4234
  360MOL    F1043808   2.153   6.727   0.009  0.5229  0.0567  0.5478
  360MOL    C1143809   2.002   6.895   0.095 -0.1675  0.0350  0.1691
  360MOL    H1243810   1.915   6.953   0.065 -1.0353 -1.1874  0.2756
  360MOL    H1343811   2.085   6.965   0.106 -0.2091 -0.3492  3.2468
  360MOL    C1443812   1.973   6.837   0.233 -0.0483 -0.2588 -0.2358
  360MOL    F1543813   1.909   6.721   0.216  0.1277  0.5235 -0.0926
  360MOL    F1643814   2.085   6.798   0.287  0.0204  0.1946 -0.4314
  360MOL    C1743815   1.884   6.923   0.328 -0.3507  0.5413  0.9654
  360MOL    H1843816   1.876   6.861   0.418  0.0582  0.4739  0.9569
  360MOL    H1943817   1.789   6.938   0.276  0.2810 -0.1856 -0.4351
  360MOL    C2043818   1.949   7.057   0.370 -0.2343  0.0691 -0.1388
  360MOL    F2143819   2.077   7.023   0.410 -0.0303  0.3909 -0.8359
  360MOL    F2243820   1.945   7.151   0.284  0.0238  0.2256  0.2572
  360MOL    C2343821   1.866   7.113   0.490 -0.1615 -0.2569 -0.0035
  360MOL    H2443822   1.829   7.028   0.548  0.6285 -0.7923 -0.2723
  360MOL    H2543823   1.782   7.175   0.458  1.7542  1.5954 -1.6120
  360MOL    C2643824   1.952   7.206   0.579 -0.1058 -0.1688  0.3655
  360MOL    F2743825   2.054   7.137   0.639 -0.1409 -0.0776 -0.0921
  360MOL    F2843826   2.014   7.286   0.497  0.5018  0.0679  0.5788
  360MOL    C2943827   1.882   7.297   0.680  0.6962  0.4275  0.4756
  360MOL    H3043828   1.852   7.393   0.638 -1.2002 -1.5113 -2.7942
  360MOL    H3143829   1.957   7.329   0.753  1.9171 -0.7822 -0.2118
  360MOL    C3243830   1.774   7.225   0.765 -0.4981  0.0606  0.4511
  360MOL    F3343831   1.681   7.168   0.689  0.9570 -0.0894 -0.1072
  360MOL    F3443832   1.829   7.130   0.838 -0.2062  0.9143 -0.2150
  360MOL    C3543833   1.691   7.316   0.856 -0.4158  0.7474 -0.5451
  360MOL    H3643834   1.609   7.266   0.908  0.2279  0.2572  0.0145
  360MOL    H3743835   1.651   7.399   0.797 -1.7438 -0.2137 -1.0166
  360MOL    C3843836   1.773   7.385   0.971 -0.1150  0.1234  0.6934
  360MOL    F3943837   1.852   7.301   1.042  0.2496 -0.0122 -0.7624
  360MOL    F4043838   1.855   7.473   0.917  0.3592  0.4975  0.1708
  360MOL    C4143839   1.677   7.465   1.056 -0.8036  0.4130 -0.5762
  360MOL    H4243840   1.632   7.394   1.126 -3.0365  1.0766 -1.3178
  360MOL    H4343841   1.603   7.512   0.992  1.2228  2.7935 -1.2154
  360MOL    C4443842   1.739   7.572   1.146  0.7226 -0.1930  0.0947
  360MOL    F4543843   1.657   7.612   1.244  0.1453  0.8116  0.2311
  360MOL    F4643844   1.848   7.521   1.207 -0.6241 -0.1917 -0.0798
  360MOL    C4743845   1.802   7.698   1.085 -0.3561 -0.2300  0.1236
  360MOL    H4843846   1.892   7.667   1.033 -0.2550  0.1584  0.0691
  360MOL    H4943847   1.830   7.765   1.166 -2.2880 -1.4269  1.8369
  360MOL    C5043848   1.713   7.770   0.983  0.2592 -0.7691  0.0922
  360MOL    F5143849   1.700   7.703   0.877 -0.1955 -0.7100  0.1953
  360MOL    F5243850   1.590   7.784   1.026  0.0224 -0.1947  0.0279
  360MOL    C5343851   1.784   7.908   0.942 -0.2008 -0.0962  0.3451
  360MOL    H5443852   1.879   7.876   0.900  0.0950  0.9392  0.1921
  360MOL    H5543853   1.816   7.963   1.031 -2.0139  1.6488 -0.0470
  360MOL    C5643854   1.692   7.984   0.837 -0.9276  0.0942 -0.5297
  360MOL    F5743855   1.701   7.911   0.726  0.4166 -0.1987  0.1774
  360MOL    F5843856   1.569   8.005   0.878 -0.1422  0.0762  0.1014
  360MOL    C5943857   1.758   8.124   0.804  0.5225 -0.2619  0.3192
  360MOL    H6043858   1.861   8.111   0.770  1.0399  1.7936  1.0015
  360MOL    H6143859   1.751   8.190   0.890  1.4052  1.5428 -0.9463
  360MOL    C6243860   1.688   8.206   0.693  0.2615 -0.2612  0.6878
  360MOL    F6343861   1.560   8.239   0.716  0.3427 -0.1361 -0.0605
  360MOL    F6443862   1.747   8.329   0.677 -0.0647 -0.4532  0.0207
  360MOL    C6543863   1.701   8.133   0.553 -0.2980  0.1254 -0.2225
  360MOL    H6643864   1.654   8.034   0.562  1.0192 -0.3047  2.2943
  360MOL    H6743865   1.807   8.115   0.534  0.0185  0.0176  1.5688
  360MOL    C6843866   1.656   8.199   0.422  0.1112  0.3059  0.3085
  360MOL    F6943867   1.721   8.311   0.413 -0.0270 -0.1725  0.1074
  360MOL    F7043868   1.695   8.129   0.311 -0.0633  0.4616 -0.2492
  360MOL    C7143869   1.508   8.245   0.404 -0.1500 -0.1868 -0.4048
  360MOL    H7243870   1.506   8.295   0.307 -0.0996 -1.1415 -0.9061
  360MOL    H7343871   1.477   8.308   0.487  0.4086 -0.7338  0.2248
  360MOL    C7443872   1.403   8.129   0.393 -0.0737  0.2350 -0.5471
  360MOL    F7543873   1.450   8.039   0.311  0.5268  0.3435 -0.0086
  360MOL    F7643874   1.390   8.072   0.512  0.5083  0.4316 -0.0569
  360MOL    C7743875   1.269   8.188   0.339 -0.4705 -0.1956  0.3708
  360MOL    H7843876   1.194   8.113   0.316  0.2557 -1.0176  0.6548
  360MOL    H7943877   1.285   8.238   0.243 -0.8176 -2.1479 -0.7266
  360MOL    C8043878   1.198   8.302   0.425  0.1763  0.5972 -0.7358
  360MOL    F8143879   1.204   8.256   0.552 -0.4250  0.4805  0.7111
  360MOL    F8243880   1.267   0.065   0.413  0.1113  0.3509 -0.4321
  360MOL    C8343881   1.051   8.318   0.384  0.4393  0.5416  0.1269
  360MOL    H8443882   1.002   8.224   0.407 -0.8730  1.3549  0.6864
  360MOL    H8543883   1.042   8.324   0.275  0.1808  1.6775  0.2009
  360MOL    C8643884   0.964   0.072   0.453 -0.0105  0.5536 -0.2338
  360MOL    F8743885   0.829   0.062   0.427  0.2704 -0.3697 -0.4050
  360MOL    F8843886   0.976   0.050   0.586 -0.4067  0.4062  0.2163
  360MOL    C8943887   1.011   0.220   0.432 -0.4565 -0.1630 -0.0131
  360MOL    H9043888   1.112   0.236   0.469 -0.7647 -0.0901  0.8006
  360MOL    H9143889   0.953   0.283   0.499  0.8707  2.2742 -1.1272
  360MOL    C9243890   1.010   0.286   0.295 -0.1692 -0.2529  1.0322
  360MOL    F9343891   1.095   0.220   0.210 -0.2889  0.1628  0.8094
  360MOL    F9443892   0.883   0.295   0.246 -0.8127  0.4425 -0.0670
  360MOL    C9543893   1.061   0.432   0.307 -0.0426  0.1734 -0.6279
  360MOL    H9643894   1.157   0.434   0.358 -0.2926 -0.7960 -0.1248
  360MOL    H9743895   0.997   0.501   0.362  0.5340 -0.0562  0.3342
  360MOL    C9843896   1.089   0.493   0.162 -0.3930 -0.0819 -0.4147
  360MOL    F9943897   1.148   0.615   0.187 -0.8976  0.3616 -0.2122
  360MOL   F10043898   1.170   0.416   0.093  0.5784  0.6092 -0.5291
  360MOL   C10143899   0.960   0.515   0.075  1.1006  0.2230 -0.0464
  360MOL   H10243900   0.907   0.590   0.133  1.1386 -1.1409  1.7962
  360MOL   H10343901   0.908   0.419   0.068  0.1542  0.6356  1.3726
  360MOL   C10443902   0.978   0.554   8.272 -0.6712 -0.0690 -0.6520
  360MOL   F10543903   1.062   0.648   8.264 -0.1499 -0.6720  0.5880
  360MOL   F10643904   1.026   0.447   8.211 -0.2906 -0.0785  0.1359
  360MOL   C10743905   0.854   0.611   8.195 -0.2397 -0.2000  0.1645
  360MOL   H10843906   0.882   0.630   8.091 -0.2607  0.0813  0.2079
  360MOL   H10943907   0.820   0.707   8.233 -2.0454 -1.5383  2.0116
  360MOL   C11043908   0.720   0.524   8.196 -0.4194  0.0619 -0.6053
  360MOL   F11143909   0.661   0.559   8.313  0.1681 -0.1350  0.4443
  360MOL   F11243910   0.637   0.566   8.104 -0.1869 -0.1992 -0.1503
  360MOL   C11343911   0.739   0.373   8.178 -0.5108 -0.1262 -0.1819
  360MOL   H11443912   0.820   0.335   8.240 -0.0154 -0.3612 -0.9701
  360MOL   H11543913   0.763   0.354   8.074 -1.6970 -0.3272 -0.4274
  360MOL   C11643914   0.613   0.292   8.215  0.1213  0.7973 -0.5640
  360MOL   F11743915   0.589   0.321   8.343 -0.3046  0.4711  0.6123
  360MOL   F11843916   0.514   0.326   8.129 -0.1532 -0.4728  0.1471
  360MOL   C11943917   0.631   0.142   8.204  0.1450 -0.1401 -0.3528
  360MOL   H12043918   0.661   0.112   8.104 -0.9896  0.9503 -1.0335
  360MOL   H12143919   0.529   0.108   8.224  0.1594  0.7920  1.4260
  360MOL   H12243920   0.703   0.092   8.269 -1.4036 -3.3059 -0.9773
  361MOL     C143921   3.741   3.501   3.620  0.4821 -0.9386 -0.1877
  361MOL     F243922   3.690   3.518   3.497 -0.2141  0.1088 -0.3664
  361MOL     F343923   3.775   3.378   3.654 -0.2241 -0.5481 -0.1966
  361MOL     C443924   3.638   3.544   3.721 -0.5157  0.2986 -0.1840
  361MOL     H543925   3.569   3.459   3.717  0.2286 -0.4111  1.5137
  361MOL     H643926   3.582   3.629   3.681 -1.3849 -1.2186 -2.2722
  361MOL     H743927   3.832   3.561   3.621  0.0432 -0.2305 -2.3814
  361MOL     C843928   3.689   3.571   3.862 -0.1365 -0.1001  0.1678
  361MOL     F943929   3.705   3.453   3.927 -0.4810  0.4571  0.4686
  361MOL    F1043930   3.813   3.625   3.849 -0.5193 -0.1598  0.3541
  361MOL    C1143931   3.603   3.665   3.944  0.1451  0.1628  1.3138
  361MOL    H1243932   3.599   3.754   3.882 -1.2985 -0.3972  0.5854
  361MOL    H1343933   3.668   3.694   4.026  0.6867 -1.1923  1.3771
  361MOL    C1443934   3.465   3.618   4.002 -1.0239 -0.7309  0.6838
  361MOL    F1543935   3.401   3.606   3.884 -0.0845 -0.1367  0.4648
  361MOL    F1643936   3.485   3.493   4.049 -0.0534  0.4198 -0.4220
  361MOL    C1743937   3.394   3.718   4.098  0.3168  0.1651  0.7731
  361MOL    H1843938   3.381   3.817   4.057 -2.5420 -0.6480 -0.3979
  361MOL    H1943939   3.463   3.709   4.182  2.1320  2.2841 -0.4442
  361MOL    C2043940   3.246   3.682   4.128  0.6125 -0.0636 -0.3149
  361MOL    F2143941   3.232   3.557   4.182 -0.0230 -0.8009  0.0424
  361MOL    F2243942   3.210   3.772   4.221 -0.3294  0.1921 -0.0413
  361MOL    C2343943   3.144   3.699   4.018 -0.0845  0.2974 -0.3620
  361MOL    H2443944   3.047   3.667   4.055  0.3765  0.0046  0.5949
  361MOL    H2543945   3.165   3.628   3.937  0.1091  0.5621 -0.5453
  361MOL    C2643946   3.121   3.837   3.957 -0.2751  0.0716 -0.4057
  361MOL    F2743947   3.111   3.930   4.058  0.0606  0.6425 -0.4516
  361MOL    F2843948   3.218   3.884   3.879 -0.1447  0.0641 -0.1279
  361MOL    C2943949   3.000   3.847   3.866  0.3885  0.9734  0.1924
  361MOL    H3043950   3.010   3.945   3.819 -1.3717 -0.0412 -2.4032
  361MOL    H3143951   2.906   3.846   3.919 -0.2895  1.2259 -0.9797
  361MOL    C3243952   2.980   3.750   3.748  0.9929  0.2288 -0.6316
  361MOL    F3343953   2.938   3.640   3.811  0.4431  0.2963 -0.1629
  361MOL    F3443954   2.876   3.794   3.683  0.2167 -0.1741  0.4386
  361MOL    C3543955   3.098   3.721   3.652  0.6228 -0.6655 -0.6321
  361MOL    H3643956   3.171   3.661   3.706 -0.3621 -1.8165 -0.5456
  361MOL    H3743957   3.140   3.811   3.607 -1.2520 -0.0059 -1.1295
  361MOL    C3843958   3.050   3.631   3.535 -0.2372  0.3651  0.2239
  361MOL    F3943959   2.985   3.526   3.587  0.1097 -0.5047 -0.1748
  361MOL    F4043960   2.974   3.693   3.447 -0.5800 -0.5892 -0.1452
  361MOL    C4143961   3.167   3.570   3.454 -0.1432 -0.1257 -0.1796
  361MOL    H4243962   3.119   3.516   3.372 -1.6007 -1.0276  1.2278
  361MOL    H4343963   3.211   3.499   3.523 -2.2504 -0.5374  0.7852
  361MOL    C4443964   3.272   3.663   3.399 -0.1268 -1.0243  0.5951
  361MOL    F4543965   3.206   3.762   3.341  0.4370 -0.2734 -0.1428
  361MOL    F4643966   3.343   3.711   3.497 -0.6121  0.0646  0.1056
  361MOL    C4743967   3.362   3.592   3.302 -0.2674  0.0408  0.9515
  361MOL    H4843968   3.300   3.543   3.226  1.7278 -2.3928  0.8368
  361MOL    H4943969   3.405   3.507   3.356  2.1622 -0.0517 -1.0655
  361MOL    C5043970   3.473   3.684   3.231 -0.4112 -0.3135 -0.2039
  361MOL    F5143971   3.393   3.776   3.166  0.3525  0.3927  0.7619
  361MOL    F5243972   3.548   3.740   3.325 -0.2810 -0.1641 -0.2121
  361MOL    C5343973   3.563   3.610   3.123  0.2115 -0.1836 -0.5721
  361MOL    H5443974   3.491   3.561   3.057 -1.2185  1.4072 -0.2274
  361MOL    H5543975   3.628   3.535   3.168 -0.5004  0.4164  1.5589
  361MOL    C5643976   3.652   3.703   3.041 -0.2314 -0.5241  0.4549
  361MOL    F5743977   3.715   3.617   2.963  0.6071 -0.0554 -0.0411
  361MOL    F5843978   3.577   3.779   2.963 -0.1227 -0.5667 -0.6862
  361MOL    C5943979   3.744   3.797   3.124 -0.0120  0.0146 -0.0743
  361MOL    H6043980   3.804   3.742   3.196  2.8689  1.5510 -1.2166
  361MOL    H6143981   3.687   3.871   3.179 -0.0920 -0.6163  0.6994
  361MOL    C6243982   3.845   3.883   3.040  0.3795  0.0822  0.5366
  361MOL    F6343983   3.780   3.954   2.944 -0.3408  0.2950  0.0651
  361MOL    F6443984   3.900   3.965   3.130 -0.6413  0.0797  0.0971
  361MOL    C6543985   3.961   3.795   2.978  0.5162  0.3227  0.3412
  361MOL    H6643986   3.921   3.702   2.938 -1.2606  1.2700 -0.1288
  361MOL    H6743987   4.033   3.768   3.055  0.4089  0.3359  0.4466
  361MOL    C6843988   4.039   3.871   2.867 -0.7341  0.5027  0.1910
  361MOL    F6943989   4.140   3.797   2.818  0.0991  0.0471  0.0596
  361MOL    F7043990   3.963   3.878   2.763  0.3418  0.3921  0.4345
  361MOL    C7143991   4.091   4.012   2.902  0.2673  0.0275  0.0746
  361MOL    H7243992   4.143   4.000   2.998  0.5621 -1.1010 -0.2197
  361MOL    H7343993   4.003   4.069   2.933 -0.4835 -1.9631  1.7105
  361MOL    C7443994   4.173   4.086   2.792 -0.1347 -0.1012 -0.0484
  361MOL    F7543995   4.292   4.020   2.789  0.5618  0.1965  0.6269
  361MOL    F7643996   4.114   4.078   2.671 -0.0245  0.0797 -0.1204
  361MOL    C7743997   4.204   4.237   2.826 -0.0991 -0.0743  0.4397
  361MOL    H7843998   4.111   4.290   2.806 -0.3528  0.0799  1.9291
  361MOL    H7943999   4.274   4.276   2.752  0.2532 -0.4681  0.5593
  361MOL    C8044000   4.249   4.272   2.971  0.3425 -0.3674  0.3519
  361MOL    F8144001   4.165   4.206   3.059 -0.0571 -0.4970  0.3081
  361MOL    F8244002   4.373   4.215   2.996 -0.1554 -0.1023 -0.3365
  361MOL    C8344003   4.239   4.420   2.990  0.2695  0.7048  0.8388
  361MOL    H8444004   4.262   4.433   3.096  0.4331 -0.4622  0.9576
  361MOL    H8544005   4.134   4.446   2.978  0.7831  3.2751  1.7051
  361MOL    C8644006   4.338   4.519   2.927  0.4156  0.2071  0.1580
  361MOL    F8744007   4.302   4.540   2.795 -0.0694  0.0112 -0.2368
  361MOL    F8844008   4.311   4.627   2.991 -0.3787  0.1107  0.0038
  361MOL    C8944009   4.490   4.488   2.942  0.2331  0.0798 -0.5082
  361MOL    H9044010   4.522   4.408   2.875 -0.2561 -1.1688  0.7240
  361MOL    H9144011   4.502   4.460   3.047 -1.6000  0.9446 -0.0520
  361MOL    C9244012   4.585   4.603   2.910  0.9396 -0.2505  0.5263
  361MOL    F9344013   4.553   4.650   2.785 -0.3021  0.1238 -0.6016
  361MOL    F9444014   4.560   4.698   2.996  0.1173  0.3065 -0.3021
  361MOL    C9544015   4.741   4.579   2.909  0.6471 -0.3039  0.9571
  361MOL    H9644016   4.801   4.667   2.890 -2.4188  1.3259 -1.6311
  361MOL    H9744017   4.768   4.526   2.818  1.1898 -2.8703  2.5590
  361MOL    C9844018   4.810   4.525   3.039  0.0443  0.4782 -0.0797
  361MOL    F9944019   4.752   4.408   3.059  0.0439  0.2695 -0.3335
  361MOL   F10044020   4.940   4.514   3.016 -0.4955 -0.2756 -0.5603
  361MOL   C10144021   4.791   4.624   3.156  0.2265  0.8139  0.4371
  361MOL   H10244022   4.690   4.661   3.173  0.5919  1.9732  0.1928
  361MOL   H10344023   4.854   4.710   3.132  1.4215 -0.6122 -1.6377
  361MOL   C10444024   4.820   4.556   3.291 -0.3718 -0.0542 -0.1824
  361MOL   F10544025   4.810   4.646   3.385 -0.1010  0.0646  0.1779
  361MOL   F10644026   4.725   4.465   3.313 -0.3245  0.0723  0.2076
  361MOL   C10744027   4.949   4.485   3.296 -0.3143 -0.6125 -0.0782
  361MOL   H10844028   5.021   4.562   3.264  1.8323 -3.0524 -1.3103
  361MOL   H10944029   4.957   4.411   3.216 -0.7815 -1.1968  0.4229
  361MOL   C11044030   4.987   4.416   3.430  0.1009  1.0193 -0.2607
  361MOL   F11144031   4.893   4.316   3.446 -0.3705 -0.6999 -0.3606
  361MOL   F11244032   5.097   4.350   3.407 -0.4563  0.4387  0.0177
  361MOL   C11344033   5.006   4.511   3.547 -0.3705 -0.1515 -0.8549
  361MOL   H11444034   4.906   4.547   3.574 -0.4472  0.0356 -1.3812
  361MOL   H11544035   5.070   4.592   3.512  1.6865 -1.6303 -0.5935
  361MOL   C11644036   5.068   4.441   3.672  0.2743 -0.4136 -0.2755
  361MOL   F11744037   4.981   4.355   3.714 -0.2784  0.0856 -0.5666
  361MOL   F11844038   5.187   4.385   3.652 -0.0635 -0.3856  0.0711
  361MOL   C11944039   5.071   4.540   3.791 -0.1691 -0.4912  0.4614
  361MOL   H12044040   5.151   4.613   3.779 -0.1354 -0.7443 -0.8624
  361MOL   H12144041   5.105   4.490   3.882 -0.9231 -1.2464  0.3358
  361MOL   H12244042   4.977   4.588   3.818  0.6311  0.9658  0.7263
  362MOL     C144043   4.686   2.048   5.355  0.0596 -0.0735 -0.4617
  362MOL     F244044   4.819   2.026   5.353 -0.5369  0.2250 -0.0454
  362MOL     F344045   4.674   2.148   5.271  0.1981  0.4859 -0.2989
  362MOL     C444046   4.627   2.089   5.492  0.1944 -0.0518  0.4445
  362MOL     H544047   4.648   2.195   5.511 -1.2522  0.8047 -2.5041
  362MOL     H644048   4.672   2.031   5.572  4.4418  2.2155 -0.1615
  362MOL     H744049   4.634   1.957   5.326  0.5826 -1.2579  2.2057
  362MOL     C844050   4.473   2.064   5.511 -0.1818 -0.2921 -0.1021
  362MOL     F944051   4.457   2.091   5.639  0.5093  0.0866 -0.3072
  362MOL    F1044052   4.411   2.159   5.448 -0.1767  0.0202 -0.2367
  362MOL    C1144053   4.402   1.927   5.472 -0.2035  0.4731 -0.4354
  362MOL    H1244054   4.409   1.921   5.363  0.8824  0.3161 -0.3570
  362MOL    H1344055   4.296   1.918   5.497 -0.4457 -0.0184 -1.5931
  362MOL    C1444056   4.458   1.799   5.531 -0.2530 -0.0688  0.4134
  362MOL    F1544057   4.585   1.794   5.506 -0.1907  0.3641 -0.2774
  362MOL    F1644058   4.436   1.813   5.665 -0.4717 -0.1025  0.0842
  362MOL    C1744059   4.382   1.664   5.491 -0.1449  0.4664 -0.7498
  362MOL    H1844060   4.371   1.664   5.382 -1.4675 -1.1490 -0.6447
  362MOL    H1944061   4.285   1.666   5.540  0.1077 -1.7393 -0.1007
  362MOL    C2044062   4.452   1.531   5.540 -0.0018  0.4168 -0.3485
  362MOL    F2144063   4.369   1.428   5.501  0.4116  0.2421 -0.8169
  362MOL    F2244064   4.572   1.512   5.490  0.1376  0.8671 -0.0939
  362MOL    C2344065   4.460   1.525   5.697 -0.0312  0.4341 -0.2038
  362MOL    H2444066   4.359   1.527   5.739  0.0282 -0.6138 -0.0020
  362MOL    H2544067   4.515   1.611   5.735  1.3365 -0.3945 -0.2717
  362MOL    C2644068   4.539   1.399   5.750 -0.4865 -0.0984 -0.5672
  362MOL    F2744069   4.514   1.294   5.675  0.4481  0.1536  0.4420
  362MOL    F2844070   4.673   1.432   5.748 -0.2754  0.7918  0.2048
  362MOL    C2944071   4.512   1.358   5.895  0.0280  0.2935  0.1730
  362MOL    H3044072   4.535   1.443   5.960  2.8865  0.9570 -1.6124
  362MOL    H3144073   4.595   1.293   5.923  0.2439  0.3352 -0.3575
  362MOL    C3244074   4.386   1.290   5.925 -0.1128 -0.0506  0.6547
  362MOL    F3344075   4.372   1.300   6.053  0.9657  0.9250  0.1421
  362MOL    F3444076   4.286   1.359   5.867  0.0076 -0.1532 -0.0386
  362MOL    C3544077   4.385   1.138   5.879 -0.5052 -0.3461 -0.0653
  362MOL    H3644078   4.464   1.078   5.923 -2.2670 -2.4718  0.3005
  362MOL    H3744079   4.395   1.133   5.771  3.2205  0.3384  0.1884
  362MOL    C3844080   4.252   1.070   5.918  0.3040  0.0608 -0.5858
  362MOL    F3944081   4.248   1.058   6.052 -0.0447  0.1443 -0.9673
  362MOL    F4044082   4.149   1.149   5.880 -0.0998 -0.0227  0.2256
  362MOL    C4144083   4.244   0.919   5.874  0.3852 -0.1299  0.0742
  362MOL    H4244084   4.152   0.868   5.903  0.2102 -0.6483 -1.3470
  362MOL    H4344085   4.323   0.872   5.933  2.1804  0.3685 -1.8390
  362MOL    C4444086   4.278   0.889   5.724 -1.1447 -0.1211 -0.0793
  362MOL    F4544087   4.412   0.909   5.717  0.3459 -0.5105 -0.1565
  362MOL    F4644088   4.262   0.753   5.692  0.4072  0.3382  0.3055
  362MOL    C4744089   4.218   0.972   5.617 -0.0986 -0.8302 -0.6283
  362MOL    H4844090   4.208   1.076   5.651  1.8284 -0.6209 -0.6693
  362MOL    H4944091   4.117   0.932   5.611  0.2151 -1.7651  0.1771
  362MOL    C5044092   4.297   0.985   5.485  0.8570  0.0473 -0.0536
  362MOL    F5144093   4.219   1.048   5.398 -0.3395 -0.3827 -0.0161
  362MOL    F5244094   4.400   1.065   5.510 -0.3265 -0.3655  0.2417
  362MOL    C5344095   4.346   0.845   5.423  0.2290 -0.5133  0.4533
  362MOL    H5444096   4.265   0.772   5.426 -0.0279 -0.2909 -1.1284
  362MOL    H5544097   4.425   0.801   5.484  1.3976  1.3803  0.3585
  362MOL    C5644098   4.397   0.865   5.280 -0.0573  0.0382  0.1945
  362MOL    F5744099   4.490   0.966   5.287 -0.2285  0.3125  0.0808
  362MOL    F5844100   4.463   0.757   5.248 -0.1508  0.6677 -0.3243
  362MOL    C5944101   4.296   0.897   5.163 -0.0880 -0.0025  0.0226
  362MOL    H6044102   4.359   0.915   5.076  0.5920  1.1400  0.7336
  362MOL    H6144103   4.252   0.994   5.185 -1.7229 -1.1311  1.9198
  362MOL    C6244104   4.189   0.797   5.126  0.2651 -0.0887 -0.1983
  362MOL    F6344105   4.123   0.762   5.232 -0.0954  0.7897  0.2434
  362MOL    F6444106   4.104   0.863   5.039 -0.0578  0.9111 -0.3489
  362MOL    C6544107   4.240   0.671   5.052 -0.4625  0.4924 -0.0715
  362MOL    H6644108   4.275   0.598   5.124  1.4123  0.3725 -1.0933
  362MOL    H6744109   4.329   0.690   4.993 -1.4101 -1.3658 -2.1631
  362MOL    C6844110   4.142   0.610   4.953 -0.9017 -0.0156  0.6979
  362MOL    F6944111   4.121   0.682   4.842  0.1048  0.1874  0.1828
  362MOL    F7044112   4.211   0.497   4.924 -0.4791 -0.2256 -0.0270
  362MOL    C7144113   4.001   0.581   5.012  0.3018 -0.5985  0.5428
  362MOL    H7244114   3.968   0.656   5.083 -0.0349 -0.5612  0.3475
  362MOL    H7344115   3.997   0.485   5.064 -2.5737 -0.6944  0.2284
  362MOL    C7444116   3.889   0.556   4.908  0.6152 -0.2401  0.3401
  362MOL    F7544117   3.781   0.518   4.977 -0.0025 -0.1239 -0.3549
  362MOL    F7644118   3.849   0.672   4.853  0.6765 -0.2320  0.8277
  362MOL    C7744119   3.930   0.452   4.792  0.7059  0.5886 -0.3148
  362MOL    H7844120   3.983   0.365   4.831 -1.3717 -0.2409  0.7973
  362MOL    H7944121   4.008   0.488   4.725  1.5948 -2.3066 -0.9116
  362MOL    C8044122   3.816   0.394   4.705  0.4529 -0.1423  0.2029
  362MOL    F8144123   3.717   0.351   4.776  0.3649  0.2414 -0.2771
  362MOL    F8244124   3.773   0.490   4.627 -0.1072  0.3920 -0.0093
  362MOL    C8344125   3.862   0.269   4.621 -0.3499  0.7116 -0.2277
  362MOL    H8444126   3.907   0.198   4.690 -0.1524  1.7376  0.7192
  362MOL    H8544127   3.947   0.300   4.560  0.4910 -1.0172  0.0540
  362MOL    C8644128   3.758   0.203   4.528 -0.0620  0.2045 -0.2785
  362MOL    F8744129   3.648   0.177   4.594 -0.8515 -0.0865 -0.1036
  362MOL    F8844130   3.731   0.296   4.427 -0.0616  0.2276 -0.3322
  362MOL    C8944131   3.812   0.082   4.449  0.4429 -0.1311 -0.3984
  362MOL    H9044132   3.916   0.100   4.424  0.3363 -1.5474 -1.9489
  362MOL    H9144133   3.759   0.068   4.355  0.1339 -1.2382 -0.0667
  362MOL    C9244134   3.802   8.297   4.523 -0.4002 -0.1917 -0.3329
  362MOL    F9344135   3.867   8.317   4.645  0.0415 -0.2560 -0.1312
  362MOL    F9444136   3.681   8.269   4.547  0.0347  0.3857  0.0086
  362MOL    C9544137   3.875   8.179   4.447  0.0381 -0.1702 -0.7478
  362MOL    H9644138   3.976   8.215   4.425  0.3244  0.3900  1.3815
  362MOL    H9744139   3.817   8.156   4.357 -0.4738 -0.2949 -0.3866
  362MOL    C9844140   3.880   8.037   4.510  0.2356  0.1852  0.2560
  362MOL    F9944141   3.947   8.063   4.620  0.8329  0.0921  0.0488
  362MOL   F10044142   3.763   7.996   4.534 -0.1567  0.2326 -0.9488
  362MOL   C10144143   3.960   7.931   4.434 -0.1207 -0.1745 -0.4525
  362MOL   H10244144   4.047   7.983   4.395 -0.9841  1.7011  0.0851
  362MOL   H10344145   3.906   7.902   4.344 -0.6475 -0.7641  0.0447
  362MOL   C10444146   4.000   7.803   4.518 -0.0380  0.8923 -0.2870
  362MOL   F10544147   3.894   7.732   4.558 -0.1486  0.0767 -0.3471
  362MOL   F10644148   4.070   7.728   4.429 -0.1005 -0.8604  0.5736
  362MOL   C10744149   4.098   7.837   4.627  0.2284  0.0801  0.8909
  362MOL   H10844150   4.060   7.879   4.720 -0.1772  0.5342  0.5200
  362MOL   H10944151   4.172   7.905   4.584 -0.7998 -0.1519 -1.3065
  362MOL   C11044152   4.185   7.722   4.684 -0.2301  0.0483  0.9072
  362MOL   F11144153   4.275   7.702   4.592 -0.2930 -0.0949 -0.5152
  362MOL   F11244154   4.254   7.760   4.797  0.0275  0.6757  0.1420
  362MOL   C11344155   4.102   7.599   4.717  0.1933  0.4753 -0.3077
  362MOL   H11444156   4.068   7.562   4.621  0.9475 -1.0300 -0.0100
  362MOL   H11544157   4.016   7.635   4.775  0.7347 -0.7022  1.2686
  362MOL   C11644158   4.177   7.478   4.786  0.1745  0.2565  0.4871
  362MOL   F11744159   4.183   7.512   4.920 -0.6852 -0.3643  0.2401
  362MOL   F11844160   4.113   7.367   4.775  0.1066  0.9323  0.2335
  362MOL   C11944161   4.317   7.451   4.731  0.4183  0.4689 -0.4347
  362MOL   H12044162   4.362   7.358   4.768 -1.5895 -0.0215  0.9045
  362MOL   H12144163   4.392   7.525   4.758  0.9398  0.5521 -2.0789
  362MOL   H12244164   4.330   7.434   4.625  1.5860 -2.0644  0.0746
  363MOL     C144165   2.914   5.005   1.100 -0.1804  0.1768  0.5282
  363MOL     F244166   2.780   5.015   1.100  0.2378 -0.3034 -0.1732
  363MOL     F344167   2.964   5.078   1.004  0.1668 -0.5002 -0.7780
  363MOL     C444168   2.971   4.862   1.097  0.9952 -0.1540  0.1957
  363MOL     H544169   2.961   4.815   0.999  0.7715 -1.4797  0.8388
  363MOL     H644170   2.896   4.807   1.154  0.6872 -1.3889 -1.3642
  363MOL     H744171   2.944   5.053   1.193  0.5545  0.0762  0.3449
  363MOL     C844172   3.117   4.849   1.155 -0.9080 -0.3852 -0.1941
  363MOL     F944173   3.193   4.929   1.087  0.1257  0.1996 -0.4706
  363MOL    F1044174   3.109   4.883   1.280  0.3636  0.3965  0.1821
  363MOL    C1144175   3.188   4.706   1.149  0.1453 -0.2969  0.3355
  363MOL    H1244176   3.174   4.666   1.049 -1.2977 -0.7132  0.6982
  363MOL    H1344177   3.121   4.650   1.214  0.1503 -0.7889 -0.0794
  363MOL    C1444178   3.333   4.685   1.183  0.0130  0.1070  0.8352
  363MOL    F1544179   3.360   4.553   1.163 -0.4950  0.3679  0.2398
  363MOL    F1644180   3.410   4.750   1.099  0.1465  0.1119 -0.3433
  363MOL    C1744181   3.368   4.730   1.320  0.4434 -0.1680  0.6911
  363MOL    H1844182   3.343   4.836   1.328 -0.9226 -0.3171 -1.2869
  363MOL    H1944183   3.477   4.725   1.328  0.4487 -1.1849  0.0301
  363MOL    C2044184   3.314   4.653   1.443 -0.5880  0.0073 -0.4276
  363MOL    F2144185   3.187   4.637   1.436  0.2103  0.2215  0.5374
  363MOL    F2244186   3.364   4.526   1.449 -0.5801 -0.2161  0.4792
  363MOL    C2344187   3.338   4.721   1.579 -0.0111 -0.3149 -0.2959
  363MOL    H2444188   3.444   4.714   1.604 -0.1780 -0.9986  0.2397
  363MOL    H2544189   3.287   4.659   1.653 -2.0408  0.1422 -1.2698
  363MOL    C2644190   3.289   4.868   1.618  0.5176  0.5775 -0.0693
  363MOL    F2744191   3.332   4.898   1.743 -0.1644 -0.0790 -0.4956
  363MOL    F2844192   3.345   4.956   1.533  0.1898  0.0061  0.1976
  363MOL    C2944193   3.139   4.905   1.612 -0.0139  0.1447 -0.0280
  363MOL    H3044194   3.084   4.866   1.698 -2.3341  1.4187 -0.8894
  363MOL    H3144195   3.093   4.846   1.533 -0.2356 -1.3938  1.2301
  363MOL    C3244196   3.104   5.050   1.594  0.4072  0.2196 -0.2112
  363MOL    F3344197   3.146   5.100   1.476 -0.2316  0.5791 -0.0357
  363MOL    F3444198   2.974   5.040   1.590 -1.0585  0.1068  0.2499
  363MOL    C3544199   3.142   5.124   1.720 -0.3642 -0.5250  0.5340
  363MOL    H3644200   3.249   5.115   1.737 -0.3316 -0.4146  0.3901
  363MOL    H3744201   3.103   5.061   1.800  0.5468 -1.2020  0.4447
  363MOL    C3844202   3.111   5.276   1.736 -0.2255  1.1077 -0.3498
  363MOL    F3944203   3.163   5.344   1.634  0.2880  0.6373 -0.4620
  363MOL    F4044204   2.984   5.291   1.723 -0.5738 -0.3395  0.1293
  363MOL    C4144205   3.157   5.332   1.859 -0.5879  0.4966  0.3508
  363MOL    H4244206   3.258   5.298   1.883 -0.9126 -3.1126 -2.8050
  363MOL    H4344207   3.097   5.291   1.940 -1.9619  2.5274  0.3948
  363MOL    C4444208   3.141   5.489   1.875  0.1848 -0.3254 -0.3647
  363MOL    F4544209   3.182   5.554   1.767 -0.1286  0.1541 -0.1043
  363MOL    F4644210   3.010   5.527   1.880  0.2838  0.0251 -0.2280
  363MOL    C4744211   3.226   5.536   1.991  0.2466  0.1114  0.1993
  363MOL    H4844212   3.243   5.643   1.977 -1.1384  0.5230  1.5335
  363MOL    H4944213   3.327   5.499   1.970  0.3119 -0.4758  1.5252
  363MOL    C5044214   3.177   5.502   2.131  0.2806  0.5451 -0.0563
  363MOL    F5144215   3.151   5.376   2.156  0.1157 -0.4250 -0.5326
  363MOL    F5244216   3.275   5.523   2.219  0.4406  0.0136 -0.2748
  363MOL    C5344217   3.060   5.591   2.173 -0.2275  0.7749  0.0462
  363MOL    H5444218   2.978   5.567   2.105  1.1818 -0.3309 -1.3238
  363MOL    H5544219   3.087   5.694   2.150 -0.7645  0.4214 -2.2775
  363MOL    C5644220   3.006   5.579   2.322 -0.0898  0.5547 -0.3683
  363MOL    F5744221   2.950   5.464   2.339 -0.0364 -0.2591 -0.6421
  363MOL    F5844222   3.103   5.605   2.409 -0.2676  0.2029 -0.0086
  363MOL    C5944223   2.908   5.694   2.334 -0.9063  0.3947  0.6879
  363MOL    H6044224   2.823   5.686   2.267 -0.8400  1.0268  0.5258
  363MOL    H6144225   2.970   5.781   2.313  1.1360 -1.1136  0.3026
  363MOL    C6244226   2.849   5.701   2.480 -0.0008 -1.0862  0.1247
  363MOL    F6344227   2.795   5.582   2.507  0.1700 -0.2664  0.0215
  363MOL    F6444228   2.944   5.722   2.569  0.3942 -0.3675  0.8035
  363MOL    C6544229   2.747   5.811   2.496  0.0486 -0.7231  0.1244
  363MOL    H6644230   2.660   5.789   2.434 -1.1280  0.6686  1.2742
  363MOL    H6744231   2.784   5.903   2.451  1.9517 -1.9464 -0.8867
  363MOL    C6844232   2.698   5.829   2.637  0.3649  0.1717 -0.0901
  363MOL    F6944233   2.625   5.725   2.673 -0.1683 -0.2378  0.1125
  363MOL    F7044234   2.791   5.847   2.731  0.3042 -0.2095  0.2876
  363MOL    C7144235   2.609   5.960   2.653 -0.1437 -0.9747 -0.5813
  363MOL    H7244236   2.538   5.972   2.571  0.5479  0.7686 -0.9433
  363MOL    H7344237   2.687   6.035   2.638 -0.4518 -0.3675  0.7231
  363MOL    C7444238   2.541   5.983   2.793 -0.5713 -0.2002  0.1805
  363MOL    F7544239   2.435   5.900   2.797  0.4943  0.6409 -0.2927
  363MOL    F7644240   2.621   5.940   2.898  0.0728  0.4219 -0.1633
  363MOL    C7744241   2.503   6.131   2.826 -0.6001 -0.1793  0.0842
  363MOL    H7844242   2.591   6.194   2.831 -1.4748  1.0472  0.1478
  363MOL    H7944243   2.467   6.123   2.929  0.1429  0.4497  0.3968
  363MOL    C8044244   2.397   6.212   2.739  0.0578 -0.9922  0.6504
  363MOL    F8144245   2.406   6.339   2.772  0.5430 -0.5189 -0.3490
  363MOL    F8244246   2.427   6.192   2.610  0.0934 -0.4401  0.3073
  363MOL    C8344247   2.256   6.171   2.766  0.7719  0.4739 -0.8837
  363MOL    H8444248   2.243   6.173   2.874 -2.1368  0.8510 -1.2152
  363MOL    H8544249   2.246   6.068   2.733  0.6582  0.2498 -0.1642
  363MOL    C8644250   2.146   6.247   2.691 -0.4505  0.1107  1.2500
  363MOL    F8744251   2.138   6.371   2.733  0.6781  0.2519  0.3300
  363MOL    F8844252   2.173   6.244   2.558  0.2266 -0.3522 -0.4358
  363MOL    C8944253   2.006   6.178   2.703 -0.4730  0.6790 -0.5523
  363MOL    H9044254   1.981   6.186   2.808  0.3723 -0.4132 -0.2538
  363MOL    H9144255   2.022   6.070   2.693  0.5313  1.0281 -3.1254
  363MOL    C9244256   1.883   6.227   2.626 -0.4162  0.3731  0.2789
  363MOL    F9344257   1.911   6.222   2.496 -0.2189  0.1507  0.0355
  363MOL    F9444258   1.785   6.149   2.664  0.1005 -0.2565 -0.1255
  363MOL    C9544259   1.840   6.374   2.670  0.3859 -0.1823  0.2656
  363MOL    H9644260   1.926   6.439   2.687  1.0998 -1.3318  1.1513
  363MOL    H9744261   1.793   6.361   2.767 -1.3491 -1.8171 -0.7569
  363MOL    C9844262   1.758   6.441   2.562 -0.3955  0.2287 -0.1725
  363MOL    F9944263   1.722   6.566   2.601  0.2696 -0.2566 -0.3359
  363MOL   F10044264   1.832   6.445   2.451 -0.1811 -0.2300  0.0924
  363MOL   C10144265   1.627   6.375   2.525 -0.4816  0.1174 -0.4898
  363MOL   H10244266   1.564   6.369   2.614 -0.3769  0.1234 -0.4161
  363MOL   H10344267   1.637   6.268   2.504  0.8681 -0.0722  1.0184
  363MOL   C10444268   1.543   6.433   2.408 -0.0515  0.1655  0.2269
  363MOL   F10544269   1.611   6.406   2.298 -0.3511  0.1088 -0.1753
  363MOL   F10644270   1.426   6.367   2.404  0.1748 -0.5858  0.2155
  363MOL   C10744271   1.505   6.585   2.411  0.3443 -0.5153  0.9524
  363MOL   H10844272   1.604   6.626   2.393  0.3358 -0.5851  0.7499
  363MOL   H10944273   1.471   6.611   2.512  1.0551 -0.0426  1.0691
  363MOL   C11044274   1.408   6.628   2.299 -0.1362  0.0947 -0.0926
  363MOL   F11144275   1.289   6.560   2.304 -0.4685 -0.2604 -0.1835
  363MOL   F11244276   1.382   6.750   2.319 -0.1987 -0.0558 -0.2384
  363MOL   C11344277   1.476   6.634   2.158 -0.1679 -0.1963 -0.2708
  363MOL   H11444278   1.492   6.530   2.130  4.4325 -0.6816  3.5234
  363MOL   H11544279   1.575   6.678   2.172 -1.0648  1.3843  1.4123
  363MOL   C11644280   1.411   6.720   2.052  0.4531  0.2003 -0.1488
  363MOL   F11744281   1.291   6.663   2.029 -0.6111 -0.2187 -0.3228
  363MOL   F11844282   1.396   6.848   2.078 -0.0764  0.2324 -0.4364
  363MOL   C11944283   1.481   6.710   1.918 -0.6704  0.0673  0.0958
  363MOL   H12044284   1.442   6.764   1.832  0.7349  2.1817  0.7402
  363MOL   H12144285   1.483   6.607   1.881 -0.9797 -0.2523  0.9602
  363MOL   H12244286   1.585   6.743   1.927  0.1232 -1.3966 -2.8463
  364MOL     C144287   0.977   4.776   3.213 -0.4084 -0.4408  0.3273
  364MOL     F244288   0.910   4.883   3.173 -0.4532  0.2361  0.8020
  364MOL     F344289   1.071   4.743   3.118  0.2522 -0.0432 -0.3504
  364MOL     C444290   0.866   4.664   3.233 -0.1797  0.2413 -0.0139
  364MOL     H544291   0.842   4.620   3.137 -1.7052  0.1852  0.3763
  364MOL     H644292   0.777   4.706   3.279  0.6702  1.5764  0.4518
  364MOL     H744293   1.014   4.794   3.314 -0.2028 -1.0433  0.3628
  364MOL     C844294   0.924   4.544   3.328 -0.4577  0.6651  0.1608
  364MOL     F944295   1.038   4.490   3.269  0.2823 -0.1645 -0.2777
  364MOL    F1044296   0.970   4.596   3.442  0.3279 -0.3608  0.1871
  364MOL    C1144297   0.811   4.444   3.366 -0.1427  0.4361 -0.1969
  364MOL    H1244298   0.785   4.386   3.278  0.4080  1.3550 -0.9721
  364MOL    H1344299   0.719   4.499   3.389 -2.4181 -2.7401 -1.3162
  364MOL    C1444300   0.832   4.329   3.471  0.2070  0.4704  0.0718
  364MOL    F1544301   0.720   4.255   3.479 -0.0301 -0.2881 -0.2085
  364MOL    F1644302   0.929   4.255   3.410 -0.1773  0.3626  0.1966
  364MOL    C1744303   0.866   4.368   3.617 -0.3342  0.2475  0.6038
  364MOL    H1844304   0.777   4.421   3.652 -0.4147  0.3093  0.3060
  364MOL    H1944305   0.949   4.438   3.609 -1.2089  1.1182 -1.3952
  364MOL    C2044306   0.891   4.246   3.714 -0.3796 -0.2131  0.2310
  364MOL    F2144307   0.936   4.291   3.833 -0.0838 -0.7099 -0.0290
  364MOL    F2244308   0.771   4.194   3.744  0.2965 -0.4131 -0.1423
  364MOL    C2344309   0.994   4.131   3.668 -0.1290 -0.7297 -0.0655
  364MOL    H2444310   0.957   4.088   3.575 -0.3268  0.0381 -0.3475
  364MOL    H2544311   0.997   4.049   3.739 -0.3245  0.7594  1.7042
  364MOL    C2644312   1.143   4.171   3.639  0.1815  0.9757  0.3958
  364MOL    F2744313   1.159   4.238   3.520  0.1748 -0.2253 -0.2838
  364MOL    F2844314   1.166   4.258   3.735 -0.5905 -0.1199  0.2232
  364MOL    C2944315   1.251   4.062   3.663 -0.0677  0.6178  0.7305
  364MOL    H3044316   1.241   4.011   3.759 -1.0301  0.0269  0.3195
  364MOL    H3144317   1.348   4.113   3.670 -0.2684  0.8943  1.5622
  364MOL    C3244318   1.260   3.959   3.545 -0.1570 -0.6079 -0.3867
  364MOL    F3344319   1.147   3.895   3.538  0.2725 -0.0868 -0.7190
  364MOL    F3444320   1.263   4.011   3.423 -0.1556 -0.0019 -0.3974
  364MOL    C3544321   1.376   3.861   3.575  0.3710  0.3539  0.3611
  364MOL    H3644322   1.359   3.817   3.674 -1.5053  1.8197  0.7088
  364MOL    H3744323   1.468   3.919   3.577  0.8433 -0.4207  2.6122
  364MOL    C3844324   1.397   3.758   3.468 -0.2764 -0.0730 -0.7148
  364MOL    F3944325   1.285   3.687   3.455  0.4159  0.3029  0.2142
  364MOL    F4044326   1.425   3.820   3.357  0.1587  0.1934 -0.0424
  364MOL    C4144327   1.494   3.643   3.507  0.5084 -0.1384  0.4618
  364MOL    H4244328   1.466   3.588   3.597  2.3686  2.7814  2.8975
  364MOL    H4344329   1.590   3.685   3.538  2.4214 -1.6619 -2.9936
  364MOL    C4444330   1.531   3.540   3.396  0.3173 -0.5790 -0.0858
  364MOL    F4544331   1.626   3.466   3.439 -0.2217 -0.1606  0.2198
  364MOL    F4644332   1.431   3.454   3.363 -0.2700 -0.2180 -0.1351
  364MOL    C4744333   1.589   3.594   3.267 -0.7655 -0.5648  0.3969
  364MOL    H4844334   1.509   3.644   3.213 -0.7137 -1.2634 -0.3320
  364MOL    H4944335   1.616   3.515   3.197 -0.8334 -0.0752 -0.1822
  364MOL    C5044336   1.714   3.694   3.279 -0.4788  1.0314  0.5424
  364MOL    F5144337   1.691   3.795   3.353  0.6476 -0.2972  0.0260
  364MOL    F5244338   1.813   3.635   3.341 -0.7439  0.1337 -0.0477
  364MOL    C5344339   1.781   3.726   3.142 -0.3112 -0.1300  1.1062
  364MOL    H5444340   1.834   3.639   3.104  0.1056  1.3886 -1.9670
  364MOL    H5544341   1.857   3.797   3.173  0.7469 -0.7366 -0.0628
  364MOL    C5644342   1.689   3.795   3.040  0.2009  0.5365 -0.0096
  364MOL    F5744343   1.578   3.722   3.019 -0.5563  0.0642 -0.3290
  364MOL    F5844344   1.644   3.905   3.092 -0.1643  0.3932  0.7692
  364MOL    C5944345   1.768   3.827   2.911 -0.2863 -0.2599  0.1527
  364MOL    H6044346   1.718   3.909   2.859 -1.0414 -0.7566  0.0818
  364MOL    H6144347   1.759   3.743   2.841 -1.4126  0.0965 -0.1391
  364MOL    C6244348   1.911   3.877   2.921  0.5169  0.2419  0.1436
  364MOL    F6344349   1.910   3.967   3.024 -0.7905 -0.3843 -0.1793
  364MOL    F6444350   2.000   3.780   2.937 -0.5099  0.3701  0.1654
  364MOL    C6544351   1.967   3.951   2.802 -1.0784  0.5646 -0.4962
  364MOL    H6644352   2.064   3.988   2.835 -0.5460 -2.2827  1.2674
  364MOL    H6744353   1.926   4.051   2.793 -1.8944  0.2003 -0.8815
  364MOL    C6844354   1.981   3.875   2.659 -0.4778 -0.4693 -0.1410
  364MOL    F6944355   1.853   3.828   2.634  0.0402  0.0400  0.2797
  364MOL    F7044356   2.019   3.967   2.573 -0.4084  0.0333  0.4957
  364MOL    C7144357   2.084   3.753   2.642 -0.0661  0.0782 -0.2364
  364MOL    H7244358   2.074   3.708   2.543  1.2530 -1.1330  0.1574
  364MOL    H7344359   2.063   3.678   2.718  2.9826  2.0516  2.6942
  364MOL    C7444360   2.234   3.795   2.646  0.5432 -0.9071  0.3141
  364MOL    F7544361   2.265   3.881   2.547  0.5596  0.4995 -0.0232
  364MOL    F7644362   2.249   3.864   2.761 -0.1919 -0.2698  0.2365
  364MOL    C7744363   2.327   3.669   2.643  0.1656  0.2647 -0.1390
  364MOL    H7844364   2.313   3.628   2.543 -1.4560 -2.4164  1.1322
  364MOL    H7944365   2.303   3.594   2.720  0.3874 -1.2160 -1.4830
  364MOL    C8044366   2.476   3.702   2.662  0.6580  0.2234  0.5799
  364MOL    F8144367   2.519   3.794   2.567 -0.1248 -0.3204  0.5326
  364MOL    F8244368   2.495   3.754   2.785 -0.3085 -0.3992  0.0584
  364MOL    C8344369   2.556   3.570   2.637 -0.2962  0.3758  0.0787
  364MOL    H8444370   2.662   3.589   2.653 -0.9263  2.6900  1.8317
  364MOL    H8544371   2.553   3.534   2.535  0.9286  1.4886 -0.3640
  364MOL    C8644372   2.524   3.445   2.724 -0.4552  0.3045  0.0427
  364MOL    F8744373   2.494   3.490   2.847 -0.1306  0.3685 -0.2620
  364MOL    F8844374   2.422   3.386   2.679  0.4768  0.3260 -0.5204
  364MOL    C8944375   2.643   3.337   2.727  0.4219  0.2164 -0.0871
  364MOL    H9044376   2.728   3.387   2.772  1.3914 -2.6013  1.3556
  364MOL    H9144377   2.663   3.320   2.621 -1.4898  1.3671 -0.6595
  364MOL    C9244378   2.611   3.202   2.789  0.9433  0.7092 -0.3580
  364MOL    F9344379   2.539   3.133   2.705 -0.2789 -0.0776 -0.5091
  364MOL    F9444380   2.727   3.138   2.791  0.1154 -0.0156 -0.0566
  364MOL    C9544381   2.526   3.203   2.926  0.4510  0.3548  0.3067
  364MOL    H9644382   2.432   3.245   2.892  0.1869  1.0174  1.8335
  364MOL    H9744383   2.572   3.267   3.000 -0.7582  1.4528  0.1191
  364MOL    C9844384   2.495   3.075   2.999  0.1194 -1.0354  0.3941
  364MOL    F9944385   2.449   2.986   2.913 -0.1190 -0.2676 -0.3077
  364MOL   F10044386   2.614   3.038   3.046 -0.2529  0.0579  0.2037
  364MOL   C10144387   2.397   3.101   3.117  0.5170  0.4477 -0.2859
  364MOL   H10244388   2.295   3.125   3.090 -0.2201 -0.5901  1.5161
  364MOL   H10344389   2.425   3.188   3.177  0.0869  1.4018 -1.4511
  364MOL   C10444390   2.390   2.980   3.214 -0.0319 -0.5204 -0.4248
  364MOL   F10544391   2.336   2.888   3.141 -0.1272 -0.1879 -0.4018
  364MOL   F10644392   2.514   2.945   3.251 -0.0393 -0.1744 -0.3511
  364MOL   C10744393   2.298   2.987   3.337 -0.0692 -0.6313 -0.1210
  364MOL   H10844394   2.193   3.006   3.313 -0.5433 -1.6011  1.1272
  364MOL   H10944395   2.334   3.080   3.384 -1.7019 -0.0229 -0.0452
  364MOL   C11044396   2.321   2.871   3.440 -0.1420 -0.4397  0.0755
  364MOL   F11144397   2.432   2.892   3.501  0.2922  0.1007  0.0847
  364MOL   F11244398   2.224   2.882   3.533  0.0417  0.1500  0.1660
  364MOL   C11344399   2.308   2.735   3.375 -0.3610  0.7103 -0.1247
  364MOL   H11444400   2.395   2.727   3.309 -0.0678 -0.1850  0.3572
  364MOL   H11544401   2.216   2.731   3.316  1.5780  0.5917 -3.2205
  364MOL   C11644402   2.312   2.611   3.471 -0.3727 -0.3117  0.1566
  364MOL   F11744403   2.422   2.620   3.551  0.2895  0.5243 -0.1431
  364MOL   F11844404   2.198   2.614   3.532  0.0528 -0.1181  0.2983
  364MOL   C11944405   2.320   2.484   3.397 -0.6655 -0.1001 -0.0669
  364MOL   H12044406   2.328   2.399   3.465  0.0967  1.2240  1.5384
  364MOL   H12144407   2.399   2.463   3.325  0.2727  0.4035  0.8013
  364MOL   H12244408   2.225   2.474   3.346 -0.1913 -2.8852 -0.5084
  365MOL     C144409   5.737   3.611   4.908  0.0962 -0.2158  0.1557
  365MOL     F244410   5.764   3.737   4.895  0.4915  0.0279  0.0277
  365MOL     F344411   5.701   3.596   5.038  0.4060  0.2889 -0.0124
  365MOL     C444412   5.859   3.527   4.872 -0.7853  0.3702 -0.0272
  365MOL     H544413   5.908   3.509   4.968  0.5519  3.7014 -0.0260
  365MOL     H644414   5.938   3.589   4.829 -1.3795  2.0050  1.2073
  365MOL     H744415   5.652   3.594   4.843 -0.3916  0.1172  0.6994
  365MOL     C844416   5.830   3.404   4.786 -0.6665 -0.1975  0.9332
  365MOL     F944417   5.747   3.324   4.856 -0.0608 -0.0171 -0.2610
  365MOL    F1044418   5.770   3.458   4.686  0.1140 -0.1126 -0.0042
  365MOL    C1144419   5.965   3.338   4.740  0.1437  0.2286  0.1793
  365MOL    H1244420   6.016   3.294   4.826 -1.6653  0.3712  1.3523
  365MOL    H1344421   6.026   3.412   4.688  0.0062  0.3513  0.1924
  365MOL    C1444422   5.936   3.219   4.650 -0.6149 -0.2387 -0.5352
  365MOL    F1544423   5.882   3.272   4.538  0.5745  0.1339  0.2215
  365MOL    F1644424   6.053   3.167   4.617 -0.2070  0.2080 -0.1533
  365MOL    C1744425   5.845   3.106   4.716 -0.6485 -0.8253  0.1270
  365MOL    H1844426   5.750   3.144   4.754 -0.5523  2.0472 -2.3461
  365MOL    H1944427   5.896   3.059   4.800  0.7276  0.1374 -0.1551
  365MOL    C2044428   5.811   2.999   4.619 -0.6633 -0.3160 -0.4947
  365MOL    F2144429   5.933   2.957   4.586 -0.5412 -0.0980  0.0147
  365MOL    F2244430   5.751   2.895   4.684 -0.3187 -0.0289 -0.0057
  365MOL    C2344431   5.711   3.039   4.505  0.1684  0.4365  0.6210
  365MOL    H2444432   5.690   2.945   4.452 -0.7355  1.2141 -0.4121
  365MOL    H2544433   5.767   3.091   4.427 -2.2106 -1.3308 -2.3773
  365MOL    C2644434   5.576   3.103   4.544  0.2115  0.0179 -0.3850
  365MOL    F2744435   5.515   3.025   4.631  0.6965  0.0746 -0.2908
  365MOL    F2844436   5.595   3.216   4.601  0.3068 -0.2347  0.3032
  365MOL    C2944437   5.483   3.122   4.416  0.0813  0.1081  0.1790
  365MOL    H3044438   5.516   3.198   4.345  1.1709 -0.9283 -0.4415
  365MOL    H3144439   5.384   3.157   4.446  0.4107  0.4299  0.9012
  365MOL    C3244440   5.464   2.999   4.331 -0.2825 -0.3957 -1.3096
  365MOL    F3344441   5.579   2.982   4.269 -0.6117  0.0099  0.1816
  365MOL    F3444442   5.445   2.901   4.419 -0.0965  0.1303 -0.2823
  365MOL    C3544443   5.346   3.013   4.242 -0.8025  0.3021 -0.5024
  365MOL    H3644444   5.383   3.089   4.173  0.2945  0.4756  0.2634
  365MOL    H3744445   5.267   3.064   4.296  0.2114  0.0464  1.2591
  365MOL    C3844446   5.300   2.886   4.173 -0.9368 -0.0641  0.5861
  365MOL    F3944447   5.266   2.799   4.267 -0.2310  0.4757  0.0005
  365MOL    F4044448   5.201   2.916   4.089 -0.1751  0.1267 -0.0127
  365MOL    C4144449   5.413   2.807   4.096 -1.1095  0.4020  0.3900
  365MOL    H4244450   5.498   2.779   4.158 -0.4865 -2.0173 -1.4385
  365MOL    H4344451   5.460   2.872   4.023  0.0674  0.4182  1.1484
  365MOL    C4444452   5.363   2.683   4.015 -0.1997 -0.4242 -0.2749
  365MOL    F4544453   5.277   2.616   4.095 -0.2545  0.4505  0.1171
  365MOL    F4644454   5.299   2.725   3.904 -0.5535  0.7009 -0.5981
  365MOL    C4744455   5.477   2.592   3.965 -0.7921  0.4581  0.2064
  365MOL    H4844456   5.520   2.544   4.053 -0.0927  2.2342  0.8568
  365MOL    H4944457   5.560   2.644   3.916  2.1117 -3.3608  0.7904
  365MOL    C5044458   5.437   2.479   3.869  0.7379  0.0762 -0.6246
  365MOL    F5144459   5.340   2.414   3.930 -0.0693 -0.1481 -0.3674
  365MOL    F5244460   5.388   2.533   3.761 -0.2258 -0.3472  0.4011
  365MOL    C5344461   5.549   2.370   3.833 -0.1858  0.6476  1.3897
  365MOL    H5444462   5.504   2.296   3.767  1.8291 -0.1713  0.8806
  365MOL    H5544463   5.580   2.317   3.923 -0.5346 -1.9672  0.0306
  365MOL    C5644464   5.676   2.421   3.760  0.0804 -0.3449 -0.2348
  365MOL    F5744465   5.639   2.470   3.643 -0.1307 -0.3146  0.4606
  365MOL    F5844466   5.735   2.526   3.818 -0.1908 -0.4421 -0.3181
  365MOL    C5944467   5.776   2.303   3.762  0.2840  0.3631 -0.2062
  365MOL    H6044468   5.724   2.209   3.741  0.2065  0.2468  0.4760
  365MOL    H6144469   5.809   2.294   3.866 -1.5322 -2.6499  0.1780
  365MOL    C6244470   5.892   2.318   3.664  0.0718  1.0944 -0.2959
  365MOL    F6344471   5.994   2.231   3.704  0.5523 -0.5642 -0.3192
  365MOL    F6444472   5.856   2.289   3.533 -0.2457  0.0527  0.2806
  365MOL    C6544473   5.955   2.459   3.661 -0.3085  0.0671  0.1191
  365MOL    H6644474   5.982   2.488   3.762 -2.0481 -4.0448  1.8533
  365MOL    H6744475   5.866   2.518   3.641  1.2891  2.1101 -1.2487
  365MOL    C6844476   6.067   2.483   3.561 -0.5977 -0.1357 -0.1767
  365MOL    F6944477   6.171   2.417   3.604  0.5058 -0.7744  0.5294
  365MOL    F7044478   6.044   2.448   3.431 -0.3853 -0.6204 -0.3408
  365MOL    C7144479   6.107   2.632   3.560 -0.1163 -0.0930  0.4179
  365MOL    H7244480   6.142   2.665   3.658  2.9699 -1.1497 -0.2845
  365MOL    H7344481   6.018   2.690   3.535  0.8030  0.8121 -0.8033
  365MOL    C7444482   6.219   2.670   3.460 -0.0973 -0.0336 -0.8718
  365MOL    F7544483   6.338   2.624   3.499  0.3055  0.4216  0.5774
  365MOL    F7644484   6.190   2.608   3.348 -0.1447 -0.1325  0.4435
  365MOL    C7744485   6.212   2.822   3.424 -0.2240 -0.1049 -0.0319
  365MOL    H7844486   6.113   2.835   3.381 -0.2715 -1.6693 -0.3959
  365MOL    H7944487   6.290   2.847   3.352 -0.0306  1.8119  0.7864
  365MOL    C8044488   6.225   2.922   3.549  0.6823 -0.6017 -0.2645
  365MOL    F8144489   6.116   2.914   3.618 -0.0029 -0.1096 -0.0693
  365MOL    F8244490   6.330   2.884   3.620  0.2942 -0.4280  0.3883
  365MOL    C8344491   6.241   3.080   3.525  0.5155  0.5667  0.7843
  365MOL    H8444492   6.278   3.132   3.613  0.2283  1.1839  0.5380
  365MOL    H8544493   6.149   3.130   3.498 -0.6856 -2.0627 -0.2023
  365MOL    C8644494   6.333   3.116   3.411  0.0187 -0.1753 -0.5638
  365MOL    F8744495   6.445   3.045   3.426 -0.0706 -0.7328 -0.3567
  365MOL    F8844496   6.276   3.085   3.299  0.8641 -0.5367 -0.1075
  365MOL    C8944497   6.367   3.268   3.399  1.0740  0.0491  0.2491
  365MOL    H9044498   6.276   3.321   3.368 -0.0720 -1.4650  0.9557
  365MOL    H9144499   6.450   3.283   3.330  1.6681  0.5533  1.0771
  365MOL    C9244500   6.414   3.338   3.526 -0.4168  0.4222 -0.4066
  365MOL    F9344501   6.315   3.356   3.613  0.2823 -0.1822  0.1874
  365MOL    F9444502   6.513   3.273   3.583  0.3956  0.4704 -0.1442
  365MOL    C9544503   6.455   3.483   3.502  0.5061 -0.7255  0.7940
  365MOL    H9644504   6.375   3.550   3.470  1.8044  0.3825 -0.1832
  365MOL    H9744505   6.533   3.477   3.426 -0.1187  0.9106 -0.0141
  365MOL    C9844506   6.514   3.550   3.628 -0.0661 -0.7650  0.2803
  365MOL    F9944507   6.482   3.488   3.744 -0.7928 -0.5931  0.1213
  365MOL   F10044508   6.645   3.539   3.605  0.0105 -0.5499 -0.2312
  365MOL   C10144509   6.486   3.698   3.646 -0.5311 -0.4579  0.2270
  365MOL   H10244510   6.518   3.754   3.557 -1.9199 -1.0041 -0.6310
  365MOL   H10344511   6.565   3.731   3.714 -0.6661  0.0597  0.1371
  365MOL   C10444512   6.338   3.734   3.690 -0.2783  0.5534  0.6103
  365MOL   F10544513   6.254   3.688   3.591  0.2210  0.0230  0.0055
  365MOL   F10644514   6.314   3.655   3.796 -0.0210 -0.0965  0.0719
  365MOL   C10744515   6.294   3.883   3.717 -0.2162  0.5354  0.2938
  365MOL   H10844516   6.305   3.949   3.631  0.5180  0.4125  0.2884
  365MOL   H10944517   6.357   3.937   3.788 -1.4453  1.4535  0.7082
  365MOL   C11044518   6.145   3.894   3.772  0.2294 -0.1472  0.3258
  365MOL   F11144519   6.116   4.029   3.778  0.1707 -0.5557 -0.2347
  365MOL   F11244520   6.071   3.844   3.675 -0.5381 -0.0186 -0.0341
  365MOL   C11344521   6.105   3.828   3.915 -0.1836 -0.3762 -0.7995
  365MOL   H11444522   6.114   3.721   3.895 -0.0172 -0.4687 -0.2318
  365MOL   H11544523   5.997   3.841   3.919 -0.0037  1.1035 -0.7269
  365MOL   C11644524   6.175   3.877   4.042  0.2403  0.0551  0.2052
  365MOL   F11744525   6.149   3.787   4.140  0.0385 -0.1464 -0.8029
  365MOL   F11844526   6.300   3.860   4.024 -0.1977  0.5547 -0.1437
  365MOL   C11944527   6.145   4.020   4.094 -0.1071  0.6537 -0.7368
  365MOL   H12044528   6.211   4.045   4.177  0.5154 -0.1265 -0.9974
  365MOL   H12144529   6.046   4.041   4.135 -0.0822 -1.5164  0.4998
  365MOL   H12244530   6.171   4.099   4.023  0.1765  0.2144 -1.1163
  366MOL     C144531   7.741   2.655   5.677  0.8703 -0.2261 -1.1986
  366MOL     F244532   7.806   2.631   5.565 -0.3280  0.1012 -0.0740
  366MOL     F344533   7.610   2.626   5.674 -0.2620  0.1618 -0.3637
  366MOL     C444534   7.769   2.798   5.726  0.0731  0.1143 -0.1059
  366MOL     H544535   7.714   2.871   5.667 -0.9064  0.5783  1.3735
  366MOL     H644536   7.874   2.809   5.700  0.6257 -2.0606  1.0889
  366MOL     H744537   7.782   2.590   5.754  0.1268  2.6822  1.8062
  366MOL     C844538   7.746   2.828   5.870 -0.1313  0.1833  0.3752
  366MOL     F944539   7.613   2.805   5.886  0.0674 -0.3623 -0.4491
  366MOL    F1044540   7.816   2.741   5.946  0.2263  0.4458 -0.4590
  366MOL    C1144541   7.776   2.966   5.921  0.4231  0.8431 -0.1572
  366MOL    H1244542   7.884   2.976   5.922  0.5910 -0.7048 -1.3427
  366MOL    H1344543   7.750   2.965   6.027 -1.0598  2.2639 -0.4895
  366MOL    C1444544   7.713   3.083   5.845 -0.5916  0.3765 -0.3237
  366MOL    F1544545   7.794   3.106   5.738  0.4188  0.3686  0.2382
  366MOL    F1644546   7.593   3.046   5.808  0.3496  0.2195 -0.0497
  366MOL    C1744547   7.691   3.215   5.928 -0.0588 -0.0273  0.7535
  366MOL    H1844548   7.615   3.195   6.003 -2.9998  0.1441 -2.1092
  366MOL    H1944549   7.643   3.275   5.851  1.7190 -0.3265 -0.6248
  366MOL    C2044550   7.826   3.280   5.971 -0.7041  0.5426 -0.7570
  366MOL    F2144551   7.883   3.195   6.060 -0.1560  0.4335  0.4178
  366MOL    F2244552   7.908   3.294   5.871  0.1032 -0.5619 -0.0940
  366MOL    C2344553   7.809   3.419   6.038  0.0056  0.8162 -0.3660
  366MOL    H2444554   7.744   3.415   6.125  1.0214  1.1165  0.4218
  366MOL    H2544555   7.761   3.483   5.964  1.6891  0.4103 -1.8455
  366MOL    C2644556   7.941   3.467   6.090 -0.3188  0.0407  0.4612
  366MOL    F2744557   7.898   3.576   6.156 -0.2870 -0.1561 -1.0470
  366MOL    F2844558   7.990   3.381   6.181 -0.1794 -0.5150  0.1559
  366MOL    C2944559   8.053   3.515   5.983 -0.3682 -0.2776 -0.3713
  366MOL    H3044560   8.005   3.584   5.913 -1.8423 -0.1357  0.7587
  366MOL    H3144561   8.098   3.430   5.931  2.0157  0.2353  0.7621
  366MOL    C3244562   8.177   3.579   6.052 -0.1599  0.8026  0.0655
  366MOL    F3344563   8.140   3.687   6.114 -0.5625  0.3372 -0.2580
  366MOL    F3444564   8.229   3.496   6.145  0.0223  0.0698 -0.1660
  366MOL    C3544565   8.290   3.607   5.954  0.2069 -0.1395 -0.2254
  366MOL    H3644566   8.243   3.645   5.864 -2.5681 -0.3968  1.0732
  366MOL    H3744567   8.335   3.516   5.914  1.5251 -0.6664  2.3046
  366MOL    C3844568   0.051   3.703   6.000  0.2518 -0.0897 -0.0924
  366MOL    F3944569   0.158   3.696   5.921 -0.4236 -0.7161  0.0863
  366MOL    F4044570   0.011   3.831   6.003  0.5730  0.0612  0.2701
  366MOL    C4144571   0.097   3.682   6.141 -0.0414  0.2975 -0.6011
  366MOL    H4244572   0.112   3.575   6.157 -0.0357  0.3971  0.1056
  366MOL    H4344573   0.011   3.711   6.201 -0.6904  0.2039 -1.4765
  366MOL    C4444574   0.224   3.750   6.197  0.1216 -0.1879 -0.2093
  366MOL    F4544575   0.216   3.710   6.327  0.6293  0.2457 -0.4033
  366MOL    F4644576   0.332   3.690   6.140 -0.2675 -0.0421 -0.3272
  366MOL    C4744577   0.225   3.905   6.173  0.2770  0.4264 -0.6661
  366MOL    H4844578   0.145   3.943   6.237  0.7804  1.2703 -0.5280
  366MOL    H4944579   0.206   3.926   6.067 -0.4320  1.0335 -0.4229
  366MOL    C5044580   0.359   3.974   6.209 -0.1756 -0.7227  0.3341
  366MOL    F5144581   0.398   3.947   6.332  0.6586  0.1733  0.5793
  366MOL    F5244582   0.449   3.934   6.124  0.6161 -0.1516 -0.2886
  366MOL    C5344583   0.345   4.127   6.192  0.7791  0.6067 -0.2353
  366MOL    H5444584   0.284   4.160   6.276  0.1514 -0.6363 -0.1979
  366MOL    H5544585   0.292   4.154   6.101  1.4126  0.4942 -0.6445
  366MOL    C5644586   0.475   4.214   6.193  0.3322  0.6965  0.0539
  366MOL    F5744587   0.545   4.203   6.078 -0.5070 -0.2398  0.2706
  366MOL    F5844588   0.423   4.339   6.194 -0.0462 -0.2352  0.4724
  366MOL    C5944589   0.561   4.186   6.316  0.0322  0.6629 -0.0820
  366MOL    H6044590   0.582   4.080   6.330 -1.0248  0.2647 -1.4336
  366MOL    H6144591   0.503   4.230   6.398  0.5800 -0.7217  1.0673
  366MOL    C6244592   0.696   4.253   6.325  0.5617 -0.3929 -0.2462
  366MOL    F6344593   0.763   4.196   6.227  0.3110 -0.2936 -0.1663
  366MOL    F6444594   0.682   4.384   6.289  0.0802  0.3620 -0.3835
  366MOL    C6544595   0.772   4.219   6.457  0.1942  0.0836 -0.2967
  366MOL    H6644596   0.874   4.253   6.440 -0.2233  2.2867  1.3149
  366MOL    H6744597   0.780   4.111   6.464 -0.4909 -0.0844 -1.9087
  366MOL    C6844598   0.725   4.266   6.590  0.7107 -0.1147 -0.7806
  366MOL    F6944599   0.722   4.397   6.582  0.1684 -0.7317 -0.0105
  366MOL    F7044600   0.608   4.218   6.621 -0.5014 -0.2157  0.2330
  366MOL    C7144601   0.810   4.212   6.710  0.7098 -0.1179 -0.1884
  366MOL    H7244602   0.819   4.104   6.702 -2.9847 -0.3867 -1.3166
  366MOL    H7344603   0.760   4.231   6.805  0.1568  0.0067 -0.5034
  366MOL    C7444604   0.961   4.259   6.712 -0.2869 -0.1899  0.5997
  366MOL    F7544605   1.019   4.207   6.604 -0.5625 -0.2393 -0.0884
  366MOL    F7644606   0.975   4.394   6.706  0.1762  0.3244  0.3189
  366MOL    C7744607   1.039   4.204   6.840 -0.1082 -0.1753  0.4324
  366MOL    H7844608   1.016   4.097   6.846 -0.1534 -0.2315 -0.6355
  366MOL    H7944609   1.006   4.240   6.937 -0.6687 -0.1258  0.2236
  366MOL    C8044610   1.194   4.217   6.828 -0.6015 -0.6618 -0.1280
  366MOL    F8144611   1.240   4.161   6.715  0.0928  0.3542 -0.5219
  366MOL    F8244612   1.219   4.348   6.816 -0.0770  0.0651 -0.2443
  366MOL    C8344613   1.267   4.160   6.948  0.4264 -0.6726  0.8827
  366MOL    H8444614   1.251   4.052   6.936  2.2658 -0.9094  0.3487
  366MOL    H8544615   1.218   4.191   7.041  0.5766  0.5042  0.5702
  366MOL    C8644616   1.415   4.188   6.961  0.2719  0.3223 -0.5145
  366MOL    F8744617   1.407   4.323   6.992  0.3321  0.6801  0.6281
  366MOL    F8844618   1.453   4.121   7.066 -0.1765  0.2013 -0.3837
  366MOL    C8944619   1.511   4.167   6.844 -0.1982  0.4123  1.0591
  366MOL    H9044620   1.612   4.203   6.863  0.1547 -0.1699  0.3198
  366MOL    H9144621   1.472   4.229   6.763 -3.3215  0.8041  2.7966
  366MOL    C9244622   1.535   4.026   6.793 -0.5100  0.2340  0.5917
  366MOL    F9344623   1.416   3.970   6.749  0.0371  0.5123  0.6325
  366MOL    F9444624   1.612   4.038   6.682 -0.3050  0.3011 -0.7538
  366MOL    C9544625   1.612   3.950   6.901  0.1175  0.2276  0.2478
  366MOL    H9644626   1.565   3.947   6.999 -1.7145  2.7961 -0.5098
  366MOL    H9744627   1.713   3.990   6.910  0.4539 -0.5386 -0.1020
  366MOL    C9844628   1.638   3.809   6.863 -0.2051 -0.4586 -0.0608
  366MOL    F9944629   1.525   3.736   6.873  0.3772  0.1370  0.1043
  366MOL   F10044630   1.690   3.801   6.736 -0.6379  0.0075 -0.4844
  366MOL   C10144631   1.737   3.738   6.957  0.4775 -0.0469  0.0098
  366MOL   H10244632   1.718   3.756   7.063 -0.5288 -1.5598  0.1036
  366MOL   H10344633   1.834   3.779   6.930 -0.7744  3.1438  0.0615
  366MOL   C10444634   1.742   3.587   6.934  0.2678 -0.1060  0.0450
  366MOL   F10544635   1.862   3.570   6.997  0.4304 -0.0311  0.2996
  366MOL   F10644636   1.657   3.519   7.004 -0.1290  0.0017  0.1232
  366MOL   C10744637   1.737   3.546   6.788 -0.2491 -0.1799  0.3018
  366MOL   H10844638   1.818   3.598   6.738 -0.9529  0.2468 -0.4094
  366MOL   H10944639   1.643   3.550   6.732  0.5205 -2.0708 -1.2116
  366MOL   C11044640   1.775   3.392   6.777  0.3163 -0.0721 -0.3676
  366MOL   F11144641   1.888   3.400   6.838 -0.1818 -0.3234  0.3114
  366MOL   F11244642   1.695   3.303   6.831 -0.2952  0.1311  0.3168
  366MOL   C11344643   1.799   3.357   6.624  0.3793  0.3163  0.0289
  366MOL   H11444644   1.860   3.433   6.576 -0.6416  1.4287  0.4611
  366MOL   H11544645   1.705   3.378   6.573  0.3905  0.7960  0.2047
  366MOL   C11644646   1.858   3.219   6.598  0.1249  0.4411  0.6318
  366MOL   F11744647   1.805   3.123   6.674  0.2010 -0.5001 -0.3054
  366MOL   F11844648   1.824   3.189   6.470 -0.6069 -0.2776  0.1973
  366MOL   C11944649   2.011   3.220   6.602  0.2590 -0.5848 -0.6004
  366MOL   H12044650   2.045   3.117   6.595  0.0118 -0.7942  1.0903
  366MOL   H12144651   2.058   3.276   6.683 -0.3331 -0.8774 -0.0487
  366MOL   H12244652   2.049   3.279   6.519  2.0778  2.7521  2.4445
  367MOL     C144653   4.030   5.091   5.512  0.6596 -0.6533  0.4219
  367MOL     F244654   3.946   5.000   5.460  0.1885  0.3358 -0.2927
  367MOL     F344655   4.149   5.052   5.484 -0.7648 -0.2027  0.3831
  367MOL     C444656   4.012   5.105   5.662 -0.1708 -0.0607  0.2986
  367MOL     H544657   4.096   5.162   5.701 -1.2286  1.3427  0.5839
  367MOL     H644658   4.024   5.006   5.704 -0.3807 -0.4642 -0.5706
  367MOL     H744659   4.007   5.188   5.469  1.2819 -1.3157 -1.4505
  367MOL     C844660   3.878   5.162   5.711 -0.5208 -0.3552  0.6216
  367MOL     F944661   3.854   5.278   5.648  0.2296  0.6455 -0.3574
  367MOL    F1044662   3.787   5.078   5.675  0.0489  0.3123 -0.2945
  367MOL    C1144663   3.894   5.200   5.863 -0.2502  0.5924 -0.2093
  367MOL    H1244664   3.815   5.269   5.891  0.0859  0.3336  1.4272
  367MOL    H1344665   3.981   5.264   5.869 -0.0825  0.2692  0.7988
  367MOL    C1444666   3.914   5.086   5.971  0.1348 -0.2347 -0.5560
  367MOL    F1544667   4.042   5.046   5.972  0.1137  0.3376 -0.6269
  367MOL    F1644668   3.881   5.136   6.091  0.1711  0.0861 -0.3016
  367MOL    C1744669   3.820   4.966   5.954 -0.6657 -1.1749 -0.0101
  367MOL    H1844670   3.805   4.935   5.850 -1.4938  1.5722 -0.7400
  367MOL    H1944671   3.724   5.002   5.991  1.9494  2.3953  3.7856
  367MOL    C2044672   3.872   4.840   6.028 -0.1572  0.2494 -0.7416
  367MOL    F2144673   3.775   4.752   6.022 -0.0243  0.2591  0.0983
  367MOL    F2244674   3.977   4.792   5.966 -0.2724 -0.0145  0.9489
  367MOL    C2344675   3.906   4.867   6.179 -0.1216  0.6733  0.1565
  367MOL    H2444676   3.829   4.926   6.228  0.3791  0.4592  1.2193
  367MOL    H2544677   4.003   4.917   6.176  0.3795 -0.3009 -0.2425
  367MOL    C2644678   3.913   4.735   6.263  0.6665  0.5704 -0.4434
  367MOL    F2744679   3.786   4.692   6.278  0.1990 -0.2893 -0.4709
  367MOL    F2844680   3.986   4.648   6.196  0.1108  0.3090  0.4319
  367MOL    C2944681   3.971   4.761   6.403 -0.4916  0.3022 -0.0370
  367MOL    H3044682   3.934   4.855   6.444  0.0404 -0.2150  1.6771
  367MOL    H3144683   4.078   4.770   6.383 -0.9382  3.9320 -1.1547
  367MOL    C3244684   3.969   4.644   6.500  0.5321 -0.0382 -0.2543
  367MOL    F3344685   3.857   4.635   6.568 -0.0390 -0.7414  0.4498
  367MOL    F3444686   3.979   4.527   6.438 -0.4630 -0.7528  0.1872
  367MOL    C3544687   4.078   4.647   6.611 -0.1549 -0.6926 -0.1829
  367MOL    H3644688   4.168   4.692   6.568  0.4013 -1.8251 -0.2092
  367MOL    H3744689   4.097   4.546   6.647 -0.8780  0.0163  2.2749
  367MOL    C3844690   4.041   4.736   6.735  0.0492  0.2427  0.8358
  367MOL    F3944691   4.017   4.856   6.683 -0.4651  0.0047  0.0745
  367MOL    F4044692   3.928   4.709   6.806 -0.2007  0.0897  0.6545
  367MOL    C4144693   4.158   4.762   6.832 -0.2730  0.1821  0.4797
  367MOL    H4244694   4.126   4.835   6.906 -0.9230  0.4133 -0.0260
  367MOL    H4344695   4.239   4.818   6.783  0.6089  0.4488  2.2167
  367MOL    C4444696   4.216   4.639   6.892  0.0966  0.1906 -0.6102
  367MOL    F4544697   4.106   4.577   6.942 -0.2264  0.0740  0.3462
  367MOL    F4644698   4.276   4.557   6.808  0.3437  0.1626 -0.4140
  367MOL    C4744699   4.326   4.655   7.003  0.2252 -0.2708  0.0896
  367MOL    H4844700   4.291   4.736   7.067  1.8654 -0.1304  0.8299
  367MOL    H4944701   4.404   4.707   6.947  0.0826  0.0914  0.2228
  367MOL    C5044702   4.373   4.535   7.096  0.3591  0.1110 -0.6060
  367MOL    F5144703   4.432   4.451   7.018  0.3484  0.1901  0.6695
  367MOL    F5244704   4.463   4.586   7.182  0.1081  0.2315 -0.2237
  367MOL    C5344705   4.267   4.453   7.181 -0.1767  0.0732  0.2374
  367MOL    H5444706   4.193   4.409   7.114  0.7510 -1.2618  0.0519
  367MOL    H5544707   4.218   4.527   7.244  1.7666 -0.0790  1.9895
  367MOL    C5644708   4.318   4.352   7.287  0.2871 -0.1780  1.4480
  367MOL    F5744709   4.442   4.315   7.259  0.3593 -0.2723 -0.3056
  367MOL    F5844710   4.321   4.411   7.407  0.6849 -0.0674  0.5039
  367MOL    C5944711   4.233   4.225   7.288 -0.2679  0.8663  0.2158
  367MOL    H6044712   4.292   4.143   7.328  0.7496  0.8006 -1.3790
  367MOL    H6144713   4.225   4.201   7.182  4.2408 -3.7981  0.7552
  367MOL    C6244714   4.096   4.242   7.360 -0.9630  0.7944  0.0830
  367MOL    F6344715   4.119   4.259   7.495  0.3242 -0.1665 -0.5051
  367MOL    F6444716   4.020   4.345   7.331  0.3986 -0.1286 -0.2252
  367MOL    C6544717   4.002   4.121   7.353 -0.4670  0.5114 -0.3717
  367MOL    H6644718   3.916   4.154   7.411  0.6271  1.5282  0.6838
  367MOL    H6744719   4.040   4.032   7.403 -2.1742  0.2694  0.5209
  367MOL    C6844720   3.953   4.080   7.214  0.3017  0.7500 -0.3400
  367MOL    F6944721   3.903   4.191   7.148 -0.3235  0.1321 -0.2672
  367MOL    F7044722   4.052   4.026   7.143  0.1002 -0.0608  0.4205
  367MOL    C7144723   3.835   3.977   7.226 -0.5613  1.0934  1.0088
  367MOL    H7244724   3.763   4.023   7.293 -0.8632  2.7688 -0.4551
  367MOL    H7344725   3.872   3.891   7.282 -1.9341 -0.1508  0.0404
  367MOL    C7444726   3.771   3.926   7.084  0.3583  0.2393  0.2462
  367MOL    F7544727   3.731   4.030   7.019 -0.0205 -0.3387 -0.5185
  367MOL    F7644728   3.863   3.858   7.010  0.2539  0.0982  0.0697
  367MOL    C7744729   3.648   3.839   7.123  0.0018 -0.8287  0.0466
  367MOL    H7844730   3.578   3.883   7.193 -0.0296 -0.4231 -0.2439
  367MOL    H7944731   3.675   3.754   7.187 -1.6531 -0.6945  0.9386
  367MOL    C8044732   3.567   3.783   7.002  0.7670  0.0582 -0.1456
  367MOL    F8144733   3.470   3.716   7.063 -0.3410  0.7690 -0.0558
  367MOL    F8244734   3.507   3.882   6.935  0.1209 -0.7854 -0.1656
  367MOL    C8344735   3.628   3.690   6.895  0.0297 -0.0773  0.0595
  367MOL    H8444736   3.707   3.748   6.848 -0.6194  0.7084 -0.0686
  367MOL    H8544737   3.557   3.672   6.815  0.7156 -0.5603 -0.4544
  367MOL    C8644738   3.682   3.554   6.948  0.4359 -0.5409  0.0542
  367MOL    F8744739   3.780   3.572   7.034  0.1059 -0.0758  0.3787
  367MOL    F8844740   3.583   3.498   7.014  0.3826  0.1992 -0.5263
  367MOL    C8944741   3.725   3.467   6.823 -0.4455  0.2432  0.1748
  367MOL    H9044742   3.816   3.502   6.773 -0.0992 -0.0654  0.5863
  367MOL    H9144743   3.655   3.483   6.741  0.5932  2.3093 -0.3435
  367MOL    C9244744   3.748   3.317   6.857 -0.8610 -0.8640  0.1125
  367MOL    F9344745   3.634   3.257   6.893  0.2128 -0.1541  0.5115
  367MOL    F9444746   3.795   3.251   6.748 -0.3808 -0.6192  0.5888
  367MOL    C9544747   3.857   3.304   6.964  0.2526  0.1638  0.8820
  367MOL    H9644748   3.817   3.339   7.059 -0.3441 -4.3466  2.4288
  367MOL    H9744749   3.947   3.363   6.945  0.2574  0.6109  2.1963
  367MOL    C9844750   3.905   3.164   6.993 -0.5575 -0.5151  0.7130
  367MOL    F9944751   3.956   3.119   6.877  0.1020  0.5814  0.0600
  367MOL   F10044752   4.015   3.177   7.076  0.2900 -0.5322  0.1634
  367MOL   C10144753   3.814   3.046   7.037 -0.3326  0.5948 -0.1585
  367MOL   H10244754   3.871   2.953   7.026 -1.2750  0.3370 -3.1991
  367MOL   H10344755   3.732   3.033   6.966 -0.6859  2.4932 -0.1253
  367MOL   C10444756   3.748   3.061   7.173  0.5226 -0.5198  0.0041
  367MOL   F10544757   3.835   3.095   7.263 -0.4895  0.6205 -0.3265
  367MOL   F10644758   3.666   3.168   7.157 -0.0309 -0.0281  0.8745
  367MOL   C10744759   3.674   2.933   7.219 -0.2933  0.0341  0.1406
  367MOL   H10844760   3.743   2.850   7.230 -1.7923 -1.7006 -2.9337
  367MOL   H10944761   3.599   2.901   7.146  0.4231 -0.2087 -0.4946
  367MOL   C11044762   3.593   2.951   7.344 -0.4633  0.0647  0.1340
  367MOL   F11144763   3.669   2.967   7.453 -0.5298  0.3105 -0.0344
  367MOL   F11244764   3.511   3.052   7.314  0.3309 -0.0110 -0.1067
  367MOL   C11344765   3.501   2.831   7.373 -0.0116  0.7461  0.3618
  367MOL   H11444766   3.563   2.748   7.406  2.0860  1.5452 -1.5019
  367MOL   H11544767   3.469   2.796   7.275  0.1190 -2.2688  1.3422
  367MOL   C11644768   3.383   2.854   7.479 -0.2562 -0.4782 -0.4965
  367MOL   F11744769   3.292   2.942   7.425  0.0312 -0.1205 -0.1554
  367MOL   F11844770   3.320   2.742   7.517 -0.2623  0.1753  0.3448
  367MOL   C11944771   3.433   2.920   7.602  0.3672  0.1486  0.2988
  367MOL   H12044772   3.428   3.027   7.578 -3.1912 -0.1396 -0.5197
  367MOL   H12144773   3.530   2.897   7.647  0.7989  1.5710  0.1295
  367MOL   H12244774   3.361   2.912   7.684  0.2542 -0.4001  0.1465
  368MOL     C144775   6.121   2.905   6.936 -0.0538  0.3068  0.3431
  368MOL     F244776   6.170   2.942   6.820  0.4269 -0.1825  0.3260
  368MOL     F344777   6.215   2.854   7.022 -0.1592  0.1752  0.1427
  368MOL     C444778   6.004   2.812   6.919  0.9253  0.3471 -0.0853
  368MOL     H544779   5.970   2.795   7.022 -1.5451  1.8916 -0.5914
  368MOL     H644780   6.030   2.714   6.879  0.2470  0.4985 -0.9015
  368MOL     H744781   6.076   2.995   6.977  0.0965  0.5995 -0.1306
  368MOL     C844782   5.882   2.879   6.858  0.9812  0.1726 -0.2670
  368MOL     F944783   5.852   2.989   6.925 -0.7643 -0.0699 -0.1057
  368MOL    F1044784   5.913   2.903   6.728  0.0797 -0.2922  0.5086
  368MOL    C1144785   5.751   2.800   6.864 -0.0755  0.4709  0.7786
  368MOL    H1244786   5.700   2.819   6.958 -0.1715 -0.6345  0.9673
  368MOL    H1344787   5.770   2.692   6.858  1.0734  0.6945  0.2124
  368MOL    C1444788   5.647   2.820   6.752 -0.7480 -0.8836  0.0084
  368MOL    F1544789   5.711   2.784   6.635  0.0561  0.3782  0.0841
  368MOL    F1644790   5.559   2.718   6.775  0.0662  0.1520  0.2060
  368MOL    C1744791   5.586   2.958   6.736  0.5883 -0.3650  0.6498
  368MOL    H1844792   5.674   3.017   6.711  2.0822 -2.0360  1.8923
  368MOL    H1944793   5.558   2.986   6.838  0.7615 -1.0288  0.8798
  368MOL    C2044794   5.475   2.971   6.629 -0.1858 -0.0346  0.0853
  368MOL    F2144795   5.367   2.891   6.656  0.4370 -0.1250 -0.5084
  368MOL    F2244796   5.435   3.098   6.651  0.1639 -0.3952 -0.2138
  368MOL    C2344797   5.526   2.950   6.486 -0.0282  0.2734  1.3284
  368MOL    H2444798   5.542   2.844   6.468  0.7924  0.5802  0.1905
  368MOL    H2544799   5.623   2.997   6.465 -0.3349  1.7231  3.0292
  368MOL    C2644800   5.424   2.988   6.375  0.3596  0.3866 -0.2646
  368MOL    F2744801   5.401   3.116   6.388  0.5775  0.3504 -0.3144
  368MOL    F2844802   5.492   2.977   6.263  0.7599 -0.2938  0.0564
  368MOL    C2944803   5.286   2.908   6.385 -0.5140  0.5879  0.1567
  368MOL    H3044804   5.244   2.928   6.484 -1.7509 -1.0181 -0.0087
  368MOL    H3144805   5.310   2.805   6.359 -1.5460  0.2855  0.3431
  368MOL    C3244806   5.173   2.945   6.284 -0.0798  0.3101  0.6575
  368MOL    F3344807   5.132   3.066   6.316  0.2619  0.2735 -0.2498
  368MOL    F3444808   5.224   2.934   6.164 -0.1773 -0.0012  0.0958
  368MOL    C3544809   5.055   2.844   6.293  0.0289  0.1715  0.6559
  368MOL    H3644810   5.028   2.828   6.398  1.1200  0.4738  0.9969
  368MOL    H3744811   5.088   2.743   6.271 -1.2352 -0.2134  0.5157
  368MOL    C3844812   4.930   2.883   6.200 -0.7395  0.5494 -0.2345
  368MOL    F3944813   4.844   2.780   6.202  0.2466  0.1271 -0.3649
  368MOL    F4044814   4.861   2.995   6.234  0.4321  0.0703 -0.5655
  368MOL    C4144815   4.967   2.896   6.043 -1.0507 -0.6022  0.0982
  368MOL    H4244816   5.034   2.815   6.014  0.7642  0.2206  1.9109
  368MOL    H4344817   5.039   2.978   6.035  0.9326 -2.0666  2.2732
  368MOL    C4444818   4.848   2.915   5.941  0.4218 -0.6260 -0.1497
  368MOL    F4544819   4.751   2.827   5.965 -0.4938 -0.3000  0.2270
  368MOL    F4644820   4.803   3.035   5.977 -0.6647 -0.2408 -0.4065
  368MOL    C4744821   4.895   2.911   5.797 -0.0951  0.1362  0.2056
  368MOL    H4844822   4.951   2.819   5.782 -1.9253 -1.1135  0.8795
  368MOL    H4944823   4.965   2.990   5.770 -0.2229  0.2328  0.1499
  368MOL    C5044824   4.789   2.903   5.693 -0.5045  0.4714 -0.3594
  368MOL    F5144825   4.867   2.889   5.576  0.5110 -0.0456  0.0112
  368MOL    F5244826   4.731   2.787   5.704 -0.3961  0.9067  0.8029
  368MOL    C5344827   4.690   3.024   5.697  0.5768 -0.3093 -0.5345
  368MOL    H5444828   4.763   3.105   5.698  0.0450  0.2009  2.0858
  368MOL    H5544829   4.631   3.025   5.789 -0.2157  2.2421 -1.0252
  368MOL    C5644830   4.593   3.053   5.583  0.5787  0.0619 -1.1785
  368MOL    F5744831   4.513   2.947   5.573  0.3482 -0.1554 -0.0695
  368MOL    F5844832   4.524   3.158   5.612 -0.6948 -0.0733 -0.2658
  368MOL    C5944833   4.649   3.071   5.436 -0.7523 -0.1978 -0.1724
  368MOL    H6044834   4.709   2.983   5.409 -1.4269  0.2129 -3.1586
  368MOL    H6144835   4.722   3.152   5.436 -0.8797 -0.0732  1.5213
  368MOL    C6244836   4.549   3.104   5.324 -0.4733 -0.3825 -0.3062
  368MOL    F6344837   4.453   3.006   5.306 -0.7031 -0.2530  0.3665
  368MOL    F6444838   4.490   3.217   5.341  0.3477  0.2820 -0.1070
  368MOL    C6544839   4.626   3.094   5.190  0.3418  0.5109  0.0779
  368MOL    H6644840   4.546   3.108   5.117 -0.0576  0.4667  0.5047
  368MOL    H6744841   4.662   2.996   5.159  0.9108  0.1358  1.8383
  368MOL    C6844842   4.748   3.184   5.156  0.5701 -0.1197  0.4219
  368MOL    F6944843   4.714   3.311   5.163 -0.5559  0.4998  0.2004
  368MOL    F7044844   4.846   3.170   5.240 -0.0452  0.5281 -0.4608
  368MOL    C7144845   4.819   3.160   5.024 -1.1071  0.2541 -0.0912
  368MOL    H7244846   4.869   3.064   5.012  0.4476  1.1646 -1.1494
  368MOL    H7344847   4.907   3.224   5.018 -1.7171  1.3742  2.2828
  368MOL    C7444848   4.743   3.199   4.897  0.4425 -0.1740  0.8128
  368MOL    F7544849   4.638   3.119   4.867  0.0597 -0.1403 -0.7703
  368MOL    F7644850   4.703   3.326   4.912  0.4120 -0.1109 -0.0115
  368MOL    C7744851   4.839   3.195   4.767 -0.4548  0.8129  0.2321
  368MOL    H7844852   4.872   3.093   4.745  2.1489  1.2990  1.6781
  368MOL    H7944853   4.933   3.239   4.803 -0.9025  0.3178  2.0526
  368MOL    C8044854   4.783   3.257   4.635 -0.4972 -0.4315 -0.0133
  368MOL    F8144855   4.751   3.387   4.671  0.3051 -0.4170 -0.5634
  368MOL    F8244856   4.873   3.271   4.541 -0.2435 -0.7342  0.0729
  368MOL    C8344857   4.652   3.197   4.580  0.0956 -0.3263  0.2797
  368MOL    H8444858   4.572   3.198   4.654  1.4824 -2.4806  1.8460
  368MOL    H8544859   4.660   3.090   4.563  0.9809 -0.2501  0.1837
  368MOL    C8644860   4.587   3.268   4.466  0.4206 -0.5184  0.0928
  368MOL    F8744861   4.529   3.387   4.502  0.3330 -0.3642  0.1837
  368MOL    F8844862   4.682   3.268   4.372 -0.0580 -0.0065  0.1856
  368MOL    C8944863   4.456   3.180   4.415 -0.2687 -0.0675 -1.1700
  368MOL    H9044864   4.394   3.154   4.501  0.2269 -0.3217 -0.8862
  368MOL    H9144865   4.482   3.078   4.384 -0.7470 -0.3298 -0.7167
  368MOL    C9244866   4.371   3.233   4.301 -0.6277 -0.1098 -0.4860
  368MOL    F9344867   4.256   3.171   4.296 -0.0520  0.0725  0.5555
  368MOL    F9444868   4.348   3.359   4.336  0.3015  0.0492  0.2179
  368MOL    C9544869   4.440   3.223   4.162  0.2994  0.3718 -0.7706
  368MOL    H9644870   4.449   3.115   4.144  1.4214  0.3811 -0.2899
  368MOL    H9744871   4.544   3.251   4.172  0.1450 -0.0274  2.3576
  368MOL    C9844872   4.374   3.290   4.043 -0.2978 -0.1891 -0.5442
  368MOL    F9944873   4.388   3.425   4.055 -0.0192 -0.3645  0.6449
  368MOL   F10044874   4.434   3.253   3.935  0.2518  0.2157 -0.1930
  368MOL   C10144875   4.220   3.262   4.037 -0.9209  0.1049  0.4248
  368MOL   H10244876   4.171   3.314   4.120  0.1183  1.0450  0.4599
  368MOL   H10344877   4.212   3.156   4.062  2.9431 -0.2026  0.6698
  368MOL   C10444878   4.144   3.292   3.906  0.1232 -0.0904  0.3522
  368MOL   F10544879   4.161   3.425   3.890 -0.5610  0.0766  0.2835
  368MOL   F10644880   4.198   3.229   3.797 -0.4928 -0.0374  0.9882
  368MOL   C10744881   3.989   3.271   3.910 -0.1166 -0.7679  0.1200
  368MOL   H10844882   3.969   3.297   3.805 -0.3589 -0.8319  0.1500
  368MOL   H10944883   3.935   3.347   3.966  2.2590 -0.3304  1.8669
  368MOL   C11044884   3.938   3.126   3.927  0.0861  0.0563  0.5589
  368MOL   F11144885   4.003   3.022   3.871  0.3349 -0.0543  0.1252
  368MOL   F11244886   3.939   3.102   4.057 -0.0900 -0.4815  0.6848
  368MOL   C11344887   3.790   3.117   3.885 -0.0471  0.1629 -0.0152
  368MOL   H11444888   3.781   3.118   3.777 -0.7895  1.7807  0.0461
  368MOL   H11544889   3.739   3.209   3.913  0.0587  0.0756  0.4833
  368MOL   C11644890   3.711   3.005   3.939 -0.5115 -0.4661 -0.4448
  368MOL   F11744891   3.688   3.038   4.065 -0.3380 -0.6448 -0.2189
  368MOL   F11844892   3.595   3.003   3.871  0.6144  0.1746  0.2176
  368MOL   C11944893   3.782   2.869   3.936  0.0134  0.8623 -0.2588
  368MOL   H12044894   3.870   2.866   4.000 -1.8158  1.9291  2.3447
  368MOL   H12144895   3.825   2.856   3.836  1.3879  0.9524  0.3123
  368MOL   H12244896   3.722   2.783   3.966  0.4172  1.2804  1.7846
  369MOL     C144897   0.307   1.491   0.378  0.2401  0.1135  0.5903
  369MOL     F244898   0.381   1.601   0.369  0.3891 -0.2778  0.2360
  369MOL     F344899   0.194   1.521   0.443 -0.3540 -0.4518 -0.6664
  369MOL     C444900   0.379   1.383   0.462  0.8665  0.2240 -0.1389
  369MOL     H544901   0.307   1.300   0.457  1.2897 -0.0849 -1.0626
  369MOL     H644902   0.398   1.409   0.566  0.2584 -2.0510  0.5901
  369MOL     H744903   0.282   1.452   0.279 -1.5872  2.0042  0.2787
  369MOL     C844904   0.516   1.344   0.404  0.1575 -0.8192  0.3458
  369MOL     F944905   0.590   1.461   0.412  0.3218  0.4609 -0.2284
  369MOL    F1044906   0.565   1.249   0.477 -0.4059  0.6805 -0.4532
  369MOL    C1144907   0.509   1.282   0.262  0.1496 -0.0619  0.0832
  369MOL    H1244908   0.485   1.358   0.187  2.6955 -0.6638 -1.4304
  369MOL    H1344909   0.441   1.198   0.251  1.4260 -1.2284  0.8906
  369MOL    C1444910   0.646   1.226   0.222  0.1612  0.4716 -0.1396
  369MOL    F1544911   0.628   1.202   0.095  0.0233 -0.4007 -0.0257
  369MOL    F1644912   0.737   1.324   0.229  0.0818  0.1843 -0.1743
  369MOL    C1744913   0.709   1.094   0.298 -0.6573 -0.5928  0.2758
  369MOL    H1844914   0.745   1.109   0.399 -0.2409  0.6780 -0.0538
  369MOL    H1944915   0.799   1.070   0.240 -0.1446  0.7500  0.5042
  369MOL    C2044916   0.612   0.977   0.292  0.4477  0.0419 -0.4293
  369MOL    F2144917   0.504   1.005   0.365 -0.5424 -0.3774  0.8181
  369MOL    F2244918   0.567   0.974   0.166 -0.3914  0.5079 -0.0967
  369MOL    C2344919   0.673   0.849   0.326 -0.0551  0.3057  0.7575
  369MOL    H2444920   0.732   0.859   0.416  0.3094  1.7299  0.3856
  369MOL    H2544921   0.748   0.818   0.253  0.3654  0.1589  1.2503
  369MOL    C2644922   0.580   0.731   0.352 -0.4738 -0.0529 -0.3749
  369MOL    F2744923   0.649   0.620   0.366 -0.2926  0.4527  0.3315
  369MOL    F2844924   0.511   0.751   0.470 -0.1314  0.5596 -0.2352
  369MOL    C2944925   0.484   0.697   0.237  0.9859  0.5315 -0.5463
  369MOL    H3044926   0.548   0.681   0.150 -1.1625 -1.9449 -1.7392
  369MOL    H3144927   0.425   0.782   0.201  1.1987  0.1830 -1.7568
  369MOL    C3244928   0.385   0.575   0.249  0.2682 -0.2008  0.9714
  369MOL    F3344929   0.451   0.469   0.301 -0.1930  0.0660  0.0545
  369MOL    F3444930   0.300   0.623   0.338  0.1411  0.1919  0.0990
  369MOL    C3544931   0.313   0.545   0.117 -0.2989  0.3985  0.2027
  369MOL    H3644932   0.384   0.522   0.039 -0.4771 -0.9006  0.4097
  369MOL    H3744933   0.249   0.630   0.095  1.7975  1.7365 -0.8747
  369MOL    C3844934   0.213   0.427   0.127  0.3014 -0.1673  0.1673
  369MOL    F3944935   0.151   0.419   0.248 -0.8745 -0.4638 -0.4414
  369MOL    F4044936   0.123   0.447   0.032  0.1463 -0.4465  0.0125
  369MOL    C4144937   0.268   0.289   0.104  0.2399 -0.6177  0.3527
  369MOL    H4244938   0.352   0.278   0.173 -1.3114 -1.1031  2.2139
  369MOL    H4344939   0.315   0.308   0.008  1.5664  3.1744  1.6429
  369MOL    C4444940   0.170   0.165   0.101  0.2936 -0.4184  0.1727
  369MOL    F4544941   0.111   0.155   0.221  0.5239  0.3370  0.1039
  369MOL    F4644942   0.068   0.197   0.012  0.0282 -0.1347 -0.2599
  369MOL    C4744943   0.239   0.034   0.045 -0.6496 -0.5345 -0.1763
  369MOL    H4844944   0.287   0.063   8.302 -0.6809 -0.7316 -0.2548
  369MOL    H4944945   0.163   8.308   0.029 -2.0673  0.8708 -0.1632
  369MOL    C5044946   0.349   8.337   0.147  0.5487  0.2469  0.0163
  369MOL    F5144947   0.460   0.066   0.137 -0.5567  0.2674  0.5432
  369MOL    F5244948   0.309   0.004   0.274 -0.5247  0.0763 -0.0023
  369MOL    C5344949   0.403   8.192   0.132  0.2350 -0.4539  0.0048
  369MOL    H5444950   0.315   8.132   0.155 -0.9649  1.1004 -0.4267
  369MOL    H5544951   0.479   8.176   0.208 -0.5117  0.5287  0.9730
  369MOL    C5644952   0.459   8.144   8.341 -1.1244 -0.0806 -0.0900
  369MOL    F5744953   0.379   8.186   8.237  0.3554  0.4912  0.5390
  369MOL    F5844954   0.581   8.199   8.332 -0.3889 -0.0771 -0.9237
  369MOL    C5944955   0.468   7.990   8.322  0.5526  0.4179  0.1136
  369MOL    H6044956   0.365   7.952   8.321 -0.0958  2.1483 -0.2377
  369MOL    H6144957   0.515   7.948   0.061  0.4310 -1.0457 -0.5000
  369MOL    C6244958   0.545   7.940   8.199 -0.4409 -0.0447 -0.0638
  369MOL    F6344959   0.672   7.975   8.213  0.3926 -0.0844  0.1071
  369MOL    F6444960   0.545   7.804   8.202  0.1962 -0.0740 -0.4483
  369MOL    C6544961   0.495   8.002   8.062  0.2977 -0.1433  0.8069
  369MOL    H6644962   0.523   8.108   8.064  1.3388 -0.4183  2.9345
  369MOL    H6744963   0.386   8.004   8.062  0.2902  3.6683  1.0530
  369MOL    C6844964   0.552   7.936   7.936  0.2503 -0.0199 -0.4909
  369MOL    F6944965   0.507   7.812   7.919 -0.7326  0.3549 -0.3058
  369MOL    F7044966   0.505   8.006   7.834 -0.6061 -0.1846  0.5321
  369MOL    C7144967   0.709   7.950   7.919  0.2728 -0.0741 -0.2754
  369MOL    H7244968   0.748   7.876   7.989 -0.3989 -1.5859 -1.4753
  369MOL    H7344969   0.749   8.042   7.960  2.8924 -0.9777 -0.7272
  369MOL    C7444970   0.767   7.907   7.779 -0.2818  0.1397 -0.7924
  369MOL    F7544971   0.726   7.787   7.748 -0.0167  0.1899 -0.4059
  369MOL    F7644972   0.715   7.985   7.682 -0.6718  0.4054  0.0636
  369MOL    C7744973   0.923   7.909   7.780 -0.3417  0.1322  0.3054
  369MOL    H7844974   0.944   7.841   7.862  1.1925  1.2384  0.8569
  369MOL    H7944975   0.955   8.008   7.813  1.3616 -0.7383  1.3729
  369MOL    C8044976   0.998   7.854   7.656 -0.7888 -1.3010 -0.2758
  369MOL    F8144977   0.958   7.739   7.616  0.2983  0.5893  0.2866
  369MOL    F8244978   0.979   7.955   7.565  0.0727 -0.2834 -0.4673
  369MOL    C8344979   1.150   7.842   7.681 -0.4312 -0.6650 -0.8316
  369MOL    H8444980   1.191   7.815   7.584  1.5874 -1.6354  0.2798
  369MOL    H8544981   1.178   7.758   7.744 -1.3563 -0.8886 -0.7127
  369MOL    C8644982   1.231   7.967   7.729  0.8788  0.7338  0.4193
  369MOL    F8744983   1.191   8.066   7.653 -0.0334 -0.2038 -0.1204
  369MOL    F8844984   1.182   7.987   7.852 -0.2707  0.0632 -0.2408
  369MOL    C8944985   1.385   7.934   7.723  0.2715  0.0847  0.4509
  369MOL    H9044986   1.411   7.837   7.763  0.0961 -0.8112 -1.5385
  369MOL    H9144987   1.436   7.999   7.794 -1.7002  1.7878  0.3759
  369MOL    C9244988   1.454   7.955   7.589  0.5353 -0.3745  0.2180
  369MOL    F9344989   1.398   7.882   7.496 -0.1699 -1.0241  0.5003
  369MOL    F9444990   1.454   8.081   7.559 -0.1039  0.3367 -0.0834
  369MOL    C9544991   1.609   7.915   7.598 -0.3122  0.1500 -0.2193
  369MOL    H9644992   1.611   7.812   7.635  2.2405 -0.3425 -1.6530
  369MOL    H9744993   1.655   7.980   7.672 -0.0799 -0.6891  0.3839
  369MOL    C9844994   1.689   7.908   7.465 -0.0215 -0.2933  0.3128
  369MOL    F9944995   1.802   7.847   7.502  0.2438 -0.1310  0.2737
  369MOL   F10044996   1.636   7.828   7.373  0.9802  0.0133 -0.3449
  369MOL   C10144997   1.720   8.043   7.397  0.2195 -0.3056  0.9329
  369MOL   H10244998   1.731   8.117   7.477 -0.9322 -1.2122  1.9524
  369MOL   H10344999   1.640   8.071   7.328 -0.1330 -2.5740  0.3645
  369MOL   C10445000   1.849   8.055   7.320 -0.0487 -0.1619  0.1582
  369MOL   F10545001   1.849   8.171   7.253 -0.0993  0.0182  0.3287
  369MOL   F10645002   1.940   8.042   7.409 -0.0894 -0.0866 -0.1278
  369MOL   C10745003   1.847   7.947   7.208  0.0165  0.3138  0.5123
  369MOL   H10845004   1.749   7.955   7.161  0.3588  0.9788 -0.0894
  369MOL   H10945005   1.859   7.845   7.244  1.8662  0.2687 -0.1774
  369MOL   C11045006   1.955   7.972   7.097  0.2721  0.0752  0.0137
  369MOL   F11145007   1.932   7.874   7.009 -0.0012 -0.3897  0.7350
  369MOL   F11245008   1.935   8.085   7.040 -0.3700 -0.3800  0.6651
  369MOL   C11345009   2.098   7.968   7.151  0.9527 -0.1836  0.5280
  369MOL   H11445010   2.123   7.867   7.182 -1.7766 -1.3257 -0.8349
  369MOL   H11545011   2.107   8.032   7.239  0.4019 -0.2508  0.6346
  369MOL   C11645012   2.216   8.031   7.071  0.0943  0.3558 -0.4664
  369MOL   F11745013   2.215   8.164   7.072  0.0772 -0.1979  0.3401
  369MOL   F11845014   2.325   7.993   7.135  0.3923  0.2467 -0.4104
  369MOL   C11945015   2.235   7.981   6.925 -0.1474 -0.6272 -0.5178
  369MOL   H12045016   2.322   8.031   6.883 -1.2228  0.8881 -0.9781
  369MOL   H12145017   2.147   8.005   6.864 -0.9605 -1.9132  0.1253
  369MOL   H12245018   2.251   7.873   6.915  0.1914 -0.7077  0.8608
  370MOL     C145019   6.552   1.654   1.494  0.3398  0.6968 -0.1652
  370MOL     F245020   6.657   1.584   1.470 -0.3498 -0.1202  0.5113
  370MOL     F345021   6.585   1.774   1.517 -0.6041 -1.4515 -0.2257
  370MOL     C445022   6.479   1.592   1.613 -0.6994  0.3172 -0.1201
  370MOL     H545023   6.418   1.671   1.657 -0.5171 -0.2267  1.1513
  370MOL     H645024   6.557   1.568   1.685  0.5283  0.3495 -1.4268
  370MOL     H745025   6.483   1.652   1.410  1.2844  0.9502 -0.9468
  370MOL     C845026   6.385   1.473   1.573 -0.3410 -0.8660  0.4606
  370MOL     F945027   6.287   1.520   1.495 -0.3249  0.2670 -0.3390
  370MOL    F1045028   6.456   1.378   1.515  0.0170 -0.0505  0.3785
  370MOL    C1145029   6.331   1.417   1.708 -0.1803 -0.2593  0.5165
  370MOL    H1245030   6.268   1.497   1.745  0.8941  1.3030 -0.9829
  370MOL    H1345031   6.415   1.428   1.777  0.3328  1.6154 -0.3706
  370MOL    C1445032   6.277   1.272   1.700  0.0792  0.0950 -0.6843
  370MOL    F1545033   6.374   1.183   1.663  0.2406  0.1738  0.3363
  370MOL    F1645034   6.239   1.241   1.825 -0.1089  0.7070 -0.0763
  370MOL    C1745035   6.166   1.262   1.600 -0.3600  0.6855 -0.4952
  370MOL    H1845036   6.202   1.288   1.500 -1.2120 -0.2571 -1.0625
  370MOL    H1945037   6.099   1.343   1.629 -1.3069 -0.2644  0.0335
  370MOL    C2045038   6.081   1.129   1.597 -0.3887  0.6928 -0.9719
  370MOL    F2145039   5.985   1.148   1.689 -0.2200  0.2908 -0.5495
  370MOL    F2245040   6.000   1.112   1.493  0.3475 -0.3028  0.5173
  370MOL    C2345041   6.155   0.998   1.636  0.2680  0.6686  0.0177
  370MOL    H2445042   6.214   1.020   1.725  0.2379  1.2581 -0.1048
  370MOL    H2545043   6.236   0.968   1.569 -0.4819  0.1447 -0.6556
  370MOL    C2645044   6.071   0.866   1.645 -0.0187 -0.5516  0.0924
  370MOL    F2745045   5.995   0.877   1.750  0.0251  0.0138 -0.0429
  370MOL    F2845046   5.991   0.842   1.535 -0.6711  0.2165 -0.3051
  370MOL    C2945047   6.153   0.738   1.654  0.2466  0.2295  0.7175
  370MOL    H3045048   6.198   0.727   1.555 -3.6103  0.4706 -1.1534
  370MOL    H3145049   6.083   0.655   1.662  1.9189 -1.3871 -0.8414
  370MOL    C3245050   6.240   0.707   1.782 -0.4466  0.0561  0.1152
  370MOL    F3345051   6.321   0.816   1.798 -0.1062  0.2698 -0.1104
  370MOL    F3445052   6.166   0.688   1.894  0.2645 -0.0619 -0.6366
  370MOL    C3545053   6.321   0.572   1.781  0.0703 -0.4399  0.1254
  370MOL    H3645054   6.249   0.494   1.803  0.7283 -1.2844 -0.6578
  370MOL    H3745055   6.371   0.561   1.877 -3.5548 -0.5435  2.0833
  370MOL    C3845056   6.397   0.532   1.653 -0.4511  0.1467  0.5549
  370MOL    F3945057   6.317   0.473   1.562  0.2451 -0.5921  0.0996
  370MOL    F4045058   6.436   0.646   1.600  0.1772  0.5633  0.1664
  370MOL    C4145059   6.523   0.444   1.655 -0.4189  0.4047 -0.5601
  370MOL    H4245060   6.486   0.347   1.690  0.0083 -0.4537 -2.4520
  370MOL    H4345061   6.587   0.488   1.731 -0.2883 -1.3753  0.3890
  370MOL    C4445062   6.605   0.422   1.524  0.5137  0.5434 -0.9806
  370MOL    F4545063   6.523   0.348   1.448  0.6251  0.1716 -0.0055
  370MOL    F4645064   6.624   0.541   1.468  0.2201 -0.2722  0.4586
  370MOL    C4745065   6.734   0.355   1.556  0.0972  0.3950  0.5743
  370MOL    H4845066   6.732   0.291   1.644 -0.8007 -1.1738 -0.5695
  370MOL    H4945067   6.807   0.428   1.592 -0.3583  0.2397  1.8341
  370MOL    C5045068   6.796   0.284   1.431 -0.2704 -0.4380  0.4354
  370MOL    F5145069   6.916   0.260   1.484  0.1126 -0.3344  0.5470
  370MOL    F5245070   6.730   0.178   1.404 -0.0285  0.3078 -0.0856
  370MOL    C5345071   6.806   0.374   1.307  0.4614 -0.1708 -0.1586
  370MOL    H5445072   6.868   0.458   1.341 -1.2488  0.1346  2.3546
  370MOL    H5545073   6.713   0.426   1.281 -0.4364 -0.3738  2.4801
  370MOL    C5645074   6.853   0.300   1.179 -0.2654  0.2591 -0.0958
  370MOL    F5745075   6.973   0.241   1.200 -0.1204  0.2175  0.1782
  370MOL    F5845076   6.772   0.197   1.160  0.2662 -0.1824  0.0743
  370MOL    C5945077   6.856   0.382   1.052  0.4195  0.1324  0.6240
  370MOL    H6045078   6.759   0.421   1.021  1.0807  0.2930 -1.3187
  370MOL    H6145079   6.874   0.304   0.977 -0.4598 -0.8474  1.4204
  370MOL    C6245080   6.946   0.508   1.044  0.1517 -0.2702  0.5218
  370MOL    F6345081   6.935   0.541   0.917  0.6082  0.1797 -0.3175
  370MOL    F6445082   6.892   0.610   1.117  0.3418  0.2645  0.1457
  370MOL    C6545083   7.098   0.492   1.078  0.0603  0.1966 -0.0234
  370MOL    H6645084   7.142   0.407   1.026 -1.5847  0.1970 -1.4777
  370MOL    H6745085   7.101   0.460   1.182  0.2599 -1.3873 -0.5115
  370MOL    C6845086   7.190   0.608   1.065 -0.2108  0.9212  0.0537
  370MOL    F6945087   7.222   0.622   0.932  0.5022  0.1581 -0.4638
  370MOL    F7045088   7.111   0.716   1.093 -0.6405  0.5069 -0.0221
  370MOL    C7145089   7.316   0.604   1.156 -0.0485  0.0524  0.1569
  370MOL    H7245090   7.280   0.592   1.259 -0.4839  0.0312  0.0031
  370MOL    H7345091   7.363   0.702   1.148  0.3309  0.0370  2.0064
  370MOL    C7445092   7.427   0.505   1.124 -0.1386  0.9739  0.0985
  370MOL    F7545093   7.377   0.376   1.116  0.1190  0.3505 -0.5931
  370MOL    F7645094   7.488   0.543   1.007  0.3121  0.3589  0.0475
  370MOL    C7745095   7.533   0.512   1.233 -0.3601  0.0663  0.0013
  370MOL    H7845096   7.594   0.602   1.237 -2.4231  1.5822 -1.7656
  370MOL    H7945097   7.608   0.435   1.216 -0.8322 -0.4078  0.0311
  370MOL    C8045098   7.500   0.478   1.381  0.6064  0.1179  0.0460
  370MOL    F8145099   7.610   0.486   1.451 -0.0231 -0.6453  0.2261
  370MOL    F8245100   7.422   0.577   1.432 -0.4852  0.0009 -0.0338
  370MOL    C8345101   7.435   0.343   1.405  0.0732  0.2434  0.2044
  370MOL    H8445102   7.493   0.276   1.343 -0.2953  1.7337 -1.8250
  370MOL    H8545103   7.333   0.335   1.365 -1.7504 -2.4528  4.9754
  370MOL    C8645104   7.442   0.292   1.547  0.0274 -0.4027 -0.7945
  370MOL    F8745105   7.406   0.166   1.536 -0.1093 -0.1385 -0.0530
  370MOL    F8845106   7.571   0.295   1.577  0.4455 -0.1644 -0.0375
  370MOL    C8945107   7.359   0.367   1.658 -0.2956 -0.1297 -0.8171
  370MOL    H9045108   7.400   0.461   1.694  3.2549 -1.6885 -0.6071
  370MOL    H9145109   7.379   0.302   1.743  1.3108  2.0893  0.5502
  370MOL    C9245110   7.206   0.399   1.632 -0.9097 -0.8603  0.0660
  370MOL    F9345111   7.192   0.465   1.515  0.3263  0.5136 -0.1607
  370MOL    F9445112   7.141   0.290   1.603  0.3574 -0.2044 -0.1455
  370MOL    C9545113   7.130   0.466   1.752  0.1856  1.0355 -0.5125
  370MOL    H9645114   7.027   0.469   1.716 -0.3311  3.0986  1.0227
  370MOL    H9745115   7.150   0.568   1.786  1.4478 -0.0134  1.9426
  370MOL    C9845116   7.128   0.383   1.884  0.1413  0.5658 -0.7259
  370MOL    F9945117   7.095   0.257   1.867  0.2522 -0.0983 -0.4373
  370MOL   F10045118   7.250   0.377   1.925 -0.3951  0.1858 -0.2050
  370MOL   C10145119   7.046   0.460   1.996 -0.0231  0.3525 -0.6361
  370MOL   H10245120   6.964   0.506   1.941  0.1807  0.6375 -0.6996
  370MOL   H10345121   7.100   0.547   2.032  1.7831 -0.5210 -1.1824
  370MOL   C10445122   6.990   0.367   2.105  0.2126  0.1638 -0.7774
  370MOL   F10545123   6.925   0.428   2.201  0.0849  0.3329 -0.8791
  370MOL   F10645124   6.894   0.291   2.048  0.1106 -0.4688 -0.1655
  370MOL   C10745125   7.101   0.281   2.180 -0.3270 -0.3708 -0.4423
  370MOL   H10845126   7.175   0.344   2.229  0.2171 -0.2091 -1.4386
  370MOL   H10945127   7.162   0.249   2.095  2.1272 -1.5244  1.6623
  370MOL   C11045128   7.058   0.167   2.280 -0.1918  0.5455 -0.6776
  370MOL   F11145129   6.971   0.210   2.372  0.1223 -0.6767 -0.2057
  370MOL   F11245130   7.000   0.077   2.208 -0.0224  0.3334  0.0721
  370MOL   C11345131   7.174   0.097   2.349 -0.2666  0.0192  0.4200
  370MOL   H11445132   7.243   0.177   2.375  0.3999 -0.0970 -0.9733
  370MOL   H11545133   7.226   0.037   2.275 -1.7431  1.9707 -2.2728
  370MOL   C11645134   7.142   0.002   2.472  0.8989 -0.1938 -0.0297
  370MOL   F11745135   7.047   0.057   2.550  0.6341 -0.1629 -0.3999
  370MOL   F11845136   7.091   8.238   2.429 -0.3753  0.2744  0.1977
  370MOL   C11945137   7.260   8.323   2.557  0.0309  0.1373 -0.5681
  370MOL   H12045138   7.316   0.062   2.586  0.5162  0.1873 -1.6388
  370MOL   H12145139   7.329   8.267   2.493  1.1091  0.5022  0.2595
  370MOL   H12245140   7.247   8.252   2.639  0.4836 -1.3278 -1.7384
  371MOL     C145141   6.177   8.093   7.353 -0.1945  0.1503  0.2694
  371MOL     F245142   6.113   8.071   7.469 -0.3232 -0.3453 -0.3651
  371MOL     F345143   6.180   8.221   7.331  0.0754  0.4111 -0.2284
  371MOL     C445144   6.112   8.007   7.256 -0.5566 -0.0735  0.2927
  371MOL     H545145   6.004   8.006   7.263 -0.6896  1.2656 -1.1150
  371MOL     H645146   6.142   7.907   7.288 -0.5393 -0.0069  0.4867
  371MOL     H745147   6.282   8.071   7.373 -0.6009  0.1464  2.5197
  371MOL     C845148   6.158   8.025   7.107 -0.5310 -0.1904  0.1744
  371MOL     F945149   6.295   8.018   7.104 -0.3863 -0.0558  0.3245
  371MOL    F1045150   6.094   7.931   7.037 -0.1273 -0.0188 -0.2966
  371MOL    C1145151   6.122   8.160   7.044 -0.1523 -0.3045 -0.0656
  371MOL    H1245152   6.164   8.245   7.098 -2.0210  0.7397 -0.2271
  371MOL    H1345153   6.016   8.181   7.063  0.2617  0.7885  1.1227
  371MOL    C1445154   6.162   8.177   6.894 -0.3871 -0.1869 -0.7268
  371MOL    F1545155   6.093   8.091   6.819 -0.4288 -0.2661  0.2955
  371MOL    F1645156   6.118   8.296   6.851 -0.0962 -0.2162 -0.8876
  371MOL    C1745157   6.312   8.163   6.862  0.0387 -0.5059  0.0634
  371MOL    H1845158   6.330   8.170   6.755  2.4365 -1.4312  0.3772
  371MOL    H1945159   6.347   8.063   6.890  1.6077 -0.3678 -1.3723
  371MOL    C2045160   6.403   8.272   6.927  0.2431 -0.2367 -0.9164
  371MOL    F2145161   6.354   0.041   6.886 -0.7048 -0.3188 -0.1833
  371MOL    F2245162   6.397   8.257   7.059  0.1051  0.2069  0.2943
  371MOL    C2345163   6.545   8.262   6.868  0.5867  0.4790 -0.7220
  371MOL    H2445164   6.552   8.256   6.760 -2.0922 -0.5732 -0.8623
  371MOL    H2545165   6.589   8.169   6.905 -1.0953 -0.6653 -1.5710
  371MOL    C2645166   6.651   0.011   6.927 -0.7360 -0.6952  0.2934
  371MOL    F2745167   6.607   0.130   6.906 -0.2789  0.2265  0.0645
  371MOL    F2845168   6.677   8.343   7.055  0.0662  0.5199 -0.3716
  371MOL    C2945169   6.790   8.344   6.857 -0.2941  0.0717 -0.3924
  371MOL    H3045170   6.795   8.339   6.748  3.3222  0.4661 -0.2810
  371MOL    H3145171   6.818   8.250   6.904  0.0820  1.3936  2.1004
  371MOL    C3245172   6.910   0.086   6.892 -0.3406  0.1110  0.4388
  371MOL    F3345173   6.950   0.048   7.012  0.3539 -0.1262 -0.5945
  371MOL    F3445174   7.011   0.058   6.812  0.0985 -0.1546  0.6132
  371MOL    C3545175   6.877   0.235   6.883  0.3269  0.4289  0.1465
  371MOL    H3645176   6.810   0.268   6.962 -1.5657 -0.1530 -1.1914
  371MOL    H3745177   6.821   0.247   6.790  2.5005  1.2935 -1.0972
  371MOL    C3845178   7.002   0.334   6.887 -0.2648  0.5226 -0.3669
  371MOL    F3945179   7.046   0.333   7.015 -0.3012  0.1271  0.0748
  371MOL    F4045180   7.096   0.294   6.809  0.1609  0.0861  0.1264
  371MOL    C4145181   6.977   0.474   6.856  0.3212 -0.3572 -0.2890
  371MOL    H4245182   6.956   0.496   6.751 -2.7737 -0.3745  0.2901
  371MOL    H4345183   7.073   0.522   6.875  0.1130  0.3488 -0.9818
  371MOL    C4445184   6.873   0.537   6.952 -0.6271 -0.1392  0.8362
  371MOL    F4545185   6.755   0.491   6.920  0.0067 -0.5246 -0.7788
  371MOL    F4645186   6.913   0.509   7.080  0.7330  0.1389  0.1441
  371MOL    C4745187   6.870   0.692   6.957 -0.5409  0.7655  0.2837
  371MOL    H4845188   6.969   0.732   6.978 -0.2643  0.3120 -0.1380
  371MOL    H4945189   6.808   0.732   7.036 -2.7740 -2.2381  0.1458
  371MOL    C5045190   6.821   0.774   6.840  0.2629  0.2615 -0.2919
  371MOL    F5145191   6.880   0.719   6.732 -0.4027 -0.3545  0.0360
  371MOL    F5245192   6.689   0.755   6.845 -0.1699  0.1133  0.2792
  371MOL    C5345193   6.860   0.921   6.843  0.2593 -0.1398 -0.0059
  371MOL    H5445194   6.969   0.921   6.851  0.5437  2.1247 -3.2089
  371MOL    H5545195   6.834   0.963   6.940 -1.2164  1.0364 -0.8973
  371MOL    C5645196   6.812   1.003   6.723  0.2603  0.2281  0.4520
  371MOL    F5745197   6.868   1.125   6.733  0.3976  0.2620 -0.3805
  371MOL    F5845198   6.857   0.949   6.608  0.0729  0.1982  0.8824
  371MOL    C5945199   6.663   1.021   6.708  0.2937  0.1617  0.0477
  371MOL    H6045200   6.615   0.923   6.707  2.7474 -1.0832 -2.2119
  371MOL    H6145201   6.630   1.061   6.612 -3.0086  0.1636  1.1063
  371MOL    C6245202   6.586   1.110   6.815 -0.1738  0.0280 -0.1829
  371MOL    F6345203   6.457   1.098   6.794  0.0012  0.0625  0.0341
  371MOL    F6445204   6.609   1.080   6.943  0.8346  0.1699  0.1321
  371MOL    C6545205   6.609   1.262   6.800 -0.7339 -0.4103  0.4572
  371MOL    H6645206   6.711   1.265   6.839 -0.0859 -1.8493 -1.0349
  371MOL    H6745207   6.545   1.306   6.877 -1.0402  2.5695 -1.4214
  371MOL    C6845208   6.589   1.330   6.659  0.4601 -0.1031  0.4249
  371MOL    F6945209   6.687   1.283   6.575  0.2073 -0.0612 -0.3989
  371MOL    F7045210   6.474   1.288   6.612  0.1804 -0.4355 -0.2727
  371MOL    C7145211   6.603   1.487   6.669  0.6200  0.3865  0.1951
  371MOL    H7245212   6.689   1.510   6.732  1.4737 -0.5325 -0.6282
  371MOL    H7345213   6.510   1.531   6.707  0.0557  1.8674 -2.7789
  371MOL    C7445214   6.619   1.563   6.539 -0.3389 -0.1252  0.0144
  371MOL    F7545215   6.635   1.691   6.575  0.4515 -0.0504 -0.4880
  371MOL    F7645216   6.728   1.512   6.476  0.0787 -0.0802 -0.5335
  371MOL    C7745217   6.492   1.539   6.453 -0.6252 -0.0359  0.2169
  371MOL    H7845218   6.406   1.535   6.520 -1.3406 -0.5103 -0.7274
  371MOL    H7945219   6.489   1.439   6.411 -0.4398  0.4775 -1.0299
  371MOL    C8045220   6.473   1.643   6.337 -0.1565 -1.0370  0.2346
  371MOL    F8145221   6.400   1.738   6.396  0.0164 -0.2428 -0.3558
  371MOL    F8245222   6.578   1.701   6.292 -0.2003  0.4675 -0.4700
  371MOL    C8345223   6.380   1.584   6.228  0.6184 -0.2323 -0.3586
  371MOL    H8445224   6.303   1.528   6.280 -0.3642  1.0439 -0.4020
  371MOL    H8545225   6.432   1.508   6.170 -0.2076 -0.1776 -1.1957
  371MOL    C8645226   6.319   1.688   6.132 -0.2299 -0.1910 -0.1288
  371MOL    F8745227   6.230   1.768   6.197  0.0006 -0.0097 -0.0932
  371MOL    F8845228   6.425   1.759   6.095  0.3794 -0.0485 -0.5806
  371MOL    C8945229   6.262   1.636   6.001 -0.8647 -0.0728 -0.3794
  371MOL    H9045230   6.228   1.533   6.017  1.6339 -1.1599 -1.6948
  371MOL    H9145231   6.346   1.623   5.933 -0.5340  1.0159 -0.1899
  371MOL    C9245232   6.162   1.733   5.929 -0.1693 -0.4861  0.1164
  371MOL    F9345233   6.047   1.751   5.988  0.0459  0.5956  0.4576
  371MOL    F9445234   6.216   1.859   5.942 -0.4154 -0.1727  0.1965
  371MOL    C9545235   6.136   1.685   5.784  0.1456 -0.7392 -0.0324
  371MOL    H9645236   6.099   1.583   5.788 -1.1477 -0.2815 -0.0731
  371MOL    H9745237   6.236   1.684   5.740 -0.9167  1.7321 -2.6985
  371MOL    C9845238   6.038   1.770   5.696 -0.0689  0.1219  0.5003
  371MOL    F9945239   5.920   1.767   5.749 -0.4728  0.8708  0.4613
  371MOL   F10045240   6.081   1.899   5.708 -0.5382 -0.6998  0.1664
  371MOL   C10145241   6.038   1.732   5.549  0.3627  0.9022 -0.4596
  371MOL   H10245242   6.136   1.760   5.510  0.3262  0.3673 -0.9286
  371MOL   H10345243   5.973   1.799   5.493  0.5683 -0.1836 -2.0198
  371MOL   C10445244   5.996   1.590   5.516 -0.2575  0.9455  0.2930
  371MOL   F10545245   6.103   1.515   5.557  0.1843  0.6407 -0.7769
  371MOL   F10645246   5.887   1.547   5.574 -0.1891 -0.0780  0.2894
  371MOL   C10745247   5.978   1.578   5.365  0.5263 -0.2190 -0.1020
  371MOL   H10845248   6.067   1.626   5.325 -0.8257  2.1241 -0.3974
  371MOL   H10945249   5.889   1.635   5.338 -0.3358 -0.6369  1.8172
  371MOL   C11045250   5.963   1.437   5.314 -0.1756 -0.0895  0.0390
  371MOL   F11145251   6.066   1.358   5.342  0.1491 -0.1627  0.3219
  371MOL   F11245252   5.851   1.390   5.362 -0.6472  0.0497  0.1881
  371MOL   C11345253   5.949   1.432   5.161 -0.0840  0.3327 -0.3863
  371MOL   H11445254   5.852   1.457   5.119  1.0288  1.7269 -2.2066
  371MOL   H11545255   5.971   1.327   5.139  0.0379 -0.1760  1.9781
  371MOL   C11645256   6.052   1.507   5.066 -0.3729 -0.0006  0.3250
  371MOL   F11745257   6.033   1.637   5.076  0.7141 -0.5885 -0.0498
  371MOL   F11845258   6.180   1.482   5.103 -0.0052  0.2629 -0.6479
  371MOL   C11945259   6.046   1.462   4.921 -0.2243  0.1335  0.4083
  371MOL   H12045260   6.073   1.359   4.901  1.1663  0.0630  2.5184
  371MOL   H12145261   6.124   1.513   4.865  0.4360 -1.2535  0.0555
  371MOL   H12245262   5.951   1.487   4.873  0.3956 -0.7792 -1.3232
  372MOL     C145263   3.121   5.942   1.844  0.6074  0.1965  0.2417
  372MOL     F245264   3.160   5.845   1.927 -0.3978 -0.0789 -0.5880
  372MOL     F345265   3.224   6.017   1.814  0.2410  0.0253  0.2788
  372MOL     C445266   3.018   6.042   1.913  0.4061  0.0635  0.3720
  372MOL     H545267   3.007   6.135   1.858  0.5160  0.7179  1.4478
  372MOL     H645268   3.056   6.074   2.010 -1.8301  1.5073  0.8020
  372MOL     H745269   3.089   5.881   1.759 -0.3029 -0.4166  1.0083
  372MOL     C845270   2.878   5.979   1.944  0.0766  0.6919  0.2036
  372MOL     F945271   2.899   5.877   2.029  0.2292  0.2617 -0.1985
  372MOL    F1045272   2.797   6.060   2.015  0.0266  0.6527 -0.5148
  372MOL    C1145273   2.803   5.925   1.813 -0.1639  0.0914 -0.3616
  372MOL    H1245274   2.861   5.840   1.780  0.4862 -0.3621  1.8650
  372MOL    H1345275   2.800   5.998   1.732  1.0472 -0.4895 -0.9344
  372MOL    C1445276   2.661   5.861   1.839 -0.9588 -0.0154 -0.2332
  372MOL    F1545277   2.649   5.790   1.729  0.2330  0.6021  0.1098
  372MOL    F1645278   2.656   5.778   1.944 -0.3164 -0.0434 -0.3040
  372MOL    C1745279   2.536   5.960   1.859  0.8242 -0.0093 -0.5277
  372MOL    H1845280   2.552   6.017   1.951  2.3424  2.2950 -2.1761
  372MOL    H1945281   2.447   5.902   1.885 -0.3090  2.1057  0.4920
  372MOL    C2045282   2.498   6.060   1.753  0.5367  0.1637  0.8892
  372MOL    F2145283   2.591   6.153   1.739  0.5231  0.3651  0.3873
  372MOL    F2245284   2.498   5.980   1.648 -0.6514 -0.0431 -0.3226
  372MOL    C2345285   2.361   6.131   1.774  0.1593 -0.0935  0.4170
  372MOL    H2445286   2.359   6.205   1.853 -2.9536 -0.8053  1.0647
  372MOL    H2545287   2.295   6.057   1.820  0.4734  0.1133  1.2047
  372MOL    C2645288   2.298   6.187   1.648  0.2206  0.1887 -0.6425
  372MOL    F2745289   2.245   6.082   1.587 -0.2792  0.0049  0.4807
  372MOL    F2845290   2.192   6.263   1.684  0.3652  0.0745 -0.8253
  372MOL    C2945291   2.383   6.285   1.558  0.1874 -0.1214 -0.5731
  372MOL    H3045292   2.463   6.229   1.510  0.9803  1.1124 -0.7049
  372MOL    H3145293   2.430   6.357   1.625 -2.0521  0.3256  0.5761
  372MOL    C3245294   2.321   6.355   1.435  0.0631  0.3553  0.0541
  372MOL    F3345295   2.211   6.425   1.476  0.0637 -0.0147 -0.6177
  372MOL    F3445296   2.416   6.437   1.390 -0.3476 -0.4307  0.0176
  372MOL    C3545297   2.287   6.253   1.331 -0.1241 -0.1571  0.0083
  372MOL    H3645298   2.234   6.170   1.378 -1.0272  2.3846  3.7521
  372MOL    H3745299   2.383   6.206   1.311 -0.7768 -1.2852 -0.5018
  372MOL    C3845300   2.224   6.311   1.199  0.8098 -0.3454 -0.3618
  372MOL    F3945301   2.124   6.387   1.220 -0.1607 -0.0711  0.3391
  372MOL    F4045302   2.312   6.383   1.134 -0.0188  0.5580  0.2581
  372MOL    C4145303   2.177   6.200   1.103 -0.4089  0.3681  0.3054
  372MOL    H4245304   2.105   6.132   1.150 -1.0972 -0.7567 -2.3016
  372MOL    H4345305   2.264   6.139   1.078 -0.4740  1.1113 -1.8026
  372MOL    C4445306   2.100   6.252   0.976  0.3790  0.0109  0.2516
  372MOL    F4545307   1.986   6.304   1.018  0.7254  0.1446  0.6008
  372MOL    F4645308   2.169   6.346   0.916  0.1446 -0.5292 -0.8266
  372MOL    C4745309   2.082   6.138   0.873 -0.3438 -0.2685 -0.3760
  372MOL    H4845310   2.058   6.048   0.930 -0.5597 -0.4804 -0.7985
  372MOL    H4945311   2.176   6.108   0.826 -0.8380  0.3504 -1.7904
  372MOL    C5045312   1.983   6.165   0.765 -0.5599  0.5488  0.3930
  372MOL    F5145313   1.866   6.180   0.818  0.3413 -0.4974 -0.3467
  372MOL    F5245314   2.014   6.268   0.688  0.0092 -0.4525 -0.2338
  372MOL    C5345315   1.979   6.039   0.676 -0.9171 -0.3064  0.2604
  372MOL    H5445316   1.938   5.962   0.741 -1.4814  0.7786  1.2004
  372MOL    H5545317   2.079   5.996   0.666 -1.6127 -1.6483 -1.1275
  372MOL    C5645318   1.921   6.053   0.536 -0.1396  0.3096 -0.1466
  372MOL    F5745319   1.803   6.114   0.553 -0.0555  0.4545  0.0642
  372MOL    F5845320   1.996   6.135   0.457  0.2145  0.2215 -0.3840
  372MOL    C5945321   1.895   5.923   0.472  0.0312 -0.5824  0.2132
  372MOL    H6045322   1.802   5.881   0.511  0.7166 -0.5181  1.9322
  372MOL    H6145323   1.977   5.860   0.506  0.8042 -0.1681 -0.8399
  372MOL    C6245324   1.898   5.924   0.316 -0.0858  0.8051 -0.4023
  372MOL    F6345325   1.847   5.806   0.280 -0.1718  0.7640  0.0767
  372MOL    F6445326   1.817   6.022   0.279 -0.2181  0.5945  0.1731
  372MOL    C6545327   2.040   5.940   0.255  0.1784 -0.6986 -0.9537
  372MOL    H6645328   2.103   5.873   0.314  0.1053  0.6980  0.7345
  372MOL    H6745329   2.071   6.044   0.263 -4.5350  0.6902  0.4654
  372MOL    C6845330   2.042   5.881   0.111  0.5213  0.0326  0.5507
  372MOL    F6945331   2.167   5.906   0.058 -0.1586  0.7951  0.5103
  372MOL    F7045332   2.024   5.748   0.116  0.0019  0.6730  0.0676
  372MOL    C7145333   1.956   5.943   8.348 -0.1507  0.8093 -0.8248
  372MOL    H7245334   1.976   6.051   8.346 -0.9952  0.9671 -1.0409
  372MOL    H7345335   1.853   5.931   0.032  0.1899 -2.6474 -0.8283
  372MOL    C7445336   1.978   5.888   8.201 -0.0986 -1.5073  0.0893
  372MOL    F7545337   2.109   5.902   8.171 -0.2581 -0.5273 -0.3298
  372MOL    F7645338   1.958   5.757   8.207 -0.3592  0.5243  0.1462
  372MOL    C7745339   1.898   5.947   8.090  0.3586  0.0282  0.0962
  372MOL    H7845340   1.906   6.056   8.082 -3.7113  0.4368  0.4269
  372MOL    H7945341   1.790   5.934   8.103  0.4701  1.3828  2.8364
  372MOL    C8045342   1.936   5.882   7.951 -0.3215 -1.1943  0.5282
  372MOL    F8145343   1.915   5.753   7.946 -0.0308  0.1710  0.7641
  372MOL    F8245344   1.839   5.925   7.874 -0.5867 -0.2382 -0.0189
  372MOL    C8345345   2.071   5.926   7.895  0.1273 -0.3203  0.8469
  372MOL    H8445346   2.159   5.910   7.958  1.1063 -0.3952 -0.5231
  372MOL    H8545347   2.075   6.035   7.896  0.6194 -0.3298  2.9858
  372MOL    C8645348   2.110   5.866   7.760 -0.3799  0.3234  0.1588
  372MOL    F8745349   2.212   5.927   7.704 -0.7891 -0.7185 -0.0769
  372MOL    F8845350   2.140   5.740   7.776  0.2587 -0.2446  0.5805
  372MOL    C8945351   2.000   5.877   7.651  0.1133  0.4757 -0.2929
  372MOL    H9045352   1.923   5.803   7.673 -0.6685  0.6860 -2.2146
  372MOL    H9145353   2.032   5.838   7.554  0.2883 -1.1125  0.4003
  372MOL    C9245354   1.959   6.021   7.607 -0.4720 -0.0496  0.1439
  372MOL    F9345355   1.894   6.091   7.707  0.3101  0.1545 -0.3395
  372MOL    F9445356   2.065   6.098   7.582 -0.0806  0.5502  0.2040
  372MOL    C9545357   1.879   6.024   7.480  0.4992  0.0551 -0.2762
  372MOL    H9645358   1.941   5.988   7.398  0.1508 -1.7297  0.2197
  372MOL    H9745359   1.866   6.128   7.451  1.5295  0.5860  1.0785
  372MOL    C9845360   1.743   5.942   7.474 -0.4368  0.5767 -0.1936
  372MOL    F9945361   1.694   5.949   7.353 -0.4284 -0.6878  0.3514
  372MOL   F10045362   1.760   5.815   7.487 -0.4320  0.5739 -0.0050
  372MOL   C10145363   1.645   6.003   7.582 -0.0886  0.0535  0.1495
  372MOL   H10245364   1.626   6.110   7.572  1.5250  0.8667  4.4940
  372MOL   H10345365   1.679   5.995   7.686 -2.7904  0.9411  1.1491
  372MOL   C10445366   1.511   5.938   7.588 -0.1007  0.1462 -0.3515
  372MOL   F10545367   1.468   5.951   7.465 -1.0774 -0.0589 -0.3370
  372MOL   F10645368   1.533   5.809   7.634 -0.1665 -0.7367 -0.3503
  372MOL   C10745369   1.412   6.024   7.674  0.5456 -0.1798 -0.3268
  372MOL   H10845370   1.402   6.127   7.639 -2.0703 -0.1653  0.3685
  372MOL   H10945371   1.458   6.045   7.771  0.1096  1.0154 -0.3680
  372MOL   C11045372   1.261   5.978   7.687 -0.3863  0.2131 -0.7641
  372MOL   F11145373   1.190   6.068   7.746 -0.4355  0.1770  0.0459
  372MOL   F11245374   1.224   5.972   7.567  0.0826  0.0715 -0.0521
  372MOL   C11345375   1.241   5.833   7.744 -1.1965  0.3175  0.4669
  372MOL   H11445376   1.307   5.767   7.688 -2.8662 -1.2374  0.2556
  372MOL   H11545377   1.139   5.804   7.716 -0.9562 -0.4965  0.4218
  372MOL   C11645378   1.260   5.818   7.902  0.7433 -0.7843 -0.2971
  372MOL   F11745379   1.386   5.846   7.941  0.0771 -0.0373 -0.2356
  372MOL   F11845380   1.183   5.911   7.966 -0.0770 -0.6117 -0.5441
  372MOL   C11945381   1.223   5.677   7.943 -0.5902 -0.2231 -0.0874
  372MOL   H12045382   1.115   5.668   7.931 -0.3046 -0.8725 -2.3441
  372MOL   H12145383   1.253   5.663   8.047  1.3758 -1.2280 -0.7674
  372MOL   H12245384   1.270   5.607   7.874 -0.1294  0.4243 -0.4349
  373MOL     C145385   0.113   1.434   4.124 -0.0656  1.0228  0.1225
  373MOL     F245386   0.229   1.376   4.124  0.2579 -0.6338 -0.0013
  373MOL     F345387   0.123   1.559   4.081  0.7018  0.3810  0.6239
  373MOL     C445388   0.046   1.419   4.258 -0.2718  0.0282  0.1042
  373MOL     H545389   8.314   1.492   4.262  0.4741  0.8455  0.8320
  373MOL     H645390   0.120   1.464   4.324  1.1342  0.3271 -1.6356
  373MOL     H745391   0.060   1.379   4.047  1.0128 -0.3865  0.3702
  373MOL     C845392   0.004   1.276   4.300  0.6569 -0.2691  0.8415
  373MOL     F945393   8.293   1.213   4.199 -0.1519 -0.5874  0.0017
  373MOL    F1045394   0.118   1.211   4.326 -0.2176 -0.2324 -0.0750
  373MOL    C1145395   8.277   1.282   4.428 -0.3698  0.3601 -0.2634
  373MOL    H1245396   8.191   1.347   4.410 -1.7121 -1.0522  0.9358
  373MOL    H1345397   8.348   1.330   4.496  1.4226  0.1269 -1.9062
  373MOL    C1445398   8.227   1.152   4.498 -0.7480 -0.3887  0.3998
  373MOL    F1545399   8.171   1.190   4.610 -0.1539  0.2994  0.1988
  373MOL    F1645400   8.133   1.113   4.414 -0.0411 -0.2633 -0.6304
  373MOL    C1745401   8.323   1.032   4.515 -0.5137  0.1316  0.1221
  373MOL    H1845402   0.076   1.061   4.537  0.3107 -1.3701 -1.5942
  373MOL    H1945403   8.334   0.980   4.420 -2.1794 -2.6595  1.3967
  373MOL    C2045404   8.277   0.930   4.611 -0.9477  0.0310 -0.0176
  373MOL    F2145405   0.035   0.850   4.633 -0.7885  0.2299  0.2583
  373MOL    F2245406   8.247   0.993   4.716  0.1643  0.1957 -1.2067
  373MOL    C2345407   8.157   0.850   4.561 -0.5602  0.1396  0.0754
  373MOL    H2445408   8.181   0.821   4.459 -0.5590 -1.9471  0.6457
  373MOL    H2545409   8.074   0.920   4.563  2.1600  3.5578 -1.1042
  373MOL    C2645410   8.132   0.728   4.653  0.5191 -0.1783 -0.0801
  373MOL    F2745411   8.022   0.662   4.605  0.0392  0.7438  0.2653
  373MOL    F2845412   8.233   0.644   4.641 -0.2778  0.6524  0.2135
  373MOL    C2945413   8.109   0.775   4.804  0.0548 -0.0985  0.2053
  373MOL    H3045414   8.059   0.871   4.797  0.2753 -0.0497 -0.7881
  373MOL    H3145415   8.202   0.788   4.859  0.1461 -1.8906  0.5243
  373MOL    C3245416   8.018   0.679   4.884 -0.4896  0.6059  0.4051
  373MOL    F3345417   7.891   0.689   4.837  0.1156 -0.9445 -0.4980
  373MOL    F3445418   8.072   0.557   4.867  0.0687 -0.6014  0.4579
  373MOL    C3545419   8.024   0.691   5.042 -0.0010 -0.5577 -0.3053
  373MOL    H3645420   7.988   0.790   5.069  0.0134  0.0445 -2.3752
  373MOL    H3745421   8.130   0.694   5.066  0.3287  0.7158 -1.7865
  373MOL    C3845422   7.957   0.583   5.122  0.0617 -0.3365  0.1744
  373MOL    F3945423   8.026   0.469   5.101 -0.3762 -0.5973 -0.7722
  373MOL    F4045424   7.968   0.607   5.253  0.0169  0.1678  0.2280
  373MOL    C4145425   7.806   0.556   5.081  0.7102  0.0834 -0.0063
  373MOL    H4245426   7.804   0.516   4.980  0.9669 -0.1585  0.0840
  373MOL    H4345427   7.753   0.651   5.083  1.7524  0.6792 -0.2401
  373MOL    C4445428   7.729   0.441   5.160 -0.5170 -0.2530 -0.1368
  373MOL    F4545429   7.742   0.477   5.286  0.4979  0.0374  0.1371
  373MOL    F4645430   7.598   0.437   5.137  0.0210  0.1655 -0.1979
  373MOL    C4745431   7.776   0.291   5.148  0.1115 -0.4303  0.6847
  373MOL    H4845432   7.703   0.246   5.215 -1.5519  3.0247  1.2993
  373MOL    H4945433   7.879   0.281   5.182  0.6250 -0.8502 -0.9469
  373MOL    C5045434   7.772   0.215   5.009  0.4299 -0.3139  0.4779
  373MOL    F5145435   7.652   0.236   4.955 -0.0040  0.1452 -0.2359
  373MOL    F5245436   7.860   0.256   4.916 -0.1237  0.5129  0.3597
  373MOL    C5345437   7.802   0.059   5.027  0.2406  0.3527 -0.2583
  373MOL    H5445438   7.755   0.036   5.123  2.1880 -1.4033  0.3330
  373MOL    H5545439   7.908   0.037   5.040 -0.4597 -3.7853 -0.9479
  373MOL    C5645440   7.737   8.301   4.938 -0.1245 -0.0709  0.5248
  373MOL    F5745441   7.614   8.336   4.916  0.3250  0.3099 -0.2880
  373MOL    F5845442   7.796   8.303   4.822 -0.4620  1.1358  0.2668
  373MOL    C5945443   7.753   8.164   4.995  0.7153 -0.3934  0.3028
  373MOL    H6045444   7.736   8.165   5.103  2.5639 -0.3476  0.6050
  373MOL    H6145445   7.860   8.146   4.986  1.0670  1.3225  0.9720
  373MOL    C6245446   7.660   8.058   4.928  1.4915 -0.2131 -0.7241
  373MOL    F6345447   7.676   7.948   4.999 -0.0261 -0.0944 -0.3908
  373MOL    F6445448   7.531   8.094   4.934 -0.5244 -0.2510 -0.1626
  373MOL    C6545449   7.691   8.030   4.776  0.6223  0.2765 -0.7591
  373MOL    H6645450   7.796   8.004   4.767 -0.1840 -3.3190 -0.5834
  373MOL    H6745451   7.666   8.117   4.715  0.0115 -0.6332 -1.8521
  373MOL    C6845452   7.603   7.913   4.722 -0.3816  0.2578  0.3730
  373MOL    F6945453   7.477   7.937   4.719  0.2553  0.1273  0.2878
  373MOL    F7045454   7.635   7.921   4.594  0.1590  0.5352  0.1165
  373MOL    C7145455   7.630   7.770   4.771  0.7763  0.5254  0.7172
  373MOL    H7245456   7.566   7.702   4.715  1.4469  0.4590  0.0162
  373MOL    H7345457   7.579   7.769   4.867 -1.8566  1.6648 -0.6438
  373MOL    C7445458   7.776   7.719   4.781  0.1575 -0.3871 -0.4272
  373MOL    F7545459   7.837   7.754   4.669 -0.0300 -0.3498  0.3386
  373MOL    F7645460   7.843   7.778   4.882  0.0663 -0.3376  0.0887
  373MOL    C7745461   7.789   7.569   4.797 -0.2274  0.0249  0.3488
  373MOL    H7845462   7.737   7.522   4.714  0.7928 -0.0583 -0.2556
  373MOL    H7945463   7.722   7.525   4.871  1.6952 -1.7322  1.1269
  373MOL    C8045464   7.936   7.517   4.817 -0.1250 -0.2341 -0.1331
  373MOL    F8145465   7.947   7.396   4.770 -0.9208  0.0812  0.1459
  373MOL    F8245466   8.024   7.589   4.742 -0.2000  0.7190  0.0806
  373MOL    C8345467   7.979   7.504   4.972  0.1199  0.3906  0.7056
  373MOL    H8445468   7.910   7.436   5.022  0.5850  0.3433  1.2872
  373MOL    H8545469   7.954   7.593   5.029 -0.7669  0.7825 -0.2702
  373MOL    C8645470   8.130   7.462   4.986  0.4764  0.2074 -0.3454
  373MOL    F8745471   8.155   7.339   4.939  0.3530 -0.1439  0.4422
  373MOL    F8845472   8.200   7.550   4.920 -0.0460 -0.4336  0.1237
  373MOL    C8945473   8.181   7.454   5.134 -0.2759  0.4291  0.2765
  373MOL    H9045474   8.278   7.406   5.128 -0.3037  0.5498 -1.4314
  373MOL    H9145475   8.119   7.378   5.183 -0.0740 -0.2501 -0.5147
  373MOL    C9245476   8.182   7.583   5.213  0.5703  0.1544 -0.5667
  373MOL    F9345477   8.063   7.620   5.236  0.0369  0.3768  0.1995
  373MOL    F9445478   8.228   7.549   5.336 -0.2488  0.8607  0.1667
  373MOL    C9545479   8.264   7.700   5.165 -0.6042  0.1407  0.3771
  373MOL    H9645480   8.221   7.730   5.069  1.6444  1.0341 -0.3798
  373MOL    H9745481   0.018   7.675   5.142 -0.7738 -0.2968  0.0780
  373MOL    C9845482   8.262   7.831   5.245 -1.1852 -1.1390  0.1787
  373MOL    F9945483   8.141   7.879   5.260  0.5108  0.0405 -0.0900
  373MOL   F10045484   8.322   7.819   5.362  0.2699 -0.3884 -0.1865
  373MOL   C10145485   8.339   7.938   5.178  0.4621 -0.2912 -0.2750
  373MOL   H10245486   8.294   7.955   5.080  1.5589  3.1485 -0.2635
  373MOL   H10345487   0.090   7.899   5.166  0.9676  0.0345  2.6274
  373MOL   C10445488   8.340   8.072   5.257 -0.1277 -0.1477 -0.3155
  373MOL   F10545489   8.213   8.109   5.291  0.3771 -0.5614  0.2702
  373MOL   F10645490   0.062   8.056   5.365  0.4222 -0.2282  0.1709
  373MOL   C10745491   0.056   8.191   5.184 -0.2783  0.0784 -0.7133
  373MOL   H10845492   8.346   8.211   5.095 -0.0063 -1.6024 -1.2806
  373MOL   H10945493   0.151   8.149   5.151 -0.5510  0.5120 -2.1130
  373MOL   C11045494   0.102   8.323   5.253  0.4848 -0.3758  0.1592
  373MOL   F11145495   0.161   0.044   5.154  0.0301 -0.2322  0.0518
  373MOL   F11245496   8.345   0.039   5.288 -0.3303 -0.1743  0.4850
  373MOL   C11345497   0.204   8.307   5.370 -0.5255  0.1830 -0.5803
  373MOL   H11445498   0.290   8.252   5.332  0.6795  1.4103  0.3628
  373MOL   H11545499   0.162   8.249   5.453  2.1786  1.4644  1.7516
  373MOL   C11645500   0.261   0.097   5.418 -0.1048  1.1373 -0.0651
  373MOL   F11745501   0.341   0.139   5.321  0.1004 -0.2959  0.1252
  373MOL   F11845502   0.158   0.182   5.417 -0.8454  0.1163 -0.2123
  373MOL   C11945503   0.323   0.097   5.558 -0.2343 -0.4385 -0.5753
  373MOL   H12045504   0.419   0.047   5.557  0.4321  0.8235 -0.8344
  373MOL   H12145505   0.260   0.047   5.632 -0.0832 -0.3877 -0.4129
  373MOL   H12245506   0.335   0.202   5.585  2.1485 -1.0462  0.8301
  374MOL     C145507   4.332   4.271   1.872 -0.0075  0.5521  0.0561
  374MOL     F245508   4.348   4.222   1.999  0.1014 -0.6051  0.0720
  374MOL     F345509   4.430   4.351   1.833  0.4360 -0.0010 -0.1007
  374MOL     C445510   4.181   4.314   1.849 -0.4545 -0.0092  0.1421
  374MOL     H545511   4.153   4.408   1.896  0.7155  0.7391 -0.6073
  374MOL     H645512   4.126   4.226   1.879  0.9966 -1.7864 -2.1935
  374MOL     H745513   4.347   4.183   1.808  0.0067 -0.1383  1.0006
  374MOL     C845514   4.152   4.344   1.701  0.2002  0.2460  1.2494
  374MOL     F945515   4.242   4.438   1.657 -0.1415 -0.3763 -0.4412
  374MOL    F1045516   4.164   4.242   1.623  0.2967  0.3380 -0.3569
  374MOL    C1145517   4.004   4.387   1.683  0.2971  0.0573 -0.3820
  374MOL    H1245518   3.972   4.372   1.579 -0.8892 -2.3005  0.2836
  374MOL    H1345519   4.002   4.496   1.692 -2.0825  0.4114 -3.8406
  374MOL    C1445520   3.888   4.327   1.771 -0.5075  0.7768 -0.4936
  374MOL    F1545521   3.887   4.195   1.754 -0.0869  0.3603  0.1342
  374MOL    F1645522   3.898   4.355   1.902 -0.2317 -0.6195 -0.0738
  374MOL    C1745523   3.752   4.379   1.721  0.2300  0.2237  0.7173
  374MOL    H1845524   3.733   4.349   1.618  3.4756  1.8365 -0.4376
  374MOL    H1945525   3.768   4.487   1.719 -1.0496  0.4371  1.8657
  374MOL    C2045526   3.627   4.348   1.804 -0.5282 -0.5534 -0.6763
  374MOL    F2145527   3.634   4.397   1.925  0.1651 -0.1227  0.2002
  374MOL    F2245528   3.530   4.414   1.743 -0.1954 -0.4959 -0.2942
  374MOL    C2345529   3.595   4.191   1.814  0.9772  0.4027  0.5256
  374MOL    H2445530   3.535   4.169   1.903  0.7169 -1.2193 -0.0206
  374MOL    H2545531   3.689   4.143   1.841  1.9579 -0.3716 -3.9928
  374MOL    C2645532   3.536   4.128   1.690  0.0263  0.0122 -0.2178
  374MOL    F2745533   3.408   4.157   1.674 -0.1001 -0.1924  0.0481
  374MOL    F2845534   3.610   4.159   1.586  0.8000 -0.2617  0.1789
  374MOL    C2945535   3.549   3.977   1.690  0.2135  1.0783  0.4843
  374MOL    H3045536   3.651   3.938   1.692 -1.1715 -2.6696  0.2068
  374MOL    H3145537   3.513   3.940   1.594 -1.8209  1.8765  0.9212
  374MOL    C3245538   3.475   3.909   1.808 -1.2248 -0.2309 -0.8129
  374MOL    F3345539   3.547   3.927   1.917 -0.4613 -0.1659 -0.0355
  374MOL    F3445540   3.355   3.962   1.822 -0.0359  0.5705  0.7055
  374MOL    C3545541   3.452   3.755   1.792 -0.6660 -0.6696 -0.0395
  374MOL    H3645542   3.379   3.738   1.713 -0.8971  2.9451 -0.6840
  374MOL    H3745543   3.407   3.727   1.887  1.5957 -1.7432  0.7663
  374MOL    C3845544   3.578   3.667   1.779  0.5055  1.2551 -0.1724
  374MOL    F3945545   3.651   3.702   1.672  0.3003 -0.0698  0.0278
  374MOL    F4045546   3.648   3.685   1.895  0.7400  0.3124  0.4618
  374MOL    C4145547   3.546   3.512   1.778  0.3836 -0.5622  0.0498
  374MOL    H4245548   3.489   3.487   1.868 -1.6009 -1.9174 -1.5318
  374MOL    H4345549   3.634   3.451   1.800 -0.1825 -1.2366  0.4985
  374MOL    C4445550   3.474   3.460   1.651  0.4461 -0.5635 -0.3143
  374MOL    F4545551   3.360   3.527   1.649  0.0832 -0.1038  0.4210
  374MOL    F4645552   3.554   3.499   1.547 -0.1273 -0.1796 -0.0870
  374MOL    C4745553   3.452   3.306   1.650  0.7471  0.2972  0.0513
  374MOL    H4845554   3.374   3.290   1.724  0.7368 -0.6127 -0.1577
  374MOL    H4945555   3.539   3.253   1.689  0.8406 -0.2125 -0.8233
  374MOL    C5045556   3.383   3.245   1.531  0.4492  1.2243  0.7451
  374MOL    F5145557   3.480   3.233   1.429  0.1243 -0.0816 -0.1665
  374MOL    F5245558   3.352   3.118   1.575  0.4537 -0.4860 -0.0879
  374MOL    C5345559   3.248   3.303   1.472  0.4876 -0.6344 -0.1469
  374MOL    H5445560   3.265   3.408   1.448 -0.9583 -0.8868 -2.3326
  374MOL    H5545561   3.167   3.299   1.545 -1.1657 -3.0485 -2.0511
  374MOL    C5645562   3.184   3.226   1.354  0.1654 -0.3760 -0.6049
  374MOL    F5745563   3.188   3.096   1.379  0.2914 -1.0455 -0.5084
  374MOL    F5845564   3.053   3.260   1.335  0.5869 -0.2283 -0.4617
  374MOL    C5945565   3.250   3.253   1.219  0.0276  0.4214  0.2518
  374MOL    H6045566   3.210   3.172   1.158  0.4968  1.3573 -1.3474
  374MOL    H6145567   3.353   3.221   1.204 -0.4708 -0.3050 -1.8497
  374MOL    C6245568   3.224   3.391   1.149 -0.2095 -0.5721 -0.7914
  374MOL    F6345569   3.089   3.425   1.130 -0.0892  0.1481 -0.2115
  374MOL    F6445570   3.274   3.483   1.236 -0.2394 -0.0980 -0.4426
  374MOL    C6545571   3.297   3.410   1.016 -0.1507  0.1967 -0.5375
  374MOL    H6645572   3.250   3.337   0.949 -1.6140  0.1479  0.5053
  374MOL    H6745573   3.403   3.387   1.002 -0.6866 -2.0462 -1.2741
  374MOL    C6845574   3.284   3.546   0.958 -0.3503 -0.0115  0.0127
  374MOL    F6945575   3.156   3.584   0.938 -0.2510  0.9240 -0.1483
  374MOL    F7045576   3.355   3.619   1.040 -0.1818  0.2571  0.7393
  374MOL    C7145577   3.366   3.565   0.823  0.7068  0.4599 -0.3142
  374MOL    H7245578   3.359   3.673   0.813 -0.0144  0.5526  1.0318
  374MOL    H7345579   3.306   3.531   0.739  2.1003  1.3442 -1.6993
  374MOL    C7445580   3.507   3.497   0.802 -0.4141 -0.5539  0.6322
  374MOL    F7545581   3.580   3.533   0.902 -0.2004  0.4245  0.8004
  374MOL    F7645582   3.490   3.361   0.795 -0.0428 -0.1335 -0.7221
  374MOL    C7745583   3.582   3.547   0.672  0.5665  0.1051 -0.2956
  374MOL    H7845584   3.598   3.653   0.691 -1.9029  0.7363 -1.5039
  374MOL    H7945585   3.518   3.523   0.588  1.1416 -1.9273 -0.1859
  374MOL    C8045586   3.718   3.473   0.657 -0.1830 -0.7089  0.8517
  374MOL    F8145587   3.787   3.462   0.771  0.0799  0.2812 -0.1902
  374MOL    F8245588   3.682   3.352   0.612 -0.0347  0.2028  0.1627
  374MOL    C8345589   3.807   3.543   0.545  0.0881 -0.1460  0.0914
  374MOL    H8445590   3.761   3.544   0.447 -2.5470  0.9904  1.2860
  374MOL    H8545591   3.884   3.467   0.531  0.5546  0.7776 -2.5173
  374MOL    C8645592   3.867   3.684   0.568  0.5210  0.1600  0.0901
  374MOL    F8745593   3.757   3.764   0.576 -0.0872 -0.4803 -0.1950
  374MOL    F8845594   3.922   3.692   0.687  0.6529 -0.5209  0.2900
  374MOL    C8945595   3.968   3.720   0.459 -0.4927 -0.5477 -0.3995
  374MOL    H9045596   3.932   3.683   0.363 -0.3277 -0.0902 -0.6398
  374MOL    H9145597   4.053   3.659   0.487  2.8001  3.2996 -1.5471
  374MOL    C9245598   3.992   3.876   0.444  0.0001 -0.5229 -0.2177
  374MOL    F9345599   4.071   3.892   0.335 -0.2535 -0.3557 -0.3950
  374MOL    F9445600   3.880   3.947   0.419 -0.1857  0.2639 -0.0707
  374MOL    C9545601   4.063   3.939   0.571 -0.5234  0.2363 -0.2370
  374MOL    H9645602   4.160   3.890   0.574 -0.9190 -0.5080  0.9450
  374MOL    H9745603   4.019   3.909   0.667  0.5673 -0.8560 -0.0596
  374MOL    C9845604   4.087   4.090   0.557 -0.0487  0.3759  0.1661
  374MOL    F9945605   4.157   4.115   0.449  0.0554  0.7142 -0.1559
  374MOL   F10045606   3.968   4.154   0.550  0.3712 -0.0467  0.0833
  374MOL   C10145607   4.168   4.152   0.678 -0.0771  0.3394 -0.2150
  374MOL   H10245608   4.262   4.097   0.675 -0.4714 -0.5068  1.9107
  374MOL   H10345609   4.109   4.130   0.767 -0.5490 -1.8847 -1.0665
  374MOL   C10445610   4.191   4.304   0.683  0.5473  0.1281  0.1309
  374MOL   F10545611   4.075   4.358   0.703 -0.3428 -0.0940  0.1104
  374MOL   F10645612   4.267   4.334   0.794 -0.6098 -0.2679  0.3084
  374MOL   C10745613   4.246   4.371   0.554  0.0429  0.1404 -0.1719
  374MOL   H10845614   4.185   4.354   0.466  0.4140 -0.2703 -0.3459
  374MOL   H10945615   4.343   4.324   0.536  1.6843  2.4444  2.1870
  374MOL   C11045616   4.278   4.526   0.560 -0.4123  0.1020  0.2769
  374MOL   F11145617   4.347   4.547   0.674  0.0655 -0.3703 -0.1448
  374MOL   F11245618   4.358   4.559   0.458  0.6780 -0.1104 -0.1881
  374MOL   C11345619   4.156   4.612   0.564  0.0131  0.0285 -0.1277
  374MOL   H11445620   4.075   4.568   0.623  0.8533 -0.3245  0.7643
  374MOL   H11545621   4.118   4.615   0.462  3.2385 -0.4028 -1.3872
  374MOL   C11645622   4.186   4.755   0.608 -0.0520  0.0665 -0.3342
  374MOL   F11745623   4.186   4.757   0.740 -0.4999 -0.8551  0.1736
  374MOL   F11845624   4.304   4.794   0.570  0.5681  0.3840 -0.0299
  374MOL   C11945625   4.078   4.858   0.562 -0.3575 -0.4990 -0.6851
  374MOL   H12045626   3.980   4.839   0.606  0.2520 -1.9307  0.0915
  374MOL   H12145627   4.063   4.867   0.454  0.2013 -1.0920 -0.8132
  374MOL   H12245628   4.118   4.955   0.592  1.2113 -1.0783 -0.8709
  375MOL     C145629   1.830   1.125   1.386 -0.0304  0.2856  0.7507
  375MOL     F245630   1.958   1.117   1.363  0.4387  0.7630  0.2436
  375MOL     F345631   1.781   1.249   1.363 -0.1897  0.0098 -0.5621
  375MOL     C445632   1.799   1.084   1.529  0.7804 -0.2408 -0.1462
  375MOL     H545633   1.842   1.160   1.595  1.8258 -1.2283  0.3354
  375MOL     H645634   1.847   0.988   1.547  2.7237  0.9445  1.2457
  375MOL     H745635   1.783   1.052   1.321  2.2910 -0.0964 -0.5499
  375MOL     C845636   1.650   1.084   1.574  0.2534  0.4982  0.4533
  375MOL     F945637   1.620   1.215   1.583  0.1034 -0.0786  0.3136
  375MOL    F1045638   1.587   1.030   1.458 -0.1831  0.5709  0.0616
  375MOL    C1145639   1.606   1.002   1.700 -0.0668 -0.4824 -0.0557
  375MOL    H1245640   1.647   0.903   1.682  1.0511  0.1349 -1.0267
  375MOL    H1345641   1.497   1.006   1.701 -0.0431  0.3537  0.0737
  375MOL    C1445642   1.652   1.059   1.835 -0.8988 -0.2054 -0.1811
  375MOL    F1545643   1.785   1.063   1.832  0.5303 -0.2328  0.5549
  375MOL    F1645644   1.612   1.182   1.856  0.0272 -0.1283  0.4671
  375MOL    C1745645   1.585   0.980   1.946  0.0882 -0.1568  0.6054
  375MOL    H1845646   1.613   0.877   1.923  4.1297  1.1560 -0.8358
  375MOL    H1945647   1.477   0.981   1.933  0.0329  2.5494  1.0771
  375MOL    C2045648   1.633   1.021   2.087 -0.1830  0.1911 -0.1953
  375MOL    F2145649   1.769   1.015   2.093  0.7530  0.1357  0.2422
  375MOL    F2245650   1.604   1.155   2.103 -0.3307  0.1927  0.1077
  375MOL    C2345651   1.574   0.936   2.202  0.0001  0.1137 -0.7020
  375MOL    H2445652   1.640   0.947   2.288  2.8295 -1.6182 -2.5638
  375MOL    H2545653   1.585   0.830   2.178  0.8026 -0.0735  0.4235
  375MOL    C2645654   1.430   0.977   2.250 -0.4512 -0.2372  0.0199
  375MOL    F2745655   1.348   0.974   2.142 -0.0675 -0.1758  0.2094
  375MOL    F2845656   1.385   0.871   2.322  0.2254  0.1359  0.1050
  375MOL    C2945657   1.416   1.109   2.335 -0.4842  0.4529  0.8990
  375MOL    H3045658   1.316   1.134   2.369 -0.3438  1.6844  0.4326
  375MOL    H3145659   1.442   1.202   2.284  1.4556 -0.5430 -0.0248
  375MOL    C3245660   1.501   1.105   2.466  0.2955 -0.2375  0.0383
  375MOL    F3345661   1.484   0.981   2.518  0.2336 -0.1170  0.3158
  375MOL    F3445662   1.630   1.122   2.440  0.4954 -0.0700  1.1042
  375MOL    C3545663   1.462   1.206   2.582  0.2447 -0.6884  1.0190
  375MOL    H3645664   1.503   1.161   2.673 -0.2369  0.0964  1.6322
  375MOL    H3745665   1.353   1.201   2.592 -0.2258  2.7688 -1.3507
  375MOL    C3845666   1.508   1.349   2.558  0.4238  0.1183  0.3674
  375MOL    F3945667   1.639   1.347   2.586 -0.1598  0.5058 -0.1467
  375MOL    F4045668   1.490   1.388   2.432  0.2253 -1.1123  0.1270
  375MOL    C4145669   1.443   1.455   2.645  0.2090 -0.5812 -0.6289
  375MOL    H4245670   1.335   1.454   2.625  0.1347 -1.2744 -0.2111
  375MOL    H4345671   1.482   1.555   2.630 -3.4231  0.6920 -2.3115
  375MOL    C4445672   1.455   1.430   2.802 -0.5597  0.3291  0.8890
  375MOL    F4545673   1.390   1.317   2.831 -0.2928  0.1841  0.1600
  375MOL    F4645674   1.578   1.418   2.833 -0.2722  0.0746 -0.2778
  375MOL    C4745675   1.396   1.551   2.888 -0.7508  0.6021 -0.1599
  375MOL    H4845676   1.447   1.647   2.882  2.0726 -0.6917  2.0849
  375MOL    H4945677   1.391   1.527   2.994 -1.8142 -0.0076 -0.3354
  375MOL    C5045678   1.252   1.580   2.860 -0.1156 -0.3972  0.2439
  375MOL    F5145679   1.246   1.653   2.747  0.0669 -0.2738  0.3423
  375MOL    F5245680   1.179   1.471   2.851  0.5239 -0.5229 -0.8516
  375MOL    C5345681   1.188   1.668   2.965  0.4952  0.0156 -0.1441
  375MOL    H5445682   1.238   1.764   2.970 -1.4748  1.1131 -1.2144
  375MOL    H5545683   1.207   1.617   3.060 -2.1253 -3.7113 -1.4636
  375MOL    C5645684   1.040   1.697   2.947 -0.5708  0.8607  0.5198
  375MOL    F5745685   0.983   1.579   2.962  0.1842  0.5720 -0.2188
  375MOL    F5845686   1.006   1.775   3.052  0.3377 -0.1116  0.5412
  375MOL    C5945687   0.994   1.747   2.807  0.5305  0.7521  0.1931
  375MOL    H6045688   0.974   1.659   2.746  0.0509 -0.3957  1.9496
  375MOL    H6145689   1.075   1.800   2.757  1.9527 -0.0432  1.5931
  375MOL    C6245690   0.862   1.826   2.811 -0.9221  0.4473  1.0762
  375MOL    F6345691   0.785   1.744   2.875 -0.0675 -0.0488  0.3097
  375MOL    F6445692   0.884   1.935   2.886 -0.8251 -0.1128  0.1667
  375MOL    C6545693   0.819   1.871   2.668  0.0097  0.0995 -0.0604
  375MOL    H6645694   0.847   1.788   2.603  0.3626  0.8401 -0.8457
  375MOL    H6745695   0.877   1.958   2.639 -0.8551  1.0070  0.8769
  375MOL    C6845696   0.661   1.906   2.665 -0.3074  0.1028 -0.9869
  375MOL    F6945697   0.627   1.934   2.542  0.4964  0.3484  0.2007
  375MOL    F7045698   0.593   1.801   2.716 -0.6066 -0.8304  0.2785
  375MOL    C7145699   0.631   2.032   2.749  0.3203 -0.1720  0.4835
  375MOL    H7245700   0.683   2.114   2.698  0.3286  0.4202  1.4375
  375MOL    H7345701   0.677   2.030   2.848  3.3060 -0.4656 -0.8582
  375MOL    C7445702   0.484   2.074   2.751  0.1124 -0.1368  0.5191
  375MOL    F7545703   0.463   2.139   2.637  0.3662  0.3805  0.1365
  375MOL    F7645704   0.401   1.969   2.764  0.2193 -0.4935  0.4136
  375MOL    C7745705   0.448   2.176   2.868  0.6659  0.1970  0.1762
  375MOL    H7845706   0.512   2.264   2.863  0.5509  0.2100 -1.4142
  375MOL    H7945707   0.474   2.131   2.964  0.3920 -0.5321 -0.0869
  375MOL    C8045708   0.302   2.228   2.873 -0.0655 -0.2406  0.0068
  375MOL    F8145709   0.281   2.281   2.754 -0.2295  0.1102  0.3748
  375MOL    F8245710   0.223   2.123   2.887 -0.4323 -0.4624 -0.0390
  375MOL    C8345711   0.283   2.333   2.988  0.2602  0.6914 -0.7350
  375MOL    H8445712   0.346   2.419   2.970  0.0012  0.7178 -1.5428
  375MOL    H8545713   0.306   2.271   3.075  1.5420  0.9643 -0.8771
  375MOL    C8645714   0.136   2.375   3.009 -0.0274 -0.0109  0.0270
  375MOL    F8745715   0.087   2.417   2.893  0.8490 -0.4359  0.5367
  375MOL    F8845716   0.057   2.273   3.047  0.0121 -0.0316  0.1845
  375MOL    C8945717   0.115   2.480   3.117  0.2410 -0.6339  0.9332
  375MOL    H9045718   0.008   2.502   3.127 -0.0372 -2.7110  2.9462
  375MOL    H9145719   0.165   2.573   3.091  1.0855 -1.6461 -1.2195
  375MOL    C9245720   0.158   2.442   3.265 -0.1938  0.3759 -0.4941
  375MOL    F9345721   0.079   2.340   3.296  0.1525  0.1513  0.0177
  375MOL    F9445722   0.282   2.399   3.270 -0.5137  0.8534 -0.3795
  375MOL    C9545723   0.146   2.559   3.371  0.2069 -0.6382  0.2037
  375MOL    H9645724   0.115   2.513   3.465  1.5010  1.7358  1.8440
  375MOL    H9745725   0.060   2.616   3.337 -0.4087 -1.6365  0.0763
  375MOL    C9845726   0.256   2.662   3.390  0.5407 -0.6350  0.5085
  375MOL    F9945727   0.303   2.710   3.274 -0.0336  0.1246 -0.0281
  375MOL   F10045728   0.196   2.761   3.466 -0.2158 -0.0311 -0.0402
  375MOL   C10145729   0.383   2.607   3.464 -0.1455  0.8137  0.1697
  375MOL   H10245730   0.432   2.528   3.406 -1.0788 -0.0451  0.5295
  375MOL   H10345731   0.357   2.557   3.557  2.4031  3.0714  2.1609
  375MOL   C10445732   0.487   2.721   3.494  0.6113  0.0855  0.2675
  375MOL   F10545733   0.530   2.783   3.382 -0.1742 -0.0137 -0.5764
  375MOL   F10645734   0.421   2.814   3.561 -0.7180 -0.2561 -0.3290
  375MOL   C10745735   0.601   2.679   3.586  0.6293  0.9833  0.0456
  375MOL   H10845736   0.549   2.658   3.680 -2.1157 -0.3957 -1.7223
  375MOL   H10945737   0.655   2.772   3.599 -1.8066  2.4840 -0.3070
  375MOL   C11045738   0.688   2.553   3.546  0.1135  0.4583  0.0319
  375MOL   F11145739   0.612   2.445   3.548  0.2018 -0.2111  0.5706
  375MOL   F11245740   0.714   2.569   3.416  0.2872 -0.1341 -0.7255
  375MOL   C11345741   0.808   2.531   3.642  0.2201 -0.2587  0.0533
  375MOL   H11445742   0.770   2.530   3.744 -0.6914 -0.4290 -0.2831
  375MOL   H11545743   0.866   2.622   3.655  0.3097 -0.5940  2.1538
  375MOL   C11645744   0.899   2.409   3.610  0.0299 -0.0227 -0.2782
  375MOL   F11745745   0.993   2.401   3.710  0.2376 -0.1466 -0.0731
  375MOL   F11845746   0.827   2.292   3.601 -0.3238  0.0169 -0.3440
  375MOL   C11945747   0.970   2.409   3.472  0.0808 -0.0178  0.4480
  375MOL   H12045748   1.059   2.472   3.475 -0.2791  0.4690  1.0899
  375MOL   H12145749   0.903   2.432   3.389  0.0056  0.6348  0.6907
  375MOL   H12245750   1.005   2.308   3.453  2.1490  0.5071  1.2765
  376MOL     C145751   4.954   5.129   0.452 -0.9468 -0.7790  0.2018
  376MOL     F245752   4.982   5.227   0.368 -0.3852 -0.4605 -0.2460
  376MOL     F345753   4.913   5.021   0.383  0.1341  0.5598 -0.0652
  376MOL     C445754   4.846   5.174   0.559  0.2020  0.1023 -0.5837
  376MOL     H545755   4.823   5.097   0.633  2.4130  1.3586  1.4931
  376MOL     H645756   4.749   5.186   0.510 -0.3510  1.8932  0.8880
  376MOL     H745757   5.044   5.099   0.505 -0.1932  0.3419 -0.4334
  376MOL     C845758   4.885   5.316   0.634  0.0560 -0.1438  0.5277
  376MOL     F945759   4.915   5.411   0.546 -0.0080  0.6779  0.4452
  376MOL    F1045760   4.782   5.361   0.708 -0.4176 -0.8119  0.2295
  376MOL    C1145761   5.005   5.302   0.735 -0.8324  0.2113  0.3453
  376MOL    H1245762   5.028   5.405   0.764  0.7145 -0.2114  0.6780
  376MOL    H1345763   5.084   5.258   0.675 -1.1229 -0.4950  0.4806
  376MOL    C1445764   4.971   5.219   0.868  0.6770  0.1532  0.6292
  376MOL    F1545765   4.879   5.300   0.920 -0.2277 -0.1171  0.1207
  376MOL    F1645766   4.918   5.100   0.829 -0.0736  0.0527 -0.4438
  376MOL    C1745767   5.090   5.197   0.967  1.0903 -0.0445 -0.1943
  376MOL    H1845768   5.158   5.282   0.976  0.1784  0.5840  0.9708
  376MOL    H1945769   5.158   5.124   0.925 -0.8420 -1.1968 -1.3895
  376MOL    C2045770   5.048   5.140   1.103 -0.1074  0.1377  0.5833
  376MOL    F2145771   4.963   5.224   1.163  0.4313  0.1578 -0.5197
  376MOL    F2245772   4.988   5.024   1.096  0.0012 -0.1866 -0.0027
  376MOL    C2345773   5.165   5.120   1.210  0.4700  0.0343 -0.4374
  376MOL    H2445774   5.233   5.056   1.155  1.8366  0.6158  0.5584
  376MOL    H2545775   5.118   5.065   1.291  0.6495  0.2132 -0.2123
  376MOL    C2645776   5.253   5.236   1.266  0.3654  0.1837 -0.1248
  376MOL    F2745777   5.304   5.311   1.165 -0.3861 -0.1753 -0.3454
  376MOL    F2845778   5.162   5.303   1.337  0.3848  0.0565  0.3515
  376MOL    C2945779   5.360   5.199   1.366  0.6151  0.0162  0.1829
  376MOL    H3045780   5.404   5.289   1.407 -0.6592  0.3852  0.7413
  376MOL    H3145781   5.440   5.165   1.300  1.2134  2.3824 -0.3463
  376MOL    C3245782   5.336   5.089   1.472 -0.1619  0.0349 -0.1573
  376MOL    F3345783   5.219   5.115   1.530 -0.4473 -0.1306  0.1538
  376MOL    F3445784   5.328   4.979   1.403  0.4714 -0.1126  0.3848
  376MOL    C3545785   5.441   5.069   1.583 -0.7436 -0.3694 -0.1829
  376MOL    H3645786   5.542   5.091   1.549  0.2172 -0.7750  2.2566
  376MOL    H3745787   5.450   4.966   1.618  1.2607 -0.5333 -1.1121
  376MOL    C3845788   5.429   5.157   1.707 -0.7201 -0.1791 -0.3643
  376MOL    F3945789   5.448   5.283   1.673 -0.2700  0.4318  0.1882
  376MOL    F4045790   5.306   5.151   1.762 -0.3123  0.2404  0.2848
  376MOL    C4145791   5.531   5.120   1.823 -0.1753 -0.3329 -0.2535
  376MOL    H4245792   5.635   5.134   1.793  0.6337 -2.6614  1.2922
  376MOL    H4345793   5.524   5.013   1.842 -0.3240  0.1037  2.3817
  376MOL    C4445794   5.503   5.200   1.952 -0.1928 -0.3892  0.1554
  376MOL    F4545795   5.491   5.324   1.919 -0.2879 -0.5749 -0.3873
  376MOL    F4645796   5.393   5.162   2.008  0.4064  0.2340 -0.1704
  376MOL    C4745797   5.614   5.167   2.059 -0.8837  0.0870 -0.0558
  376MOL    H4845798   5.715   5.179   2.018 -0.1326  1.7838  2.1900
  376MOL    H4945799   5.596   5.065   2.091  0.8250 -0.3110 -0.3257
  376MOL    C5045800   5.601   5.253   2.184 -0.2207 -0.0977 -0.1936
  376MOL    F5145801   5.489   5.234   2.246 -0.1762 -0.4981 -0.2677
  376MOL    F5245802   5.691   5.216   2.273 -0.1009  0.2196  0.5272
  376MOL    C5345803   5.603   5.408   2.169 -0.4648  0.0373  0.1217
  376MOL    H5445804   5.515   5.449   2.119  0.2052  1.7878  0.3237
  376MOL    H5545805   5.680   5.440   2.099 -1.9038  1.6943 -0.7561
  376MOL    C5645806   5.643   5.493   2.294 -0.0599 -0.0210 -0.0770
  376MOL    F5745807   5.572   5.449   2.387  0.5609 -0.5118  0.4079
  376MOL    F5845808   5.763   5.446   2.324 -0.4355  0.3637 -0.1227
  376MOL    C5945809   5.635   5.650   2.278 -0.2421  0.4185  0.2793
  376MOL    H6045810   5.536   5.688   2.254  0.7338  1.7337 -1.7314
  376MOL    H6145811   5.689   5.677   2.187 -1.3330 -2.6844 -1.3793
  376MOL    C6245812   5.704   5.737   2.393 -0.2769  0.6658 -0.6405
  376MOL    F6345813   5.836   5.715   2.401 -0.5171 -0.1203  0.6176
  376MOL    F6445814   5.688   5.858   2.355 -0.2108 -0.2120 -0.4075
  376MOL    C6545815   5.642   5.720   2.536 -0.3417  0.0894  0.2031
  376MOL    H6645816   5.680   5.620   2.555 -1.1591  0.1823  2.3937
  376MOL    H6745817   5.535   5.730   2.556 -0.4546 -0.2677 -0.2000
  376MOL    C6845818   5.707   5.804   2.645  0.8584 -0.4063  0.7085
  376MOL    F6945819   5.661   5.762   2.764  0.5386  0.1071  0.5299
  376MOL    F7045820   5.838   5.777   2.635  0.1275  0.3995  0.2908
  376MOL    C7145821   5.693   5.957   2.648 -0.9300 -0.0912  0.0513
  376MOL    H7245822   5.755   5.995   2.567  0.0217 -2.2446 -0.2485
  376MOL    H7345823   5.750   5.994   2.733  1.4206  0.0537 -1.5259
  376MOL    C7445824   5.553   6.027   2.647  0.0097  0.2810 -0.3343
  376MOL    F7545825   5.497   6.005   2.531 -0.1431 -0.3420 -0.2158
  376MOL    F7645826   5.468   5.989   2.741 -0.2879 -0.5881  0.1808
  376MOL    C7745827   5.562   6.177   2.651  0.2455  0.1979  0.2725
  376MOL    H7845828   5.625   6.212   2.569  0.5247  1.6111  1.0825
  376MOL    H7945829   5.617   6.207   2.740 -1.2686  2.4614  0.5061
  376MOL    C8045830   5.433   6.263   2.649 -0.2110 -0.3034  0.1767
  376MOL    F8145831   5.357   6.218   2.550  0.0139 -0.5756 -0.0204
  376MOL    F8245832   5.358   6.239   2.758  0.3417  0.1500  0.1332
  376MOL    C8345833   5.452   6.414   2.636  0.0988 -0.3850 -0.8982
  376MOL    H8445834   5.357   6.460   2.607  0.1179  0.2101 -0.0168
  376MOL    H8545835   5.498   6.429   2.538 -0.5960  4.2795 -0.6398
  376MOL    C8645836   5.524   6.495   2.747  1.2190  0.2896 -0.3242
  376MOL    F8745837   5.472   6.465   2.863  0.2555  0.3931  0.0883
  376MOL    F8845838   5.656   6.463   2.749 -0.0895  0.0508  0.1641
  376MOL    C8945839   5.519   6.644   2.733 -0.2707  0.3424 -0.3341
  376MOL    H9045840   5.577   6.671   2.821 -1.3146  2.7407 -0.3425
  376MOL    H9145841   5.420   6.688   2.737 -0.7302 -0.7341  0.3169
  376MOL    C9245842   5.591   6.702   2.613 -0.6617 -0.0245  0.1542
  376MOL    F9345843   5.704   6.641   2.578 -0.0338 -0.4483  0.1320
  376MOL    F9445844   5.510   6.684   2.505 -0.2412 -0.4487  0.3650
  376MOL    C9545845   5.614   6.855   2.631  0.1474  0.6477 -0.2207
  376MOL    H9645846   5.684   6.873   2.712  1.8316  0.0907 -1.5215
  376MOL    H9745847   5.517   6.900   2.653  0.8555  1.1921  1.9149
  376MOL    C9845848   5.679   6.933   2.510 -0.1325  0.2421 -0.6595
  376MOL    F9945849   5.604   6.912   2.398 -0.0191 -0.0831  0.3221
  376MOL   F10045850   5.670   7.063   2.535 -0.0849  0.1897  0.3863
  376MOL   C10145851   5.828   6.904   2.474 -0.3168  0.9528  0.3717
  376MOL   H10245852   5.833   6.801   2.437 -0.8571  1.5213 -1.3643
  376MOL   H10345853   5.887   6.900   2.565  4.1703 -0.3942 -2.4158
  376MOL   C10445854   5.896   7.001   2.374 -0.5978  0.0797  0.1500
  376MOL   F10545855   5.821   7.049   2.278 -0.4524 -0.3054 -0.4539
  376MOL   F10645856   5.930   7.107   2.453  0.1537  0.5840 -0.1555
  376MOL   C10745857   6.034   6.949   2.318  0.4387 -0.1378  0.6469
  376MOL   H10845858   6.005   6.875   2.243 -0.1064  0.4980  0.2311
  376MOL   H10945859   6.086   6.914   2.407 -0.3983  0.6153  1.4393
  376MOL   C11045860   6.122   7.055   2.244  0.1749  0.6927 -0.8262
  376MOL   F11145861   6.043   7.102   2.144  0.1431  0.2715  0.1169
  376MOL   F11245862   6.153   7.156   2.324 -0.1773 -0.4098  0.0639
  376MOL   C11345863   6.249   6.995   2.181  0.5965 -0.5188  0.1396
  376MOL   H11445864   6.323   6.989   2.260 -1.4069  2.6749  2.3583
  376MOL   H11545865   6.280   7.074   2.112  1.2596 -1.3505 -0.5247
  376MOL   C11645866   6.237   6.869   2.097  0.1601 -0.2259  0.1020
  376MOL   F11745867   6.191   6.777   2.173 -0.1717  0.0969 -0.3476
  376MOL   F11845868   6.141   6.888   2.006 -0.5502 -0.3311 -0.0446
  376MOL   C11945869   6.375   6.835   2.031 -0.2787 -0.1829  0.5387
  376MOL   H12045870   6.454   6.821   2.105  0.0190 -0.0661  0.2445
  376MOL   H12145871   6.414   6.901   1.954 -1.1609 -0.6648 -0.3284
  376MOL   H12245872   6.348   6.738   1.989  0.3110  1.1737 -3.1395
  377MOL     C145873   6.896   0.272   4.538  0.1810  0.0991  0.1395
  377MOL     F245874   6.910   0.220   4.416  0.5384 -0.1664 -0.1593
  377MOL     F345875   6.771   0.308   4.560  0.1032  0.2569  0.6181
  377MOL     C445876   6.995   0.397   4.548  0.0877  0.0975  0.0849
  377MOL     H545877   6.978   0.469   4.628  0.3620  0.6385 -0.3436
  377MOL     H645878   6.976   0.458   4.460  1.1668  1.9102  1.0676
  377MOL     H745879   6.920   0.200   4.616  0.0899 -2.7932 -2.3863
  377MOL     C845880   7.148   0.361   4.561 -0.2089 -0.8798  0.5306
  377MOL     F945881   7.218   0.472   4.579 -0.2022  0.2470 -0.4038
  377MOL    F1045882   7.153   0.293   4.673  0.1422  0.0296  0.5234
  377MOL    C1145883   7.205   0.274   4.443 -0.1047  0.0194  0.0954
  377MOL    H1245884   7.151   0.179   4.437  0.6224 -0.3023 -1.8402
  377MOL    H1345885   7.303   0.240   4.477  1.5185  4.8097  0.4629
  377MOL    C1445886   7.222   0.341   4.302  0.0996  0.1138 -0.7344
  377MOL    F1545887   7.098   0.382   4.270  0.2830 -0.1174 -0.0947
  377MOL    F1645888   7.299   0.447   4.307  0.2657  0.6420  0.0362
  377MOL    C1745889   7.290   0.239   4.204 -0.1153 -0.2094 -0.3914
  377MOL    H1845890   7.235   0.145   4.219 -0.9473  0.6049  1.8983
  377MOL    H1945891   7.387   0.215   4.249 -0.3618 -0.5306 -0.0264
  377MOL    C2045892   7.303   0.290   4.056 -0.0305  0.3632  0.2574
  377MOL    F2145893   7.366   0.410   4.060  0.1979  0.4852 -0.7077
  377MOL    F2245894   7.388   0.198   4.003  0.1472 -0.3950  0.0694
  377MOL    C2345895   7.169   0.293   3.970  0.4484 -0.3176  0.2204
  377MOL    H2445896   7.116   0.369   4.027 -1.4818 -0.3198 -1.5419
  377MOL    H2545897   7.107   0.205   3.988  0.5128 -0.6892 -1.3021
  377MOL    C2645898   7.189   0.336   3.825 -0.1252 -0.8491 -0.5486
  377MOL    F2745899   7.238   0.454   3.836  0.2530 -0.0877 -0.3504
  377MOL    F2845900   7.278   0.267   3.764  0.1816  0.0717 -0.4093
  377MOL    C2945901   7.054   0.342   3.754  0.3606 -0.1603 -0.0665
  377MOL    H3045902   6.986   0.399   3.816 -1.0521 -0.0200 -1.7033
  377MOL    H3145903   7.003   0.246   3.742  0.1772 -0.4924  2.9724
  377MOL    C3245904   7.050   0.405   3.615 -0.0746  0.4953 -0.0651
  377MOL    F3345905   7.123   0.515   3.604  0.2687  0.4448  0.1278
  377MOL    F3445906   7.104   0.321   3.528 -0.0434 -0.1806 -0.1155
  377MOL    C3545907   6.906   0.433   3.563 -0.5555 -0.1559  0.3319
  377MOL    H3645908   6.834   0.489   3.622  0.1479  0.7309  0.3700
  377MOL    H3745909   6.859   0.336   3.555 -0.6795 -0.0969  0.3462
  377MOL    C3845910   6.898   0.507   3.423  0.1460  0.0149 -0.3225
  377MOL    F3945911   6.910   0.635   3.434  0.3084  0.4079  0.5789
  377MOL    F4045912   7.003   0.474   3.346  0.3976 -0.3029 -0.1652
  377MOL    C4145913   6.771   0.458   3.336 -1.0098  0.4660 -0.6776
  377MOL    H4245914   6.789   0.356   3.302  0.7268  0.8901 -1.0670
  377MOL    H4345915   6.788   0.520   3.248  1.6237  0.4442 -0.2451
  377MOL    C4445916   6.634   0.475   3.411  0.3586  0.3251  0.4839
  377MOL    F4545917   6.625   0.391   3.516  0.2430 -0.0887 -0.2519
  377MOL    F4645918   6.618   0.605   3.454  0.4080 -0.3581 -0.1049
  377MOL    C4745919   6.512   0.446   3.316  0.1473 -0.4905  0.3810
  377MOL    H4845920   6.421   0.465   3.372  0.3816 -2.0551  1.3113
  377MOL    H4945921   6.509   0.339   3.296 -3.8814 -0.2055 -1.0006
  377MOL    C5045922   6.503   0.534   3.185 -0.1468  0.5404  0.0296
  377MOL    F5145923   6.504   0.660   3.225  0.2108  0.0590 -0.2792
  377MOL    F5245924   6.606   0.511   3.105 -0.9796  0.4431 -0.0667
  377MOL    C5345925   6.372   0.504   3.097  0.0507 -0.5593  0.0468
  377MOL    H5445926   6.385   0.563   3.006  2.0502  0.5242  1.0049
  377MOL    H5545927   6.286   0.537   3.157 -0.2160  0.1618 -0.7098
  377MOL    C5645928   6.323   0.366   3.054  0.0452 -0.5685  0.2300
  377MOL    F5745929   6.430   0.318   2.993  0.3879  0.2765  0.5459
  377MOL    F5845930   6.279   0.285   3.151  0.6696  0.3282 -0.0956
  377MOL    C5945931   6.221   0.363   2.940  0.5910 -0.8280  0.2627
  377MOL    H6045932   6.191   0.258   2.935  2.9543 -1.5133 -0.0300
  377MOL    H6145933   6.266   0.393   2.845  3.1908  1.6135  2.1873
  377MOL    C6245934   6.094   0.456   2.939 -1.0461 -0.0340 -0.2540
  377MOL    F6345935   6.012   0.432   3.043  0.1891 -0.6528  0.0756
  377MOL    F6445936   6.139   0.584   2.949 -0.3988  0.3330 -0.7368
  377MOL    C6545937   6.020   0.448   2.809 -0.5399 -0.2509 -0.4127
  377MOL    H6645938   6.087   0.477   2.728  0.0944  0.3594  0.3068
  377MOL    H6745939   5.952   0.533   2.802  1.2357  1.2686  0.2875
  377MOL    C6845940   5.947   0.320   2.774  0.8020  0.8010  0.1642
  377MOL    F6945941   5.877   0.358   2.664  0.5508 -0.1649 -0.2561
  377MOL    F7045942   6.025   0.220   2.733 -0.0759 -0.0825  1.1428
  377MOL    C7145943   5.839   0.258   2.881 -0.1897  0.3079 -0.3791
  377MOL    H7245944   5.890   0.233   2.974 -2.0750  0.1310  0.6418
  377MOL    H7345945   5.804   0.162   2.841 -0.8134  0.5063 -0.3237
  377MOL    C7445946   5.721   0.347   2.917 -0.1919 -0.0522  0.2475
  377MOL    F7545947   5.771   0.455   2.976 -0.0111  0.2473  0.4781
  377MOL    F7645948   5.650   0.370   2.803  0.3173  0.3554  0.3663
  377MOL    C7745949   5.629   0.279   3.017 -0.6077 -0.0959 -0.2061
  377MOL    H7845950   5.673   0.290   3.115 -1.2632 -0.8462  0.1797
  377MOL    H7945951   5.610   0.173   2.995 -0.7777  0.1575 -1.3290
  377MOL    C8045952   5.488   0.344   3.033  0.1925 -0.1333 -0.8152
  377MOL    F8145953   5.506   0.469   3.058  0.2626 -0.0378  0.6008
  377MOL    F8245954   5.408   0.317   2.928  0.6494 -0.1936  0.6495
  377MOL    C8345955   5.413   0.289   3.157  0.1501  0.0008 -0.8303
  377MOL    H8445956   5.317   0.340   3.166  0.1950 -0.2876  1.4281
  377MOL    H8545957   5.469   0.326   3.242  0.2466 -1.6378 -0.1640
  377MOL    C8645958   5.397   0.138   3.169  1.1677  1.1946  0.4134
  377MOL    F8745959   5.347   0.086   3.054  0.0570 -0.2204  0.2153
  377MOL    F8845960   5.499   0.063   3.193  0.2786 -0.0331 -0.1905
  377MOL    C8945961   5.303   0.098   3.286  0.3011 -0.8016 -0.7253
  377MOL    H9045962   5.340   0.149   3.374  0.2852 -0.7707 -0.7362
  377MOL    H9145963   5.314   8.340   3.298 -1.9281 -0.9993 -0.1720
  377MOL    C9245964   5.160   0.135   3.266 -0.1995 -0.0870 -0.3466
  377MOL    F9345965   5.151   0.267   3.282  0.4440  0.5094 -0.5487
  377MOL    F9445966   5.116   0.099   3.150 -0.2774 -0.2043 -0.0914
  377MOL    C9545967   5.068   0.053   3.366 -0.1272 -0.7445  0.4204
  377MOL    H9645968   5.097   0.098   3.461 -0.9084  1.4371 -0.3343
  377MOL    H9745969   5.100   8.298   3.369 -1.2360 -1.0588  2.2515
  377MOL    C9845970   4.918   0.070   3.344  0.0042 -1.0257  0.1255
  377MOL    F9945971   4.869   8.334   3.250  0.4089 -0.1627 -0.2865
  377MOL   F10045972   4.871   0.032   3.461  0.4389 -0.3399 -0.2462
  377MOL   C10145973   4.863   0.211   3.307  0.3202 -1.0647 -0.0876
  377MOL   H10245974   4.906   0.229   3.209  0.9823 -2.4057 -0.0601
  377MOL   H10345975   4.909   0.287   3.370  1.0863 -0.2163 -1.6475
  377MOL   C10445976   4.709   0.228   3.310 -0.3265  0.2974 -0.4503
  377MOL   F10545977   4.647   0.136   3.235  0.0203  0.3219  0.2412
  377MOL   F10645978   4.658   0.204   3.432 -0.2450  0.5966 -0.5825
  377MOL   C10745979   4.664   0.365   3.253  0.2699  0.2904  0.0081
  377MOL   H10845980   4.555   0.370   3.254  0.2845  0.5630  1.5249
  377MOL   H10945981   4.706   0.367   3.152 -1.2462 -0.9329 -0.6665
  377MOL   C11045982   4.729   0.495   3.317 -0.2903  0.2903 -0.9581
  377MOL   F11145983   4.742   0.484   3.452  0.6863  0.3569 -0.3064
  377MOL   F11245984   4.855   0.507   3.271  0.0837  0.1836 -0.2850
  377MOL   C11345985   4.652   0.617   3.273  0.4985 -0.3675 -0.0375
  377MOL   H11445986   4.553   0.614   3.318  0.2734 -1.9265 -0.6040
  377MOL   H11545987   4.639   0.616   3.165  0.0337  1.4440 -0.0135
  377MOL   C11645988   4.711   0.760   3.301  0.1347  0.3025 -0.4421
  377MOL   F11745989   4.827   0.786   3.246  0.1956  0.0358  0.4283
  377MOL   F11845990   4.640   0.858   3.252 -0.0157  0.3671 -0.0660
  377MOL   C11945991   4.715   0.779   3.455  0.4371 -0.0097 -0.2852
  377MOL   H12045992   4.779   0.708   3.509  0.4351 -0.5572 -1.0006
  377MOL   H12145993   4.613   0.774   3.492  0.4881  1.7031  0.1159
  377MOL   H12245994   4.760   0.878   3.460 -1.8590  1.1227 -1.5176
  378MOL     C145995   5.216   4.003   3.248  0.1194 -0.2350 -0.3222
  378MOL     F245996   5.215   3.902   3.335  0.5621 -0.6154  0.3167
  378MOL     F345997   5.255   4.113   3.315  0.7105  0.3507 -0.2484
  378MOL     C445998   5.086   4.026   3.191  0.7044 -0.5140  0.3392
  378MOL     H545999   5.077   4.131   3.163 -1.0143 -0.0541  2.4784
  378MOL     H646000   5.011   4.027   3.270 -1.0133 -2.1065 -1.2229
  378MOL     H746001   5.285   3.975   3.168  0.7851 -1.2988  0.6084
  378MOL     C846002   5.049   3.925   3.075  0.2160  0.2426  0.4948
  378MOL     F946003   5.140   3.945   2.976  0.2650  0.1782 -0.2311
  378MOL    F1046004   5.047   3.795   3.109 -0.0806  0.1595  0.2851
  378MOL    C1146005   4.909   3.965   3.022  0.4471 -0.7803 -0.0895
  378MOL    H1246006   4.918   4.064   2.977  2.0527 -0.1720  1.4900
  378MOL    H1346007   4.849   3.988   3.110  0.4509 -0.1380 -0.2470
  378MOL    C1446008   4.832   3.880   2.915 -0.2395 -0.6509 -0.6226
  378MOL    F1546009   4.889   3.864   2.794  0.3164  0.0740  0.1398
  378MOL    F1646010   4.819   3.754   2.965 -0.3205  0.2566  0.1456
  378MOL    C1746011   4.687   3.939   2.898 -0.4191  0.9370 -0.2109
  378MOL    H1846012   4.646   3.957   2.998 -2.0176  1.0264 -0.8769
  378MOL    H1946013   4.632   3.865   2.840  1.4758  0.3286 -1.2662
  378MOL    C2046014   4.673   4.067   2.822 -0.2286 -0.7876 -0.0463
  378MOL    F2146015   4.542   4.058   2.790 -0.0295 -0.4532 -0.0497
  378MOL    F2246016   4.688   4.167   2.907 -0.0324 -0.0065 -0.2219
  378MOL    C2346017   4.765   4.095   2.695  0.2688  0.2082  0.3683
  378MOL    H2446018   4.761   4.008   2.630  0.5985  0.9448 -0.6573
  378MOL    H2546019   4.860   4.114   2.745  0.4034  2.2332 -0.5885
  378MOL    C2646020   4.739   4.227   2.608  0.1887  0.1687 -0.3686
  378MOL    F2746021   4.754   4.325   2.700  0.6048 -0.0383  0.1250
  378MOL    F2846022   4.843   4.224   2.525  0.2416  0.3755  0.3905
  378MOL    C2946023   4.607   4.226   2.529 -0.2909  0.9791 -0.1402
  378MOL    H3046024   4.527   4.218   2.603 -1.0300  1.8702 -0.8409
  378MOL    H3146025   4.607   4.132   2.473 -0.8086  0.9011 -0.0154
  378MOL    C3246026   4.589   4.352   2.451  0.5269 -0.0126  0.0330
  378MOL    F3346027   4.569   4.456   2.545  0.1905  0.9666 -0.2302
  378MOL    F3446028   4.702   4.384   2.387  0.1765  0.0848  0.5001
  378MOL    C3546029   4.466   4.365   2.347  0.0399 -0.3648 -0.4925
  378MOL    H3646030   4.497   4.309   2.259  1.8167  2.2229 -1.5428
  378MOL    H3746031   4.467   4.470   2.320 -0.0662 -0.7486 -2.0369
  378MOL    C3846032   4.329   4.310   2.401  0.0670 -0.2654  0.2738
  378MOL    F3946033   4.345   4.181   2.430  0.3359  0.4163  0.0390
  378MOL    F4046034   4.319   4.370   2.519  0.0384  0.3677 -0.1039
  378MOL    C4146035   4.214   4.339   2.302 -0.6355 -0.2288 -0.6172
  378MOL    H4246036   4.227   4.262   2.226  0.6874 -0.5125 -0.1197
  378MOL    H4346037   4.227   4.430   2.244  0.0291  1.0620  1.4928
  378MOL    C4446038   4.071   4.303   2.353 -0.3788  0.2920  0.1415
  378MOL    F4546039   4.041   4.362   2.469  0.0462 -0.1202  0.6101
  378MOL    F4646040   3.991   4.333   2.261 -0.0052 -0.5824 -0.4589
  378MOL    C4746041   4.047   4.148   2.362 -0.5622  0.0384  0.2646
  378MOL    H4846042   4.113   4.103   2.437 -0.9956 -1.3491 -0.1663
  378MOL    H4946043   4.065   4.107   2.263 -2.6478  1.9990 -0.9574
  378MOL    C5046044   3.907   4.115   2.406 -0.3962 -0.5752  0.5924
  378MOL    F5146045   3.891   4.156   2.534  0.3826  0.0904 -0.2131
  378MOL    F5246046   3.812   4.174   2.332  0.0389  0.8215 -0.1254
  378MOL    C5346047   3.875   3.959   2.401 -0.0308  0.0040  0.0069
  378MOL    H5446048   3.931   3.899   2.473 -0.7401  0.4871  0.9748
  378MOL    H5546049   3.909   3.930   2.301  0.2031 -3.0510  0.9127
  378MOL    C5646050   3.725   3.909   2.410  0.3536  0.3856  0.0043
  378MOL    F5746051   3.648   3.950   2.311 -0.4292 -0.1416  0.0700
  378MOL    F5846052   3.743   3.777   2.408 -0.6532 -0.2173 -0.6545
  378MOL    C5946053   3.657   3.957   2.539  0.0035 -0.6599 -0.5540
  378MOL    H6046054   3.642   4.065   2.539  0.6865 -0.5574  1.0551
  378MOL    H6146055   3.721   3.949   2.626  0.5494  1.0206 -0.7682
  378MOL    C6246056   3.522   3.884   2.591  0.4132  0.0113 -0.5221
  378MOL    F6346057   3.480   3.958   2.691  0.1580  0.1933  0.1174
  378MOL    F6446058   3.425   3.894   2.499  0.3229 -0.0849  0.5750
  378MOL    C6546059   3.535   3.731   2.624 -0.0866 -0.6435 -0.3872
  378MOL    H6646060   3.615   3.715   2.697 -1.4156 -0.3312  1.1733
  378MOL    H6746061   3.580   3.677   2.541  2.1702  0.1823  0.2791
  378MOL    C6846062   3.405   3.649   2.646 -0.5211 -0.3585 -0.3346
  378MOL    F6946063   3.323   3.658   2.539  0.1183  0.1064 -0.0413
  378MOL    F7046064   3.439   3.523   2.666  0.0828 -0.1016 -0.4197
  378MOL    C7146065   3.338   3.694   2.777  0.0494  0.0514  0.2061
  378MOL    H7246066   3.312   3.801   2.776 -1.6398 -0.3010  1.9705
  378MOL    H7346067   3.415   3.672   2.851 -0.1577  0.5294  0.5740
  378MOL    C7446068   3.207   3.614   2.825  0.4442 -0.5736  0.1520
  378MOL    F7546069   3.242   3.486   2.822 -0.2034 -0.5105 -0.2779
  378MOL    F7646070   3.158   3.647   2.941  0.1692 -0.1643  0.3197
  378MOL    C7746071   3.091   3.616   2.721 -0.5105 -0.7434  0.4977
  378MOL    H7846072   3.009   3.555   2.758  0.9867 -1.5023  2.6399
  378MOL    H7946073   3.121   3.555   2.635  0.2902 -0.6539  0.7052
  378MOL    C8046074   3.020   3.755   2.682 -0.1192 -0.4165  0.0636
  378MOL    F8146075   3.114   3.820   2.612  0.0934  0.2536  0.0649
  378MOL    F8246076   2.924   3.717   2.605  0.0351  0.0150  0.7069
  378MOL    C8346077   2.961   3.833   2.806  0.0768  0.2441  0.0637
  378MOL    H8446078   3.039   3.842   2.882 -1.0898 -1.6677  1.5399
  378MOL    H8546079   2.888   3.768   2.855  0.7395 -0.5965 -0.0480
  378MOL    C8646080   2.903   3.968   2.773 -0.2918  0.8420  0.4348
  378MOL    F8746081   2.909   4.032   2.889 -0.2218 -0.4519 -0.0072
  378MOL    F8846082   2.989   4.041   2.705 -0.3106 -0.4412  0.3825
  378MOL    C8946083   2.762   3.969   2.709 -0.0516  0.2308  0.1468
  378MOL    H9046084   2.687   3.923   2.774 -1.2679  1.1697 -0.5518
  378MOL    H9146085   2.766   3.898   2.627  0.0344  1.9049 -1.3134
  378MOL    C9246086   2.719   4.111   2.652 -0.0876  0.2715 -0.4666
  378MOL    F9346087   2.741   4.208   2.745 -0.3210 -0.4286  0.2600
  378MOL    F9446088   2.781   4.140   2.540  0.5358  0.0755  0.0884
  378MOL    C9546089   2.572   4.110   2.635 -0.1195  0.6802 -0.4769
  378MOL    H9646090   2.518   4.088   2.727  1.6790  0.1718  0.4827
  378MOL    H9746091   2.534   4.033   2.566 -1.3479 -1.2934  2.2968
  378MOL    C9846092   2.502   4.237   2.580 -0.4446 -0.1420  0.5468
  378MOL    F9946093   2.368   4.228   2.596 -0.2140 -0.1715  0.3113
  378MOL   F10046094   2.548   4.337   2.657  0.2022  0.0717 -0.3610
  378MOL   C10146095   2.537   4.274   2.432 -0.1368  0.1423  0.3281
  378MOL   H10246096   2.521   4.181   2.377 -0.0735  0.1381  0.3160
  378MOL   H10346097   2.641   4.301   2.416 -0.6652  2.8527  1.2918
  378MOL   C10446098   2.443   4.370   2.356 -0.7215  0.6771  0.3857
  378MOL   F10546099   2.478   4.362   2.227 -0.2598 -0.4713  0.6846
  378MOL   F10646100   2.324   4.313   2.368 -0.1784 -0.7463 -0.0159
  378MOL   C10746101   2.456   4.510   2.405 -0.0544 -0.2176 -0.2613
  378MOL   H10846102   2.557   4.546   2.422  0.3480 -1.2905 -0.3941
  378MOL   H10946103   2.412   4.512   2.504  1.7084  0.6833  0.5225
  378MOL   C11046104   2.378   4.615   2.321 -0.6415  0.2068 -0.7015
  378MOL   F11146105   2.429   4.619   2.193  0.2467 -0.2742 -0.4560
  378MOL   F11246106   2.257   4.561   2.303  0.8238 -0.5556 -0.8466
  378MOL   C11346107   2.365   4.754   2.383 -0.3753  0.7500  0.7074
  378MOL   H11446108   2.324   4.762   2.483  0.4978  0.7487  1.0756
  378MOL   H11546109   2.286   4.801   2.324 -1.4402 -0.4606  1.1520
  378MOL   C11646110   2.490   4.843   2.361 -0.8452 -0.5652  0.5014
  378MOL   F11746111   2.594   4.786   2.413  0.1610  0.5351  0.2962
  378MOL   F11846112   2.522   4.867   2.233 -0.1039 -0.2796 -0.4113
  378MOL   C11946113   2.468   4.980   2.420 -0.4626  0.1616  0.2580
  378MOL   H12046114   2.450   4.983   2.528  1.2412  0.7121  0.5476
  378MOL   H12146115   2.369   5.012   2.388 -0.6714 -1.8033 -1.1153
  378MOL   H12246116   2.544   5.049   2.382 -2.0177  0.9795 -1.4372
  379MOL     C146117   3.504   1.217   3.154 -0.8781 -0.5820  0.0424
  379MOL     F246118   3.481   1.340   3.207  0.3426 -0.1412  0.0959
  379MOL     F346119   3.611   1.156   3.216  0.1577 -0.1797  0.3731
  379MOL     C446120   3.514   1.226   2.996 -0.4089  0.2915 -0.5308
  379MOL     H546121   3.611   1.271   2.975  1.3681 -2.4217  1.4442
  379MOL     H646122   3.433   1.275   2.942 -0.6819  2.3555  1.6752
  379MOL     H746123   3.418   1.159   3.188 -0.6032 -2.1981 -1.9088
  379MOL     C846124   3.514   1.085   2.938 -0.1669  0.3429  0.2308
  379MOL     F946125   3.605   1.015   3.003 -0.0012 -0.3424 -0.4194
  379MOL    F1046126   3.395   1.035   2.973 -0.2614 -0.1197  0.0670
  379MOL    C1146127   3.541   1.075   2.782 -0.6758  0.2573  0.5046
  379MOL    H1246128   3.635   1.122   2.755 -2.0450  1.5287 -2.2058
  379MOL    H1346129   3.463   1.131   2.731 -1.1712  0.2152  1.2004
  379MOL    C1446130   3.536   0.928   2.731 -0.2896 -0.1708 -0.1280
  379MOL    F1546131   3.554   0.934   2.600 -0.4695  0.1525  0.8542
  379MOL    F1646132   3.645   0.869   2.785 -0.2374  0.0819  0.3112
  379MOL    C1746133   3.416   0.832   2.762  0.0611  0.0232 -0.2915
  379MOL    H1846134   3.327   0.887   2.732 -0.1763 -0.5427 -0.6334
  379MOL    H1946135   3.412   0.829   2.871 -1.4003 -1.0196 -0.3618
  379MOL    C2046136   3.441   0.690   2.700  0.1566 -0.0563 -0.4433
  379MOL    F2146137   3.457   0.701   2.570 -0.0453 -0.4228 -0.2807
  379MOL    F2246138   3.553   0.638   2.754 -0.1165  0.3743 -0.0787
  379MOL    C2346139   3.325   0.595   2.726  1.0569  0.4387  0.5111
  379MOL    H2446140   3.312   0.584   2.833 -0.4540  1.7473  0.4867
  379MOL    H2546141   3.350   0.493   2.697  0.4909  0.3017  0.4977
  379MOL    C2646142   3.186   0.629   2.659  0.0688 -0.4316 -0.1866
  379MOL    F2746143   3.143   0.744   2.703 -0.0065 -0.1783 -0.4447
  379MOL    F2846144   3.205   0.641   2.530  0.0222 -0.3460 -0.3635
  379MOL    C2946145   3.078   0.520   2.686 -0.2513  0.4536 -0.2285
  379MOL    H3046146   3.060   0.511   2.793 -1.0525 -2.2873 -0.5489
  379MOL    H3146147   3.113   0.422   2.651 -0.4669 -0.1047  1.0849
  379MOL    C3246148   2.938   0.558   2.621 -0.5610  0.6719  0.4233
  379MOL    F3346149   2.950   0.577   2.489  0.2013 -0.2493  0.0416
  379MOL    F3446150   2.866   0.449   2.634 -0.2258 -0.2955 -0.4972
  379MOL    C3546151   2.859   0.684   2.686  0.1822 -0.6396 -0.2663
  379MOL    H3646152   2.779   0.720   2.622  0.5929  0.8420  0.0480
  379MOL    H3746153   2.926   0.768   2.698 -1.6235  0.8370 -0.2659
  379MOL    C3846154   2.796   0.660   2.821  0.3262  0.2198 -0.3620
  379MOL    F3946155   2.701   0.558   2.811 -0.5683  0.4073 -0.0815
  379MOL    F4046156   2.888   0.632   2.908 -0.3649  0.5164  0.4559
  379MOL    C4146157   2.720   0.781   2.877  0.2287 -0.1495  0.5064
  379MOL    H4246158   2.661   0.824   2.796  0.0803  0.0019  0.6947
  379MOL    H4346159   2.795   0.859   2.890  0.0677  0.6247 -2.7942
  379MOL    C4446160   2.634   0.758   3.000 -0.6698  0.6360 -0.1980
  379MOL    F4546161   2.590   0.882   3.036  0.6863  0.2637  0.3879
  379MOL    F4646162   2.526   0.698   2.954  0.3754 -0.6915  0.1197
  379MOL    C4746163   2.703   0.684   3.122 -0.7976 -0.3729 -0.0828
  379MOL    H4846164   2.794   0.732   3.156 -1.4896 -1.7085  3.9135
  379MOL    H4946165   2.731   0.587   3.082  1.8076  0.0656  0.5722
  379MOL    C5046166   2.603   0.657   3.245 -0.5487 -0.1073  0.7672
  379MOL    F5146167   2.682   0.631   3.350 -0.2904 -0.1938 -0.4542
  379MOL    F5246168   2.540   0.772   3.273 -0.1496 -0.9339 -0.1245
  379MOL    C5346169   2.501   0.541   3.214 -0.1189  0.7662 -0.4072
  379MOL    H5446170   2.551   0.449   3.184 -1.0120 -0.8877  2.9208
  379MOL    H5546171   2.446   0.571   3.125 -0.7930  1.4204  0.2240
  379MOL    C5646172   2.391   0.497   3.316 -0.1559 -0.4299  0.2044
  379MOL    F5746173   2.451   0.476   3.429  0.8675  0.1447 -0.2924
  379MOL    F5846174   2.296   0.590   3.332  0.0412  0.2632  0.1657
  379MOL    C5946175   2.319   0.375   3.266  0.1980 -0.5824  0.8683
  379MOL    H6046176   2.394   0.296   3.264 -0.0401 -0.7850 -0.3422
  379MOL    H6146177   2.295   0.385   3.160  1.1982  1.6878  0.8415
  379MOL    C6246178   2.189   0.334   3.345  0.5954  0.4416  0.3356
  379MOL    F6346179   2.157   0.217   3.290  0.4557 -0.2064 -0.5564
  379MOL    F6446180   2.228   0.321   3.470  0.3184  0.3032  0.1136
  379MOL    C6546181   2.062   0.418   3.345  0.8473 -0.1988  0.5523
  379MOL    H6646182   2.088   0.515   3.388  2.5820  0.7025 -2.4165
  379MOL    H6746183   1.989   0.376   3.415 -1.0558  0.1818 -1.1837
  379MOL    C6846184   2.004   0.443   3.206 -0.1189  0.2139  0.3506
  379MOL    F6946185   2.084   0.535   3.147 -0.0662  0.6259 -0.2495
  379MOL    F7046186   2.004   0.330   3.136 -0.1063 -0.0500  0.0828
  379MOL    C7146187   1.863   0.505   3.204  1.1976  0.2511 -0.1435
  379MOL    H7246188   1.797   0.427   3.241 -0.2962  0.7664 -1.6903
  379MOL    H7346189   1.846   0.519   3.097  1.3958 -1.9193 -0.4956
  379MOL    C7446190   1.841   0.640   3.286  0.9720  0.8467 -0.0651
  379MOL    F7546191   1.852   0.603   3.414 -0.3159  0.3297 -0.2254
  379MOL    F7646192   1.950   0.703   3.247  0.6397  0.5199 -0.4222
  379MOL    C7746193   1.718   0.725   3.244 -0.3786 -0.1220 -0.3809
  379MOL    H7846194   1.730   0.737   3.137 -1.6091  0.8216 -0.4210
  379MOL    H7946195   1.735   0.826   3.280 -2.1671  0.0690 -0.0377
  379MOL    C8046196   1.577   0.671   3.274  0.3511  0.6459 -0.3830
  379MOL    F8146197   1.479   0.757   3.236 -0.1277 -0.2375  0.3007
  379MOL    F8246198   1.567   0.560   3.202  0.1207 -0.3472 -0.0293
  379MOL    C8346199   1.552   0.654   3.431 -0.5138 -0.4600 -0.0074
  379MOL    H8446200   1.601   0.566   3.472  1.2724  0.6987  0.3762
  379MOL    H8546201   1.447   0.625   3.437 -0.4564 -0.4465  1.3321
  379MOL    C8646202   1.569   0.781   3.519 -0.9381 -0.5200 -0.3266
  379MOL    F8746203   1.703   0.799   3.552  0.7305 -0.3861  0.3448
  379MOL    F8846204   1.535   0.887   3.448  0.4031 -0.3669  0.0030
  379MOL    C8946205   1.485   0.786   3.646  0.0066  0.2829 -0.4948
  379MOL    H9046206   1.382   0.803   3.613 -0.7644 -1.0700  1.1264
  379MOL    H9146207   1.517   0.878   3.696 -0.7284 -0.8228  2.0829
  379MOL    C9246208   1.503   0.669   3.743  0.4064 -0.9703  0.3763
  379MOL    F9346209   1.475   0.557   3.672  0.2037  0.4454 -0.1469
  379MOL    F9446210   1.627   0.670   3.795 -0.2716 -0.1010 -0.2057
  379MOL    C9546211   1.402   0.670   3.862  0.2703 -0.0386  0.2105
  379MOL    H9646212   1.306   0.680   3.811  0.9451 -1.6801 -1.4316
  379MOL    H9746213   1.416   0.764   3.916  0.0063  0.3118 -0.3281
  379MOL    C9846214   1.388   0.544   3.955  0.1978 -0.6484  0.0674
  379MOL    F9946215   1.278   0.576   4.026  0.1893  0.0295  0.0316
  379MOL   F10046216   1.362   0.433   3.882 -0.9867  0.4825 -0.0118
  379MOL   C10146217   1.515   0.537   4.042  0.2994 -0.3927 -0.4977
  379MOL   H10246218   1.544   0.636   4.077 -1.2991 -0.2652  0.5240
  379MOL   H10346219   1.597   0.495   3.983 -0.4044 -1.1652 -0.9382
  379MOL   C10446220   1.499   0.454   4.171  0.3993  0.2382  0.0520
  379MOL   F10546221   1.415   0.518   4.255  0.3209  0.0267  0.1572
  379MOL   F10646222   1.465   0.328   4.144 -0.4851  0.1070 -0.4471
  379MOL   C10746223   1.637   0.435   4.247 -0.1469 -0.5506 -0.2007
  379MOL   H10846224   1.697   0.360   4.195  1.9583  0.9494  0.0232
  379MOL   H10946225   1.610   0.386   4.341  0.2841  0.8725  0.6877
  379MOL   C11046226   1.728   0.552   4.274 -0.0307  0.4170  1.3086
  379MOL   F11146227   1.773   0.618   4.163  0.1672  0.0038  0.1923
  379MOL   F11246228   1.660   0.636   4.338 -0.2090 -0.0851 -0.4425
  379MOL   C11346229   1.843   0.505   4.358 -0.3841  0.2020 -0.8324
  379MOL   H11446230   1.892   0.421   4.310  0.2137  0.2726 -0.3368
  379MOL   H11546231   1.798   0.486   4.455  0.7925 -2.3206 -0.7496
  379MOL   C11646232   1.955   0.615   4.389  0.1836 -0.0290  0.0747
  379MOL   F11746233   2.041   0.546   4.464  0.5626 -0.2123 -0.1814
  379MOL   F11846234   2.010   0.655   4.269  0.3023  0.3283 -0.3612
  379MOL   C11946235   1.908   0.736   4.460  0.8482  0.4198  0.4619
  379MOL   H12046236   1.996   0.796   4.484  3.5750 -2.6245 -1.3558
  379MOL   H12146237   1.850   0.727   4.551  2.1590  0.5005  1.3136
  379MOL   H12246238   1.847   0.790   4.388  0.3766  0.1150  0.6340
  380MOL     C146239   5.570   3.102   1.707 -0.8706 -0.2481 -0.0607
  380MOL     F246240   5.468   3.079   1.792  0.1332  0.3427 -0.1676
  380MOL     F346241   5.604   3.227   1.728  0.0895  0.6364 -0.0547
  380MOL     C446242   5.535   3.073   1.568  0.3195 -0.9787 -0.0708
  380MOL     H546243   5.610   3.122   1.505 -0.5173 -0.4825 -0.6957
  380MOL     H646244   5.437   3.115   1.547 -0.4376 -2.4213  0.5331
  380MOL     H746245   5.650   3.045   1.756 -0.6603  1.3669  1.5190
  380MOL     C846246   5.529   2.922   1.535  0.4473 -0.3623 -0.4960
  380MOL     F946247   5.655   2.877   1.543 -0.4353 -0.0243 -0.3974
  380MOL    F1046248   5.463   2.844   1.620  0.2703 -0.3210 -0.0247
  380MOL    C1146249   5.473   2.898   1.391 -0.2739 -0.4716 -0.1641
  380MOL    H1246250   5.370   2.934   1.384 -0.1143  0.1289  0.6068
  380MOL    H1346251   5.457   2.790   1.379  0.8664 -0.4447 -2.0685
  380MOL    C1446252   5.563   2.927   1.266 -0.0162 -0.6147 -0.0577
  380MOL    F1546253   5.610   3.057   1.257 -0.4329 -0.1587 -0.3044
  380MOL    F1646254   5.664   2.850   1.289  0.2793 -0.0404  0.6399
  380MOL    C1746255   5.481   2.882   1.136 -0.2445 -0.1294 -0.8489
  380MOL    H1846256   5.394   2.948   1.139  0.6299  1.0040 -0.1596
  380MOL    H1946257   5.446   2.780   1.151  2.5497 -0.5618  3.3228
  380MOL    C2046258   5.558   2.910   1.003  0.3182 -0.1830  0.9567
  380MOL    F2146259   5.459   2.893   0.910  0.3110  0.0509  0.4295
  380MOL    F2246260   5.595   3.042   1.003  0.3445 -0.3444  0.1192
  380MOL    C2346261   5.679   2.814   0.998  0.9013  0.3835  0.3099
  380MOL    H2446262   5.661   2.708   1.014  0.8297  0.4185  0.4583
  380MOL    H2546263   5.756   2.849   1.067 -1.1237  0.4797  2.5830
  380MOL    C2646264   5.754   2.830   0.856  0.4054 -0.0390  0.0651
  380MOL    F2746265   5.661   2.785   0.767  0.1339  0.2196 -0.6029
  380MOL    F2846266   5.781   2.965   0.837 -0.6463 -0.7272  0.5633
  380MOL    C2946267   5.892   2.750   0.839  0.8882  0.0120  0.7335
  380MOL    H3046268   5.969   2.804   0.894  2.1432 -1.5313  0.5194
  380MOL    H3146269   5.916   2.763   0.734 -0.5643  1.6092  0.5827
  380MOL    C3246270   5.902   2.597   0.881 -0.2063 -0.6617  0.6945
  380MOL    F3346271   5.871   2.583   1.008 -0.0122 -0.0867 -0.3246
  380MOL    F3446272   5.808   2.536   0.807 -0.3095 -0.0271  0.8609
  380MOL    C3546273   6.040   2.523   0.858 -0.3850  0.1898 -0.0835
  380MOL    H3646274   6.081   2.526   0.757  1.6706  1.4447  0.7730
  380MOL    H3746275   6.024   2.419   0.884 -1.9018  0.8445  1.7853
  380MOL    C3846276   6.146   2.568   0.958  0.6138 -0.7753 -0.0228
  380MOL    F3946277   6.252   2.486   0.937 -0.6684  0.3691  0.0041
  380MOL    F4046278   6.181   2.697   0.923 -0.8410  0.4519 -0.2240
  380MOL    C4146279   6.118   2.561   1.112  0.4763  0.2548  1.0595
  380MOL    H4246280   6.073   2.469   1.150  0.9304 -0.2975  0.2450
  380MOL    H4346281   6.046   2.641   1.133 -1.7011 -0.4123 -3.4040
  380MOL    C4446282   6.243   2.588   1.203  0.7262  0.4826 -0.4329
  380MOL    F4546283   6.300   2.704   1.157 -0.0138  0.2536 -0.3428
  380MOL    F4646284   6.197   2.601   1.325  1.1594 -0.2024  0.1293
  380MOL    C4746285   6.355   2.479   1.208 -0.0356  0.0752  0.4501
  380MOL    H4846286   6.407   2.494   1.113 -3.4170  0.4218 -1.4507
  380MOL    H4946287   6.318   2.376   1.202  3.5783 -1.3831  1.7123
  380MOL    C5046288   6.464   2.479   1.322  0.7069  0.1567 -0.0159
  380MOL    F5146289   6.407   2.467   1.444 -0.2030  0.1894 -0.5183
  380MOL    F5246290   6.544   2.367   1.313  0.6303  0.5967 -0.4952
  380MOL    C5346291   6.548   2.613   1.315  0.7083 -0.6184  0.3540
  380MOL    H5446292   6.481   2.698   1.317  1.1472 -0.1759 -2.2189
  380MOL    H5546293   6.594   2.614   1.216 -0.0783  1.9149 -0.0090
  380MOL    C5646294   6.653   2.627   1.420  0.0664  0.4004 -0.0872
  380MOL    F5746295   6.603   2.628   1.543  0.0222  0.3152 -0.4867
  380MOL    F5846296   6.741   2.517   1.415  0.2053  0.5819 -0.0922
  380MOL    C5946297   6.731   2.760   1.402 -0.1830  0.0445 -0.6252
  380MOL    H6046298   6.791   2.753   1.311  0.3437  0.2792 -0.2913
  380MOL    H6146299   6.809   2.772   1.477 -0.6933  0.4697 -0.1643
  380MOL    C6246300   6.650   2.890   1.395  0.3622  0.0800  0.4143
  380MOL    F6346301   6.594   2.896   1.271 -0.2284  0.2160 -0.0337
  380MOL    F6446302   6.554   2.889   1.487 -1.0650  0.7769 -0.3853
  380MOL    C6546303   6.739   3.020   1.408 -0.4701 -0.1656  0.6602
  380MOL    H6646304   6.837   3.002   1.363  0.5269 -0.2952  2.8014
  380MOL    H6746305   6.750   3.035   1.516  2.1904  0.7108  0.3010
  380MOL    C6846306   6.677   3.151   1.349 -0.2115 -0.1285  0.6692
  380MOL    F6946307   6.778   3.239   1.348  0.3071  0.3224  0.1497
  380MOL    F7046308   6.649   3.126   1.215  0.3803 -0.0873 -0.1014
  380MOL    C7146309   6.548   3.201   1.414  0.5033 -0.3403  0.0031
  380MOL    H7246310   6.480   3.119   1.393  0.7833 -0.2354 -1.3577
  380MOL    H7346311   6.507   3.279   1.350  1.9057 -0.6466 -1.2932
  380MOL    C7446312   6.553   3.244   1.559 -0.3664 -0.3230  0.0456
  380MOL    F7546313   6.572   3.142   1.634  0.0293  0.1256  0.1579
  380MOL    F7646314   6.660   3.320   1.568  0.3796 -0.9266 -0.2682
  380MOL    C7746315   6.430   3.316   1.600  0.3712 -0.1454  0.0380
  380MOL    H7846316   6.411   3.382   1.515 -0.5635 -0.3932  0.0416
  380MOL    H7946317   6.448   3.385   1.682  2.7142  1.6772 -1.9503
  380MOL    C8046318   6.305   3.232   1.626  0.3027  0.0999  0.2163
  380MOL    F8146319   6.292   3.166   1.513  0.6029  0.4559 -0.1454
  380MOL    F8246320   6.331   3.149   1.722  0.1696  0.1445 -0.5004
  380MOL    C8346321   6.168   3.296   1.643 -0.1087 -0.1663  0.2816
  380MOL    H8446322   6.178   3.384   1.707 -1.1999 -0.1365  0.4117
  380MOL    H8546323   6.101   3.228   1.695 -0.8624  0.0593 -0.3802
  380MOL    C8646324   6.109   3.354   1.510 -0.2848  0.4243  0.0584
  380MOL    F8746325   6.178   3.456   1.451 -0.1310  0.1536 -0.3313
  380MOL    F8846326   6.091   3.254   1.421  0.3641  0.3743 -0.5345
  380MOL    C8946327   5.963   3.408   1.546  0.1535  0.6450 -0.7936
  380MOL    H9046328   5.978   3.507   1.589  0.9067  1.1222 -2.1282
  380MOL    H9146329   5.921   3.348   1.627  0.2922  1.8853  0.1999
  380MOL    C9246330   5.858   3.416   1.429  1.0574  0.0418 -0.8043
  380MOL    F9346331   5.904   3.507   1.343 -0.4481  0.6671  0.1896
  380MOL    F9446332   5.842   3.294   1.376 -0.6453 -0.0029  0.0190
  380MOL    C9546333   5.717   3.460   1.465  0.6145  0.4238 -0.3289
  380MOL    H9646334   5.670   3.377   1.517 -1.3501  1.7712  0.1088
  380MOL    H9746335   5.663   3.473   1.370  2.2233 -0.0076 -1.3188
  380MOL    C9846336   5.706   3.584   1.556  0.1960 -0.1835 -0.4257
  380MOL    F9946337   5.749   3.545   1.676  0.2166  0.3106  0.1663
  380MOL   F10046338   5.790   3.682   1.509  0.5905 -0.6132 -0.1790
  380MOL   C10146339   5.555   3.624   1.573  0.2564 -0.5193 -0.6011
  380MOL   H10246340   5.492   3.536   1.588 -0.3058  0.2846  1.8920
  380MOL   H10346341   5.514   3.675   1.485 -0.6699  3.6502  2.1210
  380MOL   C10446342   5.529   3.735   1.677 -0.4114  0.9208 -0.5590
  380MOL   F10546343   5.609   3.836   1.653  0.2972  0.1425  0.1248
  380MOL   F10646344   5.405   3.784   1.659 -0.2749  1.2295  0.2314
  380MOL   C10746345   5.545   3.686   1.826  0.1452 -0.3726  0.2368
  380MOL   H10846346   5.635   3.628   1.843 -0.4137 -0.5370  2.8585
  380MOL   H10946347   5.474   3.606   1.848 -1.3674  0.9648  0.3655
  380MOL   C11046348   5.538   3.801   1.932 -0.0641  0.0479 -0.6093
  380MOL   F11146349   5.565   3.749   2.049 -0.2369  0.4086  0.4876
  380MOL   F11246350   5.622   3.898   1.907  0.0996  0.1754  0.0986
  380MOL   C11346351   5.398   3.864   1.943 -0.0417 -0.0132 -0.3802
  380MOL   H11446352   5.324   3.786   1.961  0.5135 -1.1120 -2.7286
  380MOL   H11546353   5.362   3.908   1.850 -1.3224  0.5544  0.3680
  380MOL   C11646354   5.376   3.967   2.057  0.6306  0.7282  0.0229
  380MOL   F11746355   5.244   3.965   2.078 -0.0742 -0.0834  0.3232
  380MOL   F11846356   5.431   3.919   2.166 -0.5376 -0.2787 -0.0217
  380MOL   C11946357   5.434   4.103   2.027 -0.1725 -0.5314 -0.1679
  380MOL   H12046358   5.407   4.124   1.924 -0.2741  0.9286  0.1443
  380MOL   H12146359   5.542   4.098   2.025 -0.0435  1.2836  1.2126
  380MOL   H12246360   5.396   4.187   2.086  0.0120 -1.0116  0.6463
  381MOL     C146361   6.090   3.768   6.288 -0.1515 -0.7400 -0.4842
  381MOL     F246362   6.147   3.791   6.407 -0.2256 -0.0697 -0.0984
  381MOL     F346363   6.013   3.875   6.271 -0.0211  0.2285  0.5334
  381MOL     C446364   6.006   3.641   6.254  0.1850 -0.2150 -0.1131
  381MOL     H546365   5.967   3.643   6.152 -0.3476 -2.1089  0.0429
  381MOL     H646366   5.916   3.648   6.315 -0.6153 -0.5950 -1.2227
  381MOL     H746367   6.175   3.782   6.221  0.8418 -2.2280  0.4156
  381MOL     C846368   6.068   3.507   6.285  0.2772  0.2209  0.2160
  381MOL     F946369   6.191   3.498   6.241  0.0147  0.1725 -0.1932
  381MOL    F1046370   6.074   3.485   6.416 -0.2785 -0.2316  0.4528
  381MOL    C1146371   5.990   3.394   6.215  0.0176  0.4872  0.0089
  381MOL    H1246372   6.002   3.396   6.107  2.7483 -0.1104  0.2461
  381MOL    H1346373   5.882   3.400   6.222  0.0186 -1.2433  1.9926
  381MOL    C1446374   6.015   3.254   6.263 -0.2496  0.1584  0.6837
  381MOL    F1546375   5.961   3.234   6.379  0.4608  0.0753 -0.3672
  381MOL    F1646376   5.944   3.178   6.176  0.3517 -0.0912 -0.6743
  381MOL    C1746377   6.164   3.205   6.261 -0.8453 -0.1740 -0.0416
  381MOL    H1846378   6.222   3.261   6.335  1.1169 -0.7290 -1.1183
  381MOL    H1946379   6.219   3.231   6.171 -2.4043  0.7876 -0.7310
  381MOL    C2046380   6.179   3.050   6.267  0.1779 -0.7518  0.3103
  381MOL    F2146381   6.138   2.984   6.162 -0.0989  1.0311 -0.6484
  381MOL    F2246382   6.305   3.037   6.276  0.0347 -0.2424 -0.0465
  381MOL    C2346383   6.122   2.978   6.388 -0.0845  0.3576 -0.3980
  381MOL    H2446384   6.018   3.002   6.411  0.9344  4.0083  0.7590
  381MOL    H2546385   6.169   3.025   6.474 -1.0331  0.5295  0.0321
  381MOL    C2646386   6.135   2.822   6.390 -0.0388  0.2489  0.2129
  381MOL    F2746387   6.061   2.784   6.287 -0.4337  0.0720 -0.8155
  381MOL    F2846388   6.262   2.800   6.362 -0.0893 -0.0980  0.3375
  381MOL    C2946389   6.104   2.752   6.521 -0.3708 -0.4560 -0.6390
  381MOL    H3046390   6.000   2.768   6.549  0.4559  2.4977  0.9816
  381MOL    H3146391   6.163   2.794   6.603 -0.0372  0.8051 -1.5170
  381MOL    C3246392   6.113   2.604   6.522 -0.1144  0.1687  0.3663
  381MOL    F3346393   6.240   2.562   6.508  0.3468  0.3459  0.2541
  381MOL    F3446394   6.065   2.551   6.633  0.2217  0.5018  0.1829
  381MOL    C3546395   6.038   2.521   6.416  0.3679 -0.6624 -0.0647
  381MOL    H3646396   6.068   2.417   6.428  1.0456 -0.1970  2.6466
  381MOL    H3746397   6.079   2.550   6.319  1.6910 -0.3114  0.5790
  381MOL    C3846398   5.885   2.532   6.413 -0.2532 -0.3682 -0.1199
  381MOL    F3946399   5.830   2.481   6.528 -0.1243  0.0417  0.2074
  381MOL    F4046400   5.844   2.661   6.407 -0.1694  0.1546 -0.1170
  381MOL    C4146401   5.832   2.447   6.287  0.5370 -0.0656  0.5627
  381MOL    H4246402   5.881   2.349   6.291  0.5499 -0.1254 -0.7590
  381MOL    H4346403   5.867   2.484   6.191  0.9392 -2.2169 -0.1460
  381MOL    C4446404   5.678   2.416   6.279  0.4080 -0.3365 -0.1524
  381MOL    F4546405   5.655   2.298   6.342  0.6562 -0.0475  0.1160
  381MOL    F4646406   5.606   2.514   6.336 -0.0744  0.5772 -0.0357
  381MOL    C4746407   5.622   2.401   6.135  0.0478 -0.4946 -0.5481
  381MOL    H4846408   5.517   2.372   6.147 -0.1779 -0.2050 -1.7612
  381MOL    H4946409   5.670   2.310   6.100 -1.4251 -1.2583 -0.6170
  381MOL    C5046410   5.605   2.519   6.040  0.0232  0.1201 -0.4933
  381MOL    F5146411   5.498   2.497   5.966  0.1695  0.1278  0.1278
  381MOL    F5246412   5.585   2.635   6.102 -0.0890  0.1167  0.7130
  381MOL    C5346413   5.730   2.526   5.949 -0.3260 -0.0803  0.4327
  381MOL    H5446414   5.730   2.430   5.898 -2.6727 -0.1647  0.5289
  381MOL    H5546415   5.823   2.534   6.005  0.7060 -1.9140 -0.9704
  381MOL    C5646416   5.721   2.625   5.830 -0.6514  0.9614 -0.1180
  381MOL    F5746417   5.633   2.589   5.738 -0.0687  0.0066 -0.1989
  381MOL    F5846418   5.682   2.742   5.874  0.4779 -0.4359 -0.0936
  381MOL    C5946419   5.859   2.640   5.753  0.2070 -0.1209 -0.9523
  381MOL    H6046420   5.861   2.716   5.674  2.0714 -1.8620 -2.6413
  381MOL    H6146421   5.878   2.541   5.712  0.3874 -1.2463  1.7653
  381MOL    C6246422   5.986   2.670   5.835 -0.9058  0.2836  0.4534
  381MOL    F6346423   5.955   2.748   5.934 -0.0952 -0.3117 -0.0113
  381MOL    F6446424   6.038   2.558   5.884  0.3600  0.1222 -0.3827
  381MOL    C6546425   6.095   2.727   5.745 -0.3616 -0.0708  0.1015
  381MOL    H6646426   6.059   2.821   5.703 -0.9340 -0.1074  0.5107
  381MOL    H6746427   6.116   2.657   5.664  0.2474 -0.0777  0.2639
  381MOL    C6846428   6.235   2.761   5.803  0.0041  0.4554 -0.3796
  381MOL    F6946429   6.304   2.818   5.706  0.5387 -0.2533 -0.3872
  381MOL    F7046430   6.212   2.851   5.892 -0.1329 -0.1331 -0.3051
  381MOL    C7146431   6.313   2.651   5.862  0.3470  0.0090  0.5166
  381MOL    H7246432   6.325   2.575   5.785  1.0299  0.0102  0.6198
  381MOL    H7346433   6.269   2.604   5.950  0.1372  0.5275  0.6890
  381MOL    C7446434   6.458   2.690   5.899  0.6730 -0.4876  0.5442
  381MOL    F7546435   6.525   2.585   5.943 -0.6922 -0.4760  0.4910
  381MOL    F7646436   6.527   2.724   5.785 -0.1609  0.6494 -0.6383
  381MOL    C7746437   6.476   2.797   6.010 -0.1562  0.1340  0.3619
  381MOL    H7846438   6.436   2.755   6.102 -2.6291  0.1205 -0.6894
  381MOL    H7946439   6.412   2.884   5.996  0.8512  0.4735 -2.5594
  381MOL    C8046440   6.626   2.844   6.027  0.3513  0.0723  0.0458
  381MOL    F8146441   6.675   2.889   5.911 -0.1753  0.0313 -0.5026
  381MOL    F8246442   6.616   2.942   6.111 -0.3623 -0.0961 -0.8559
  381MOL    C8346443   6.719   2.738   6.080 -0.2846 -0.1590 -0.2967
  381MOL    H8446444   6.731   2.665   6.000  1.0722  0.9472 -1.1432
  381MOL    H8546445   6.669   2.689   6.164 -1.0936  0.2220 -0.5511
  381MOL    C8646446   6.862   2.798   6.113  0.0058  0.5699  0.9025
  381MOL    F8746447   6.852   2.849   6.233 -0.3853  0.5188  0.7463
  381MOL    F8846448   6.939   2.689   6.129 -0.0736  0.8759 -0.1104
  381MOL    C8946449   6.914   2.910   6.021 -0.2989  0.0205  0.0963
  381MOL    H9046450   6.862   3.005   6.036 -1.3171 -0.6600  0.9550
  381MOL    H9146451   6.913   2.881   5.916 -1.4505  1.9763 -0.4602
  381MOL    C9246452   7.063   2.949   6.045 -0.3677  0.2865 -0.2521
  381MOL    F9346453   7.125   2.827   6.042  0.4922  0.2512 -0.2878
  381MOL    F9446454   7.105   3.023   5.944  0.3154 -0.0292 -0.2933
  381MOL    C9546455   7.090   3.020   6.180  0.4581  0.3863 -0.5534
  381MOL    H9646456   7.197   3.034   6.198  0.4158  0.5231 -0.3952
  381MOL    H9746457   7.062   2.958   6.265  1.0130 -0.9048 -1.2989
  381MOL    C9846458   7.029   3.160   6.204 -0.2374 -0.0415  0.0790
  381MOL    F9946459   6.899   3.145   6.226  0.6604  0.5739 -0.5526
  381MOL   F10046460   7.079   3.213   6.309 -0.3374 -0.0051  0.1213
  381MOL   C10146461   7.033   3.260   6.092 -0.0220 -0.0666  0.0836
  381MOL   H10246462   6.990   3.216   6.002 -2.0182 -1.0441  1.4895
  381MOL   H10346463   7.136   3.288   6.069 -0.0960 -0.6008 -0.9304
  381MOL   C10446464   6.963   3.392   6.104  0.4413 -0.1303  0.2824
  381MOL   F10546465   6.834   3.370   6.101  0.8202  0.1315 -0.4883
  381MOL   F10646466   7.002   3.456   6.215 -0.1477  0.0591 -0.0794
  381MOL   C10746467   7.002   3.484   5.989  0.2395 -0.3446 -0.0178
  381MOL   H10846468   7.107   3.511   6.001  0.1121  0.9432 -1.6282
  381MOL   H10946469   6.947   3.578   5.998 -0.5960 -0.7864 -0.5514
  381MOL   C11046470   6.975   3.434   5.847 -0.4714  0.0597  1.2288
  381MOL   F11146471   7.035   3.322   5.808 -0.2780 -0.0233 -0.8295
  381MOL   F11246472   6.850   3.397   5.836  0.6530  0.4281 -0.0321
  381MOL   C11346473   6.999   3.545   5.748 -0.3876  0.6549 -0.9067
  381MOL   H11446474   6.920   3.616   5.771 -0.9219  0.0238 -0.7469
  381MOL   H11546475   6.965   3.519   5.648  1.8932  2.1731 -2.1150
  381MOL   C11646476   7.140   3.592   5.742 -0.1808 -0.6850 -0.7276
  381MOL   F11746477   7.172   3.663   5.853  0.2061  0.6784  0.3316
  381MOL   F11846478   7.220   3.493   5.734  0.5829  0.8555 -0.4056
  381MOL   C11946479   7.156   3.690   5.619 -0.5174 -0.2445 -0.0699
  381MOL   H12046480   7.252   3.740   5.615 -0.6098 -0.1586 -1.5206
  381MOL   H12146481   7.079   3.767   5.619 -1.2396 -0.9390 -1.1276
  381MOL   H12246482   7.149   3.626   5.531 -0.3660  0.3461 -0.5120
  382MOL     C146483   6.260   1.089   6.420 -0.0668 -0.5081 -0.0575
  382MOL     F246484   6.312   1.198   6.354  0.0883  0.3973 -0.0332
  382MOL     F346485   6.237   1.130   6.545 -0.4281 -0.1471 -0.1691
  382MOL     C446486   6.366   0.975   6.429 -0.1908  0.3911 -0.3614
  382MOL     H546487   6.449   0.996   6.495  0.1591  0.3378 -0.7825
  382MOL     H646488   6.403   0.938   6.333  2.6558  0.9371  0.4909
  382MOL     H746489   6.168   1.072   6.363 -0.0790  0.7496 -0.4290
  382MOL     C846490   6.311   0.843   6.494 -0.9133  0.3385 -0.4629
  382MOL     F946491   6.416   0.759   6.496 -0.7673  0.1415 -0.0899
  382MOL    F1046492   6.276   0.873   6.621 -0.6129  0.6958 -0.2500
  382MOL    C1146493   6.195   0.778   6.424 -0.6436  0.3916  0.5659
  382MOL    H1246494   6.100   0.831   6.430 -0.8874  0.0779 -0.4498
  382MOL    H1346495   6.170   0.699   6.495 -1.6791  0.1488 -0.0558
  382MOL    C1446496   6.224   0.725   6.281  0.0637  0.8184  0.0792
  382MOL    F1546497   6.246   0.825   6.195  0.7109 -0.4797  0.2615
  382MOL    F1646498   6.335   0.645   6.290  0.1474 -0.1256  1.0593
  382MOL    C1746499   6.101   0.642   6.226 -0.3727  0.3429  0.1995
  382MOL    H1846500   6.118   0.614   6.122  1.1137  1.4512  0.1242
  382MOL    H1946501   6.017   0.707   6.201  0.4087  1.0414 -0.6834
  382MOL    C2046502   6.060   0.518   6.307 -0.2678  0.8709  0.0070
  382MOL    F2146503   6.170   0.446   6.348  0.0894  0.3406  0.0033
  382MOL    F2246504   5.995   0.565   6.413 -0.4592  0.1533  0.3071
  382MOL    C2346505   5.977   0.417   6.221 -0.2436 -0.5343  0.1145
  382MOL    H2446506   5.952   0.335   6.288  1.1425  0.3227  1.7102
  382MOL    H2546507   6.043   0.369   6.149 -1.3270  1.5688 -2.3652
  382MOL    C2646508   5.845   0.480   6.167 -0.2305 -0.2683  0.1414
  382MOL    F2746509   5.784   0.553   6.259 -0.2036  0.0824  0.1315
  382MOL    F2846510   5.863   0.562   6.062 -0.0312  0.0916  0.2188
  382MOL    C2946511   5.735   0.373   6.135 -0.0315 -0.1797  0.2140
  382MOL    H3046512   5.714   0.321   6.229 -2.8889 -1.3587 -0.9975
  382MOL    H3146513   5.766   0.302   6.058  0.8819  0.7334 -0.2580
  382MOL    C3246514   5.594   0.435   6.102  0.4971 -0.4450 -0.4940
  382MOL    F3346515   5.510   0.337   6.074  0.2341 -0.4491 -0.0851
  382MOL    F3446516   5.539   0.508   6.203 -0.4095  0.1761 -0.5094
  382MOL    C3546517   5.575   0.532   5.983 -0.0133  0.2489 -0.1598
  382MOL    H3646518   5.627   0.627   5.998 -0.0262  0.1059  0.8013
  382MOL    H3746519   5.468   0.552   5.981  0.4296  2.7225 -0.7650
  382MOL    C3846520   5.608   0.483   5.846  0.5236  0.2837 -0.1437
  382MOL    F3946521   5.733   0.438   5.854  0.2600  0.3040  0.1590
  382MOL    F4046522   5.525   0.380   5.833 -0.2681  0.2775 -0.2111
  382MOL    C4146523   5.585   0.587   5.733 -0.5718 -0.0297  0.1614
  382MOL    H4246524   5.485   0.630   5.736  0.5865  2.9907 -2.4853
  382MOL    H4346525   5.583   0.528   5.641  2.6349  0.4011 -0.2388
  382MOL    C4446526   5.689   0.695   5.725  0.0129 -0.5036 -0.2937
  382MOL    F4546527   5.700   0.759   5.839  0.4044  0.3250 -0.1643
  382MOL    F4646528   5.802   0.624   5.706 -0.0153 -0.1543  0.2043
  382MOL    C4746529   5.663   0.796   5.609  0.1093 -0.0222 -0.0563
  382MOL    H4846530   5.565   0.845   5.616  0.7699  1.1074  1.6512
  382MOL    H4946531   5.657   0.744   5.514 -0.3810  1.3448 -0.7773
  382MOL    C5046532   5.773   0.899   5.596  0.3801 -0.2190  0.2434
  382MOL    F5146533   5.808   0.943   5.718 -0.3924  0.3520  0.4130
  382MOL    F5246534   5.878   0.837   5.548  0.0576 -0.5419 -0.7339
  382MOL    C5346535   5.748   1.025   5.518  0.2880  0.7640 -0.2118
  382MOL    H5446536   5.835   1.089   5.533  1.1599 -0.5583  0.4040
  382MOL    H5546537   5.670   1.073   5.576  0.9339  0.1574  1.1606
  382MOL    C5646538   5.716   1.028   5.369 -0.0786 -0.2178 -0.3388
  382MOL    F5746539   5.599   0.967   5.361 -0.3931 -0.1592 -0.0411
  382MOL    F5846540   5.697   1.148   5.325  0.0864 -0.0946 -0.2894
  382MOL    C5946541   5.819   0.953   5.291  0.0512  0.5295 -0.3659
  382MOL    H6046542   5.796   0.849   5.314  0.0460  0.1226 -2.1099
  382MOL    H6146543   5.918   0.967   5.335  0.3323  0.4826 -0.9772
  382MOL    C6246544   5.824   0.976   5.137 -0.7747 -0.0841 -0.3668
  382MOL    F6346545   5.849   1.102   5.115  0.0054  0.2926  0.3353
  382MOL    F6446546   5.926   0.901   5.099 -0.0008 -0.2327  0.2978
  382MOL    C6546547   5.690   0.933   5.070 -0.4153  0.3422  0.1679
  382MOL    H6646548   5.608   0.996   5.103  1.1136  2.5266 -0.0812
  382MOL    H6746549   5.670   0.829   5.098 -4.5882  0.6368 -1.3545
  382MOL    C6846550   5.680   0.938   4.912 -0.0178  0.7610 -0.3793
  382MOL    F6946551   5.762   0.844   4.865 -0.0237  0.0403  0.0106
  382MOL    F7046552   5.554   0.893   4.876 -0.4984  0.8107 -0.2359
  382MOL    C7146553   5.717   1.065   4.838  0.0606  0.4170 -0.0002
  382MOL    H7246554   5.701   1.049   4.732 -1.9478  0.3951  0.2824
  382MOL    H7346555   5.824   1.078   4.853  0.1579 -0.1497 -0.1962
  382MOL    C7446556   5.642   1.191   4.882  0.6152  0.4794 -0.3085
  382MOL    F7546557   5.516   1.176   4.842  0.4642  0.0452 -0.3662
  382MOL    F7646558   5.655   1.206   5.014 -0.1107 -0.2883  0.2165
  382MOL    C7746559   5.700   1.324   4.830  0.3735  0.5472  0.2597
  382MOL    H7846560   5.796   1.320   4.880  0.4901 -0.6197 -0.0366
  382MOL    H7946561   5.639   1.401   4.877  1.1512  1.5503 -0.3716
  382MOL    C8046562   5.704   1.333   4.683  0.5524 -0.6339 -0.0446
  382MOL    F8146563   5.782   1.233   4.636  0.1562 -0.0934 -0.1040
  382MOL    F8246564   5.576   1.305   4.639 -0.0811  0.5595  0.1738
  382MOL    C8346565   5.757   1.468   4.622 -0.2553  0.0904  0.4404
  382MOL    H8446566   5.762   1.458   4.514  0.7162  0.1698  0.4709
  382MOL    H8546567   5.861   1.477   4.656 -0.7270  0.8129  1.7718
  382MOL    C8646568   5.683   1.600   4.652  0.2452 -0.2386 -0.7272
  382MOL    F8746569   5.551   1.589   4.624  0.2752 -0.5296  0.0856
  382MOL    F8846570   5.677   1.626   4.787 -0.7033  0.7098 -0.3339
  382MOL    C8946571   5.726   1.729   4.595 -0.6123 -0.0441  0.1035
  382MOL    H9046572   5.831   1.739   4.622 -0.3471 -0.2087 -0.8373
  382MOL    H9146573   5.673   1.810   4.645  1.6279  0.4083  1.8194
  382MOL    C9246574   5.713   1.725   4.436  0.3052 -0.8659 -0.2041
  382MOL    F9346575   5.793   1.630   4.387 -0.4223  0.0779  0.1875
  382MOL    F9446576   5.589   1.710   4.397 -0.1714  0.2082  0.2072
  382MOL    C9546577   5.774   1.854   4.381 -0.1055 -0.3172  0.4179
  382MOL    H9646578   5.880   1.858   4.407  0.4777 -0.9598 -1.7887
  382MOL    H9746579   5.726   1.940   4.429  0.9965  0.5017  0.0770
  382MOL    C9846580   5.762   1.875   4.224  0.3086 -0.0668  0.1687
  382MOL    F9946581   5.802   1.766   4.156 -0.3134 -0.6851  0.0922
  382MOL   F10046582   5.633   1.894   4.192  1.1644  0.2644 -0.1900
  382MOL   C10146583   5.848   1.994   4.181 -0.5436 -0.3767  0.8346
  382MOL   H10246584   5.853   2.005   4.072  4.2004  0.3354  1.0104
  382MOL   H10346585   5.950   1.980   4.217 -0.4332 -0.1973  0.5963
  382MOL   C10446586   5.804   2.133   4.237 -0.1484 -0.1219 -0.5563
  382MOL   F10546587   5.824   2.148   4.359  0.2135 -0.6200  0.7214
  382MOL   F10646588   5.895   2.211   4.179 -0.2736 -0.3250 -0.1340
  382MOL   C10746589   5.660   2.166   4.201 -0.5420  0.0831  0.0592
  382MOL   H10846590   5.593   2.106   4.263 -0.4271  1.6156  1.6979
  382MOL   H10946591   5.656   2.143   4.094  0.8829  3.2151 -0.7131
  382MOL   C11046592   5.617   2.314   4.205 -0.1533  0.7805  0.6259
  382MOL   F11146593   5.699   2.396   4.135  0.5557 -0.0519  0.7676
  382MOL   F11246594   5.494   2.319   4.153  0.0398 -0.5047 -0.1742
  382MOL   C11346595   5.608   2.373   4.348  0.2392 -0.7357  0.0534
  382MOL   H11446596   5.706   2.366   4.395 -0.2456  1.5436  1.4804
  382MOL   H11546597   5.542   2.308   4.405 -0.8762 -2.2118 -2.8486
  382MOL   C11646598   5.557   2.524   4.356 -0.1267 -0.0922 -0.2673
  382MOL   F11746599   5.645   2.599   4.285 -0.3330  0.3737 -0.1770
  382MOL   F11846600   5.434   2.544   4.296  0.1926 -0.3257 -0.3992
  382MOL   C11946601   5.546   2.576   4.496  0.1818 -0.0052 -0.8404
  382MOL   H12046602   5.509   2.679   4.489  1.6970  0.6439  0.4021
  382MOL   H12146603   5.637   2.566   4.556  0.7963 -0.9622 -1.9147
  382MOL   H12246604   5.472   2.521   4.554 -1.6581  2.6646 -0.5721
  383MOL     C146605   2.764   5.389   1.298  0.3392 -0.0557 -0.0528
  383MOL     F246606   2.650   5.447   1.317  0.2164  0.7434 -0.0565
  383MOL     F346607   2.749   5.260   1.327  0.2242  0.0124 -0.3101
  383MOL     C446608   2.871   5.447   1.393 -0.2892  0.2023  0.0108
  383MOL     H546609   2.956   5.380   1.395 -1.5783 -1.4631 -0.4087
  383MOL     H646610   2.822   5.456   1.491 -1.2798  0.9832 -0.5460
  383MOL     H746611   2.807   5.404   1.199 -2.7344  0.2975 -1.3867
  383MOL     C846612   2.918   5.587   1.352  0.2812  0.0243  0.0200
  383MOL     F946613   2.972   5.578   1.236  0.6855  0.4641  0.5656
  383MOL    F1046614   2.818   5.670   1.336  0.0839  0.1835 -0.0857
  383MOL    C1146615   3.015   5.648   1.447 -0.5942  0.0877 -0.0208
  383MOL    H1246616   3.067   5.560   1.486  1.0377  1.1611  0.2729
  383MOL    H1346617   2.964   5.702   1.526  1.8075 -2.7518  3.6545
  383MOL    C1446618   3.118   5.749   1.397  0.1743 -0.2675 -0.2084
  383MOL    F1546619   3.180   5.801   1.503 -0.1622 -0.2802  0.0808
  383MOL    F1646620   3.206   5.689   1.316 -0.0955  0.4572  0.2093
  383MOL    C1746621   3.052   5.873   1.323 -0.4617  0.7252  0.0994
  383MOL    H1846622   2.996   5.838   1.236 -0.7513  0.2031  0.4994
  383MOL    H1946623   3.139   5.921   1.278 -1.9663  2.2621 -1.2290
  383MOL    C2046624   2.965   5.974   1.407 -0.3332 -0.0651  0.5315
  383MOL    F2146625   2.871   5.904   1.467  0.3699 -0.0771 -0.7436
  383MOL    F2246626   3.046   6.018   1.498 -0.3825 -0.4072 -0.3040
  383MOL    C2346627   2.912   6.082   1.320 -0.1851  0.2294 -0.1325
  383MOL    H2446628   2.847   6.039   1.243 -2.0564  1.5646  0.6501
  383MOL    H2546629   3.000   6.109   1.261  1.6057 -3.1010  0.9054
  383MOL    C2646630   2.837   6.193   1.395 -0.3200  0.3073 -0.0039
  383MOL    F2746631   2.749   6.137   1.479  0.1013  0.2000  0.0300
  383MOL    F2846632   2.943   6.255   1.460  0.2432  0.1751 -0.7554
  383MOL    C2946633   2.779   6.302   1.303  0.4691  0.4936  0.4253
  383MOL    H3046634   2.718   6.375   1.355 -1.4508 -0.8601  0.1515
  383MOL    H3146635   2.710   6.246   1.239  1.1501 -1.4086  1.3061
  383MOL    C3246636   2.877   6.368   1.210  0.1970  0.2368 -0.8478
  383MOL    F3346637   2.956   6.442   1.297  0.1287  0.0039 -0.0138
  383MOL    F3446638   2.951   6.287   1.142 -0.7882  0.3410 -0.0637
  383MOL    C3546639   2.833   6.465   1.096  0.4279 -0.6189  0.7330
  383MOL    H3646640   2.814   6.405   1.006 -0.8223 -0.3227  0.7860
  383MOL    H3746641   2.915   6.532   1.071  0.4955 -1.5179 -1.6150
  383MOL    C3846642   2.712   6.556   1.135 -0.7476  0.1444  0.5586
  383MOL    F3946643   2.599   6.483   1.131 -0.2422 -0.0617  0.1149
  383MOL    F4046644   2.741   6.618   1.248  0.0615  0.5557 -0.3929
  383MOL    C4146645   2.695   6.672   1.029  0.0434 -1.1398  0.2991
  383MOL    H4246646   2.698   6.622   0.932  1.0239 -1.9813  0.7469
  383MOL    H4346647   2.785   6.733   1.035  0.2769 -1.5264  0.8151
  383MOL    C4446648   2.569   6.762   1.040  0.7027 -0.6071 -0.3740
  383MOL    F4546649   2.563   6.809   1.169 -0.3801 -0.1452 -0.2067
  383MOL    F4646650   2.591   6.867   0.958 -0.2735 -0.0880 -0.4174
  383MOL    C4746651   2.438   6.687   1.014  0.0099  0.1108  0.1755
  383MOL    H4846652   2.414   6.622   1.098 -0.2424 -1.0715 -0.7977
  383MOL    H4946653   2.455   6.631   0.922 -3.7050 -1.0963  0.1303
  383MOL    C5046654   2.312   6.772   0.991  1.0421 -0.1468  0.5260
  383MOL    F5146655   2.261   6.837   1.100 -0.0311  0.0648  0.6317
  383MOL    F5246656   2.336   6.853   0.890  0.1943  0.1041 -0.5062
  383MOL    C5346657   2.197   6.676   0.944  0.3987  0.1124  0.3950
  383MOL    H5446658   2.169   6.622   1.034 -0.2019  2.0398  1.3758
  383MOL    H5546659   2.232   6.600   0.874 -1.6531 -1.3805  0.9513
  383MOL    C5646660   2.077   6.740   0.877  0.1375 -0.5340  0.1156
  383MOL    F5746661   2.023   6.836   0.951 -0.0710  0.5479 -0.3398
  383MOL    F5846662   2.121   6.787   0.759  0.7174  0.3326 -0.1515
  383MOL    C5946663   1.963   6.631   0.845 -0.0912  0.2424 -0.5558
  383MOL    H6046664   1.925   6.601   0.943  1.1015  1.3600  0.2551
  383MOL    H6146665   1.992   6.531   0.812  0.5435  0.2810 -0.1204
  383MOL    C6246666   1.828   6.672   0.774 -0.6624 -0.3901 -0.2365
  383MOL    F6346667   1.770   6.776   0.841  0.2844  0.2508 -0.9631
  383MOL    F6446668   1.864   6.718   0.655 -0.7012 -0.5057  0.4193
  383MOL    C6546669   1.728   6.557   0.736 -0.4572  0.5325 -0.2366
  383MOL    H6646670   1.790   6.478   0.694 -0.1021  0.7203 -0.0669
  383MOL    H6746671   1.660   6.596   0.660 -0.9649  1.6734  0.7822
  383MOL    C6846672   1.670   6.487   0.856 -0.6821  0.4494  0.5159
  383MOL    F6946673   1.770   6.431   0.924  0.1599 -0.7696 -0.3225
  383MOL    F7046674   1.626   6.586   0.932 -1.0314  0.0839 -0.0868
  383MOL    C7146675   1.554   6.398   0.811 -0.2413 -0.5670  0.9652
  383MOL    H7246676   1.587   6.325   0.737 -2.7840  0.2523 -1.0564
  383MOL    H7346677   1.488   6.453   0.744  0.7120  1.1643  1.4111
  383MOL    C7446678   1.458   6.340   0.913 -0.5763  0.3287  0.3419
  383MOL    F7546679   1.361   6.430   0.949  0.0615 -0.3662  0.0713
  383MOL    F7646680   1.405   6.232   0.856  0.0703  0.5351  0.3108
  383MOL    C7746681   1.532   6.291   1.036  0.3222  0.2858 -0.2448
  383MOL    H7846682   1.574   6.374   1.093 -2.5374  0.6156  1.4802
  383MOL    H7946683   1.622   6.241   1.000 -0.0904 -1.0118  0.5034
  383MOL    C8046684   1.454   6.214   1.136  0.1438 -0.0413  0.7418
  383MOL    F8146685   1.355   6.297   1.176 -0.5896  0.0684  0.0756
  383MOL    F8246686   1.392   6.110   1.087  0.0701  0.1629 -0.0933
  383MOL    C8346687   1.519   6.181   1.273 -0.5372 -0.6104  0.6106
  383MOL    H8446688   1.453   6.122   1.336  0.5780 -1.3723  1.0912
  383MOL    H8546689   1.557   6.267   1.329  1.6858 -0.0937 -1.5924
  383MOL    C8646690   1.647   6.093   1.274  0.1418  0.0599  0.0011
  383MOL    F8746691   1.630   5.966   1.239 -0.0573 -0.0791  0.7262
  383MOL    F8846692   1.736   6.146   1.188 -0.3336  0.7431  0.4645
  383MOL    C8946693   1.719   6.098   1.413  0.2950  0.1307 -0.1736
  383MOL    H9046694   1.664   6.042   1.489 -0.8144 -1.0744 -1.8261
  383MOL    H9146695   1.734   6.200   1.446  1.5799 -0.2508  0.4526
  383MOL    C9246696   1.864   6.040   1.408 -0.1075  0.1727 -0.1622
  383MOL    F9346697   1.944   6.122   1.338 -0.5189 -0.0158  0.1002
  383MOL    F9446698   1.912   6.037   1.537 -0.2851  0.2905 -0.1692
  383MOL    C9546699   1.898   5.908   1.339  0.0551  1.1223 -0.1036
  383MOL    H9646700   2.006   5.903   1.326 -0.0087  1.9844 -0.9960
  383MOL    H9746701   1.854   5.906   1.239  0.0349 -0.1206 -0.0761
  383MOL    C9846702   1.853   5.779   1.417 -0.2800  0.0671 -0.2940
  383MOL    F9946703   1.927   5.752   1.523 -0.1878 -0.6155  0.2797
  383MOL   F10046704   1.731   5.808   1.460 -0.1622  0.6676  0.3673
  383MOL   C10146705   1.845   5.647   1.326 -0.5233  0.1188 -0.5287
  383MOL   H10246706   1.941   5.614   1.286 -0.4447 -0.7047  0.3262
  383MOL   H10346707   1.795   5.684   1.236 -0.5744 -2.1676 -1.4714
  383MOL   C10446708   1.750   5.544   1.396 -0.8639  0.4253 -0.6096
  383MOL   F10546709   1.780   5.505   1.522  0.4287  0.6972 -0.2464
  383MOL   F10646710   1.626   5.595   1.399 -0.1288  0.4385 -0.1899
  383MOL   C10746711   1.721   5.416   1.314 -0.2332  0.0984  0.0083
  383MOL   H10846712   1.812   5.370   1.276 -1.5828 -2.2504 -0.4409
  383MOL   H10946713   1.675   5.453   1.223  0.6731  0.9674 -0.1042
  383MOL   C11046714   1.625   5.306   1.371 -0.4006  0.4721 -0.4686
  383MOL   F11146715   1.676   5.250   1.479 -0.0052  0.1071 -0.1611
  383MOL   F11246716   1.513   5.351   1.407  0.2556  0.3584 -0.1816
  383MOL   C11346717   1.601   5.185   1.274 -0.0626 -0.2879  0.2156
  383MOL   H11446718   1.544   5.219   1.188  1.5881 -1.9940 -1.6045
  383MOL   H11546719   1.544   5.110   1.329 -1.6909  0.9076  0.2239
  383MOL   C11646720   1.722   5.108   1.225 -0.1695 -0.2532  0.0192
  383MOL   F11746721   1.792   5.183   1.141  0.1374 -0.0636  0.2138
  383MOL   F11846722   1.797   5.086   1.332  0.5385  0.2516 -0.6196
  383MOL   C11946723   1.702   4.979   1.151  0.0659 -0.1100  0.9844
  383MOL   H12046724   1.648   5.001   1.059 -0.3807  2.7482  1.8721
  383MOL   H12146725   1.632   4.912   1.201  0.5554 -1.1952  0.2280
  383MOL   H12246726   1.788   4.917   1.125 -0.8422 -1.9400  2.2213
  384MOL     C146727   7.712   4.499   1.185 -0.6159  0.8591 -0.0639
  384MOL     F246728   7.682   4.430   1.293  0.1448 -0.3806  0.2325
  384MOL     F346729   7.768   4.421   1.094  0.2733 -0.2537  0.0959
  384MOL     C446730   7.802   4.609   1.232  0.0034  0.6694 -0.6943
  384MOL     H546731   7.876   4.621   1.154  0.9392  1.8955  0.3606
  384MOL     H646732   7.860   4.583   1.321  0.4237  0.4631 -1.0278
  384MOL     H746733   7.616   4.534   1.145  0.2065  2.0815 -1.0104
  384MOL     C846734   7.728   4.743   1.253 -0.3678  0.2285 -0.4029
  384MOL     F946735   7.682   4.792   1.139  0.4959  0.5965 -0.5111
  384MOL    F1046736   7.615   4.719   1.332  0.2197 -0.5589 -0.1441
  384MOL    C1146737   7.819   4.850   1.321  0.5307  0.4300 -0.2618
  384MOL    H1246738   7.907   4.853   1.256  0.6066  1.3830 -0.1149
  384MOL    H1346739   7.849   4.798   1.412 -1.2709  0.3090  0.2737
  384MOL    C1446740   7.765   4.992   1.348 -0.1397  0.4464 -0.7655
  384MOL    F1546741   7.754   5.053   1.230 -0.0465 -0.0396  0.0085
  384MOL    F1646742   7.645   4.965   1.396  0.5191 -0.4186 -0.0737
  384MOL    C1746743   7.854   5.074   1.443 -0.3832  0.3399 -0.1756
  384MOL    H1846744   7.951   5.065   1.395 -0.6848 -1.5826 -0.4816
  384MOL    H1946745   7.858   5.017   1.536  0.5959  3.2508  1.6473
  384MOL    C2046746   7.818   5.233   1.444 -1.2849 -0.6015  0.1093
  384MOL    F2146747   7.833   5.282   1.323  0.0699  0.6149 -0.2547
  384MOL    F2246748   7.693   5.235   1.479 -0.1370  0.4982  0.5817
  384MOL    C2346749   7.895   5.328   1.539  0.5571  0.1757  0.0895
  384MOL    H2446750   7.864   5.433   1.547  0.1600  0.1835 -1.4493
  384MOL    H2546751   7.998   5.333   1.505  1.1536  1.2626  1.9669
  384MOL    C2646752   7.896   5.279   1.691 -0.2500 -0.2065  0.1192
  384MOL    F2746753   7.770   5.263   1.728 -0.1119  0.3329 -0.2427
  384MOL    F2846754   7.955   5.163   1.689 -0.2101 -0.1198 -0.3564
  384MOL    C2946755   7.963   5.365   1.796 -0.3633  0.7457  0.6361
  384MOL    H3046756   7.940   5.319   1.892 -1.2018  0.3585  0.2527
  384MOL    H3146757   7.919   5.464   1.802  1.3486  1.5128  1.0625
  384MOL    C3246758   8.115   5.396   1.788 -0.6289  0.2724 -0.3165
  384MOL    F3346759   8.173   5.280   1.769 -0.3028  0.1181 -0.0480
  384MOL    F3446760   8.133   5.469   1.681  1.1570 -0.0207 -0.2024
  384MOL    C3546761   8.176   5.475   1.901  0.1207 -0.2280 -0.3656
  384MOL    H3646762   8.168   5.411   1.989  1.5980 -0.2225 -0.2182
  384MOL    H3746763   8.112   5.562   1.918  1.5612  0.9031 -0.6174
  384MOL    C3846764   8.325   5.514   1.879  0.1875  0.1006  0.4307
  384MOL    F3946765   0.048   5.404   1.878 -0.1728 -0.4105  0.6906
  384MOL    F4046766   8.348   5.564   1.761 -0.1718 -0.2360 -0.2554
  384MOL    C4146767   0.023   5.614   1.985 -0.2366 -0.1220  0.4345
  384MOL    H4246768   0.027   5.581   2.088  2.8306 -1.1886  0.0419
  384MOL    H4346769   8.309   5.702   1.977 -0.2623 -0.0235  1.6664
  384MOL    C4446770   0.167   5.664   1.958  0.2709 -0.4148 -0.1103
  384MOL    F4546771   0.242   5.558   1.986  0.2317  0.2512 -0.0613
  384MOL    F4646772   0.188   5.713   1.836 -0.0397 -0.3511  0.0298
  384MOL    C4746773   0.212   5.789   2.037  0.8563 -0.0247 -0.7648
  384MOL    H4846774   0.131   5.861   2.025 -0.8100 -1.5863  0.7854
  384MOL    H4946775   0.305   5.830   1.997  0.9318  0.3989 -0.1745
  384MOL    C5046776   0.241   5.764   2.190  0.0912 -0.4538 -0.2304
  384MOL    F5146777   0.254   5.889   2.235  0.2337  0.8012 -0.0355
  384MOL    F5246778   0.131   5.731   2.249 -0.5200 -0.4229  0.0388
  384MOL    C5346779   0.348   5.662   2.228  0.1085 -0.8603 -0.8259
  384MOL    H5446780   0.323   5.565   2.184  3.5151 -1.8633 -0.7453
  384MOL    H5546781   0.336   5.649   2.335  0.7332 -0.1776 -0.6710
  384MOL    C5646782   0.494   5.700   2.193  0.0509  0.4564  0.1473
  384MOL    F5746783   0.508   5.832   2.171 -0.0164 -0.5459 -0.3937
  384MOL    F5846784   0.564   5.670   2.301 -0.2332  0.3971  0.1010
  384MOL    C5946785   0.548   5.627   2.067 -0.5440 -0.2880 -0.3518
  384MOL    H6046786   0.474   5.644   1.989 -1.8083  0.9835  1.0949
  384MOL    H6146787   0.559   5.521   2.088 -0.2658 -0.0055  1.0041
  384MOL    C6246788   0.686   5.674   2.018  0.5018  0.3481  0.1479
  384MOL    F6346789   0.676   5.805   1.979 -0.1045  0.1410 -0.0536
  384MOL    F6446790   0.783   5.668   2.112  0.5395 -0.1168 -0.1735
  384MOL    C6546791   0.716   5.596   1.886  0.3194 -0.5688  0.7247
  384MOL    H6646792   0.648   5.626   1.806  0.4372  1.5130  1.4017
  384MOL    H6746793   0.701   5.490   1.906  0.5861 -0.7678 -0.0784
  384MOL    C6846794   0.861   5.617   1.827 -0.9752 -0.6482  0.1904
  384MOL    F6946795   0.938   5.573   1.922 -0.5203 -0.2995  0.6378
  384MOL    F7046796   0.864   5.525   1.724  0.1895  0.0680  0.4027
  384MOL    C7146797   0.912   5.753   1.777 -0.6966 -0.1530  0.9448
  384MOL    H7246798   1.017   5.740   1.753 -0.9375  0.5614 -0.5202
  384MOL    H7346799   0.917   5.826   1.857  0.2568 -1.0334  1.6973
  384MOL    C7446800   0.831   5.816   1.660  0.0493 -0.2758 -0.1855
  384MOL    F7546801   0.822   5.735   1.554  0.4731  0.5464  0.0533
  384MOL    F7646802   0.702   5.834   1.692 -0.3517 -0.5754  0.3295
  384MOL    C7746803   0.888   5.949   1.609 -0.0503  0.6165 -0.2847
  384MOL    H7846804   0.836   5.985   1.521 -0.3322  1.4913  0.2364
  384MOL    H7946805   0.986   5.910   1.580 -1.0200 -1.8834 -0.3241
  384MOL    C8046806   0.905   6.066   1.710  0.5516 -0.9863 -0.5257
  384MOL    F8146807   1.001   6.035   1.803 -0.2550  0.4864  0.0937
  384MOL    F8246808   0.948   6.167   1.635  0.2441  0.2026  0.2318
  384MOL    C8346809   0.767   6.108   1.782  0.0154 -0.0868  0.4709
  384MOL    H8446810   0.744   6.032   1.856 -0.7192 -0.0876  0.2419
  384MOL    H8546811   0.690   6.091   1.706  1.7655 -0.2851 -1.3219
  384MOL    C8646812   0.775   6.247   1.840  0.7438  0.3749 -0.8312
  384MOL    F8746813   0.864   6.248   1.937 -0.1186  0.4067 -0.3447
  384MOL    F8846814   0.812   6.327   1.749  0.2942 -0.3058 -0.0797
  384MOL    C8946815   0.644   6.315   1.894 -0.7743 -0.3925  0.3793
  384MOL    H9046816   0.582   6.317   1.804  0.1649  1.8651 -0.2668
  384MOL    H9146817   0.668   6.417   1.925  1.5044 -0.7566 -0.0436
  384MOL    C9246818   0.570   6.245   2.005  0.4267 -0.2377 -0.2657
  384MOL    F9346819   0.559   6.116   1.974 -0.9657 -0.3547  0.4952
  384MOL    F9446820   0.622   6.259   2.129 -0.1429  0.0996 -0.4591
  384MOL    C9546821   0.426   6.285   2.018  0.3934 -0.3604 -0.1929
  384MOL    H9646822   0.372   6.232   2.096 -1.3924  0.2875 -0.9653
  384MOL    H9746823   0.375   6.262   1.925  1.0792 -0.5964 -0.5155
  384MOL    C9846824   0.401   6.427   2.052  0.0701  0.3822 -0.2099
  384MOL    F9946825   0.436   6.499   1.947 -0.1468 -0.2484 -0.0629
  384MOL   F10046826   0.271   6.436   2.060 -0.0930  0.0416 -0.1186
  384MOL   C10146827   0.473   6.488   2.181 -0.0445 -0.1456 -0.1100
  384MOL   H10246828   0.575   6.494   2.143  0.3994 -1.7698  0.7612
  384MOL   H10346829   0.472   6.417   2.265 -0.0081  1.3926  1.2173
  384MOL   C10446830   0.414   6.626   2.231 -0.3889  0.4543 -0.4878
  384MOL   F10546831   0.420   6.715   2.129  0.2411 -0.5030  0.3471
  384MOL   F10646832   0.285   6.616   2.273  0.0815  0.3891  0.3178
  384MOL   C10746833   0.496   6.693   2.344 -1.0992  0.3249  0.3967
  384MOL   H10846834   0.459   6.795   2.351 -0.4246  0.4349  2.7850
  384MOL   H10946835   0.600   6.686   2.312 -1.4484 -1.0631 -0.4676
  384MOL   C11046836   0.496   6.620   2.475 -0.1523 -0.2553  0.3824
  384MOL   F11146837   0.367   6.579   2.503 -0.0694 -0.4507  0.5448
  384MOL   F11246838   0.560   6.503   2.475 -0.0870  0.3378  0.0818
  384MOL   C11346839   0.553   6.703   2.594  0.2456 -0.3736 -0.3626
  384MOL   H11446840   0.567   6.641   2.683 -2.6049  2.9304  2.5299
  384MOL   H11546841   0.488   6.782   2.631  0.6949 -1.4314  2.8263
  384MOL   C11646842   0.689   6.777   2.564 -0.2600  0.0225 -0.1750
  384MOL   F11746843   0.788   6.687   2.551 -0.0841 -0.6277 -0.2375
  384MOL   F11846844   0.695   6.859   2.457 -0.1655 -0.0576 -0.0790
  384MOL   C11946845   0.734   6.843   2.696 -0.1388 -0.5680 -0.3257
  384MOL   H12046846   0.743   6.778   2.783 -0.3676  2.1124  1.7628
  384MOL   H12146847   0.659   6.910   2.740  0.8892  0.0588  0.4919
  384MOL   H12246848   0.830   6.894   2.697 -0.2436 -0.3690 -0.6749
  385MOL     C146849   4.029   3.375   3.425  0.0623 -0.5199 -0.4435
  385MOL     F246850   4.003   3.293   3.529 -0.1499 -0.3074  0.0146
  385MOL     F346851   4.024   3.504   3.471  0.0059  0.0250 -0.0312
  385MOL     C446852   3.952   3.361   3.294 -1.2917  0.0745 -0.3858
  385MOL     H546853   3.849   3.389   3.316 -1.1930 -0.7416  1.2008
  385MOL     H646854   3.969   3.254   3.280 -0.2906  0.4630 -2.2247
  385MOL     H746855   4.136   3.363   3.403 -0.0175 -0.9074 -0.6313
  385MOL     C846856   4.014   3.445   3.179 -0.6569 -0.7231  0.2446
  385MOL     F946857   3.941   3.422   3.070  0.1959  0.5188  0.4813
  385MOL    F1046858   3.999   3.572   3.207  0.5284 -0.5065 -0.0258
  385MOL    C1146859   4.163   3.406   3.149 -0.3525 -0.3836  0.2990
  385MOL    H1246860   4.173   3.297   3.147  1.8624 -0.1870 -0.6592
  385MOL    H1346861   4.231   3.451   3.221 -1.3003 -0.2170  1.1107
  385MOL    C1446862   4.209   3.452   3.013  0.1129 -0.9199 -0.1312
  385MOL    F1546863   4.133   3.413   2.912 -0.5981 -0.4682 -0.2778
  385MOL    F1646864   4.207   3.589   3.023 -0.5269  0.1601  0.1040
  385MOL    C1746865   4.355   3.418   2.987  0.0980 -0.0979 -0.0347
  385MOL    H1846866   4.362   3.312   2.962 -2.2158 -0.0930 -0.8958
  385MOL    H1946867   4.414   3.435   3.076 -1.4970 -2.4349  1.5269
  385MOL    C2046868   4.415   3.487   2.862 -0.4966 -0.0707 -0.7799
  385MOL    F2146869   4.334   3.486   2.749  0.7165 -0.0750 -0.3442
  385MOL    F2246870   4.439   3.615   2.894 -0.3765  0.1396 -0.4401
  385MOL    C2346871   4.544   3.416   2.801  0.8269 -0.0040  0.1744
  385MOL    H2446872   4.580   3.487   2.726 -0.3849 -1.0473 -1.4271
  385MOL    H2546873   4.495   3.333   2.751 -2.2374  0.7563  1.8214
  385MOL    C2646874   4.644   3.369   2.898  0.1560 -0.2113  0.4409
  385MOL    F2746875   4.679   3.457   2.992  0.4016 -0.2126  0.0227
  385MOL    F2846876   4.601   3.261   2.956 -0.5589  0.3985  0.6850
  385MOL    C2946877   4.774   3.329   2.836  0.7401  0.3136  0.2807
  385MOL    H3046878   4.833   3.274   2.909 -0.7623 -0.0131  1.2525
  385MOL    H3146879   4.835   3.419   2.822  1.7959 -0.3064  0.8255
  385MOL    C3246880   4.765   3.231   2.716 -0.1844  0.0195  0.6431
  385MOL    F3346881   4.696   3.124   2.753 -0.0494 -0.2486 -0.5030
  385MOL    F3446882   4.706   3.300   2.618 -0.1725 -0.0788  0.0812
  385MOL    C3546883   4.905   3.181   2.674 -0.1144 -0.7671  0.2268
  385MOL    H3646884   4.959   3.117   2.744 -0.3335 -2.2910 -0.9586
  385MOL    H3746885   4.977   3.262   2.675 -0.3946 -0.4904 -0.9765
  385MOL    C3846886   4.914   3.103   2.538 -0.1748 -0.5397  0.3510
  385MOL    F3946887   4.857   3.178   2.441 -0.0165 -0.6338 -0.4974
  385MOL    F4046888   5.037   3.087   2.508 -0.1522 -0.0833  0.0838
  385MOL    C4146889   4.842   2.968   2.528  0.2802 -0.4238  1.0225
  385MOL    H4246890   4.734   2.980   2.533 -0.0011 -1.2510 -1.8685
  385MOL    H4346891   4.865   2.902   2.611  1.3825  0.4766  1.4503
  385MOL    C4446892   4.871   2.898   2.390 -0.1462  0.0904 -0.0148
  385MOL    F4546893   4.825   2.971   2.286  0.6343  0.0817 -0.0682
  385MOL    F4646894   5.009   2.881   2.377  0.2453 -0.3575  0.1667
  385MOL    C4746895   4.808   2.753   2.377  0.6911 -0.9287  0.4339
  385MOL    H4846896   4.708   2.763   2.419  1.0716  1.0389  0.9264
  385MOL    H4946897   4.857   2.684   2.446  0.2193 -0.1328  1.5745
  385MOL    C5046898   4.810   2.685   2.239 -0.1771 -0.4111  0.0237
  385MOL    F5146899   4.747   2.563   2.253  0.4572 -0.1269 -0.1156
  385MOL    F5246900   4.742   2.766   2.156  0.9012  0.0664 -0.8509
  385MOL    C5346901   4.953   2.643   2.188 -0.2979 -0.3083 -0.3387
  385MOL    H5446902   4.993   2.581   2.269 -0.7886 -0.6147 -0.3288
  385MOL    H5546903   5.026   2.721   2.169 -0.3783  0.1716  1.2467
  385MOL    C5646904   4.964   2.563   2.061  0.0022 -0.1011  0.3744
  385MOL    F5746905   5.089   2.548   2.023 -0.4809 -0.5607  0.1845
  385MOL    F5846906   4.913   2.444   2.084  0.4888  0.0216  0.2477
  385MOL    C5946907   4.887   2.632   1.950  0.3061  0.1080 -0.0039
  385MOL    H6046908   4.900   2.740   1.951  2.1995 -0.0287 -3.3030
  385MOL    H6146909   4.782   2.628   1.977  0.5660 -2.2230  0.7482
  385MOL    C6246910   4.942   2.591   1.803  0.5830 -0.2908 -0.2977
  385MOL    F6346911   5.054   2.643   1.761 -0.3579  0.0002  0.3342
  385MOL    F6446912   4.959   2.465   1.800  0.1315 -0.1581 -0.2934
  385MOL    C6546913   4.839   2.608   1.691 -0.1158 -0.3850  0.3707
  385MOL    H6646914   4.742   2.566   1.715  0.2295 -0.3274  1.9126
  385MOL    H6746915   4.879   2.556   1.603 -2.2109 -0.6536 -0.4443
  385MOL    C6846916   4.790   2.750   1.649  0.4710 -0.2006 -0.2523
  385MOL    F6946917   4.753   2.820   1.757  0.4269  0.4485  0.2687
  385MOL    F7046918   4.904   2.802   1.600  0.0696 -0.4972  0.4800
  385MOL    C7146919   4.681   2.747   1.542 -0.3235 -0.0247  0.2151
  385MOL    H7246920   4.594   2.688   1.570 -2.0302  1.7500 -1.1518
  385MOL    H7346921   4.721   2.681   1.465 -2.0421  0.9326 -1.5694
  385MOL    C7446922   4.629   2.891   1.492 -0.2298  0.2020 -0.4226
  385MOL    F7546923   4.732   2.954   1.434 -0.5262 -0.2357 -0.0177
  385MOL    F7646924   4.540   2.880   1.400 -0.1969 -0.7427  0.2970
  385MOL    C7746925   4.581   2.984   1.614  0.5918  0.3222  0.5181
  385MOL    H7846926   4.658   3.012   1.686  0.9975  0.0455  0.1934
  385MOL    H7946927   4.493   2.952   1.671  0.5165  0.9851  0.7691
  385MOL    C8046928   4.548   3.125   1.559 -0.0897 -0.4698  0.6038
  385MOL    F8146929   4.660   3.187   1.519 -0.3571 -0.4319 -0.3179
  385MOL    F8246930   4.463   3.117   1.461 -0.4013 -0.2900  0.1785
  385MOL    C8346931   4.475   3.217   1.668  0.2894  0.7112  0.0610
  385MOL    H8446932   4.379   3.179   1.703  1.4746 -1.1981  1.3115
  385MOL    H8546933   4.449   3.309   1.614 -2.6692  0.8352  1.6095
  385MOL    C8646934   4.557   3.255   1.794 -0.1122  0.1074  0.5074
  385MOL    F8746935   4.573   3.146   1.870 -0.2690  0.0281 -0.2792
  385MOL    F8846936   4.678   3.298   1.759 -0.5617  0.3571  0.6582
  385MOL    C8946937   4.501   3.373   1.878  0.3062 -0.2349  0.5034
  385MOL    H9046938   4.400   3.348   1.911 -0.7832  1.8110 -1.1678
  385MOL    H9146939   4.488   3.444   1.797  0.1069  0.8886  1.5212
  385MOL    C9246940   4.580   3.427   1.998 -0.9187 -0.2552  0.1369
  385MOL    F9346941   4.694   3.481   1.949 -0.4394 -0.3472  0.4018
  385MOL    F9446942   4.521   3.530   2.053  0.2255  0.3910  0.2025
  385MOL    C9546943   4.607   3.326   2.118 -0.0987 -0.7925 -0.1241
  385MOL    H9646944   4.653   3.394   2.190  0.1066  1.1841 -2.0789
  385MOL    H9746945   4.675   3.243   2.101  0.7893 -0.7097  2.7430
  385MOL    C9846946   4.483   3.257   2.180 -0.5284  0.1706  0.6667
  385MOL    F9946947   4.402   3.359   2.208  0.3942 -0.0441 -0.1894
  385MOL   F10046948   4.425   3.170   2.095  0.1924 -0.1192 -0.3956
  385MOL   C10146949   4.530   3.180   2.303 -0.1695  0.3783 -0.8808
  385MOL   H10246950   4.592   3.235   2.373  1.3455 -2.4518  0.0931
  385MOL   H10346951   4.596   3.106   2.256  2.5507  2.5053 -0.5024
  385MOL   C10446952   4.418   3.123   2.389  0.1131  0.6895 -0.2472
  385MOL   F10546953   4.471   3.078   2.505  0.2809  0.0713 -0.0269
  385MOL   F10646954   4.334   3.221   2.419 -0.2153  0.2697  0.3064
  385MOL   C10746955   4.346   2.998   2.316  0.2023 -0.5656  0.2793
  385MOL   H10846956   4.424   2.937   2.271 -1.2906 -0.5131 -2.5003
  385MOL   H10946957   4.284   3.036   2.234  0.6157  2.1713  1.1974
  385MOL   C11046958   4.273   2.906   2.415 -0.0155  0.5055  0.3100
  385MOL   F11146959   4.352   2.833   2.486 -0.1632  0.2942  0.6421
  385MOL   F11246960   4.194   2.976   2.498 -0.2203 -0.1711 -0.0039
  385MOL   C11346961   4.174   2.805   2.347  0.0675 -0.0522 -0.3253
  385MOL   H11446962   4.134   2.743   2.427  0.8360 -0.9635 -0.6271
  385MOL   H11546963   4.236   2.743   2.282 -0.2631  1.4441 -2.1222
  385MOL   C11646964   4.046   2.848   2.261 -0.2765 -1.1201 -0.3809
  385MOL   F11746965   4.095   2.912   2.151 -0.2534  0.3722 -0.6548
  385MOL   F11846966   4.004   2.734   2.217  0.2120 -0.1132 -0.3897
  385MOL   C11946967   3.939   2.938   2.332  0.1507  0.6531  0.2240
  385MOL   H12046968   3.854   2.961   2.268 -0.2221 -0.7904  0.1834
  385MOL   H12146969   3.979   3.036   2.358  3.1821 -0.3870 -0.2992
  385MOL   H12246970   3.897   2.885   2.417 -1.0200  0.4757 -0.4652
  386MOL     C146971   1.482   2.044   1.817  0.3024 -0.5128  0.4530
  386MOL     F246972   1.459   2.006   1.944 -0.1017 -0.3276 -0.3190
  386MOL     F346973   1.518   2.174   1.801 -0.0713 -0.3755  0.4022
  386MOL     C446974   1.353   2.010   1.730  0.7526 -0.4463 -0.0579
  386MOL     H546975   1.367   2.047   1.628  2.6061  1.9568  1.0105
  386MOL     H646976   1.266   2.060   1.772  2.4403  0.4037  2.4982
  386MOL     H746977   1.572   1.992   1.784  0.8611 -0.6387  2.1521
  386MOL     C846978   1.301   1.868   1.716 -0.3357  0.0931  0.8866
  386MOL     F946979   1.398   1.783   1.678  0.0550 -0.8457 -0.0668
  386MOL    F1046980   1.257   1.820   1.831 -0.5075  0.5992  0.3518
  386MOL    C1146981   1.190   1.860   1.599 -0.9280 -0.2907  0.1582
  386MOL    H1246982   1.173   1.755   1.573  0.0413 -0.0795 -1.3815
  386MOL    H1346983   1.232   1.899   1.507  2.2044 -0.9023  1.2348
  386MOL    C1446984   1.051   1.922   1.625  0.1817 -0.3464  0.3300
  386MOL    F1546985   0.983   1.841   1.712  0.1696  0.0092  0.1480
  386MOL    F1646986   1.056   2.044   1.688  0.3001  0.1556  0.0189
  386MOL    C1746987   0.972   1.913   1.495  0.2182 -0.1556  0.1715
  386MOL    H1846988   1.027   1.958   1.413 -0.9896 -0.6039 -0.9008
  386MOL    H1946989   0.878   1.966   1.513  0.7521  0.5077  1.0042
  386MOL    C2046990   0.936   1.774   1.440 -0.3758  0.0260  0.3685
  386MOL    F2146991   1.045   1.725   1.377  0.4795  0.6410  0.0238
  386MOL    F2246992   0.893   1.692   1.543 -0.2430 -0.2041  0.1443
  386MOL    C2346993   0.817   1.783   1.336  0.0479  0.2388 -0.7134
  386MOL    H2446994   0.727   1.787   1.397  0.2689 -1.2694 -0.2704
  386MOL    H2546995   0.820   1.684   1.291  2.4428  0.5613 -1.3259
  386MOL    C2646996   0.831   1.891   1.227 -0.4666 -0.6631 -0.1670
  386MOL    F2746997   0.785   2.007   1.261  0.4280  0.5617  0.3622
  386MOL    F2846998   0.957   1.903   1.190 -0.2435  0.2059 -0.0934
  386MOL    C2946999   0.745   1.854   1.105 -0.4693  0.1609 -0.2710
  386MOL    H3047000   0.637   1.846   1.117 -0.4831  1.5828  0.5754
  386MOL    H3147001   0.779   1.752   1.083  0.5505  0.5916 -0.7230
  386MOL    C3247002   0.751   1.941   0.977 -0.0245 -0.3807 -0.1707
  386MOL    F3347003   0.721   2.071   1.013  0.3976 -0.2717 -0.0131
  386MOL    F3447004   0.874   1.935   0.928  0.0839 -0.0960  0.0370
  386MOL    C3547005   0.652   1.896   0.868  0.6267 -0.4572  0.0963
  386MOL    H3647006   0.553   1.906   0.913  0.3103 -1.5644 -0.3360
  386MOL    H3747007   0.680   1.791   0.858  2.3373  0.0358 -0.3417
  386MOL    C3847008   0.652   1.969   0.731 -0.6621  0.1865 -0.4027
  386MOL    F3947009   0.667   2.102   0.754 -0.3314 -0.4378  0.3518
  386MOL    F4047010   0.753   1.923   0.663  0.1500  0.1047 -0.4618
  386MOL    C4147011   0.522   1.935   0.660  0.2162 -0.6444  0.3795
  386MOL    H4247012   0.429   1.956   0.713 -1.4714 -2.4381 -1.7823
  386MOL    H4347013   0.523   1.827   0.652 -3.8521 -0.7735  0.5489
  386MOL    C4447014   0.505   1.996   0.517  0.6556 -0.2369  0.4795
  386MOL    F4547015   0.515   2.127   0.529  0.2301  0.0536  0.3640
  386MOL    F4647016   0.608   1.957   0.442  0.2106 -0.3318  0.0474
  386MOL    C4747017   0.377   1.952   0.446  0.2010  0.8476  0.1753
  386MOL    H4847018   0.296   1.968   0.517 -0.3716 -1.0251 -0.0140
  386MOL    H4947019   0.382   1.845   0.426 -4.0804  0.7511 -0.9880
  386MOL    C5047020   0.329   2.020   0.322  0.0930 -0.2695 -0.8259
  386MOL    F5147021   0.206   1.980   0.283 -0.0223 -0.0822 -0.4293
  386MOL    F5247022   0.334   2.150   0.343  0.0836  0.1939 -0.3136
  386MOL    C5347023   0.422   1.978   0.201  0.2638 -0.1166 -0.2606
  386MOL    H5447024   0.415   1.871   0.180  0.1102  0.5742 -4.0390
  386MOL    H5547025   0.524   2.011   0.222 -0.5348  2.0878  0.1949
  386MOL    C5647026   0.382   2.055   0.074  0.2139  0.2109  0.6380
  386MOL    F5747027   0.464   2.002   8.339  0.4595 -0.1133  0.1227
  386MOL    F5847028   0.261   2.027   0.019  0.4272  0.7051 -0.1845
  386MOL    C5947029   0.408   2.209   0.082  0.1251 -0.6172  0.2822
  386MOL    H6047030   0.486   2.229   0.156  0.1070 -0.2960  0.2144
  386MOL    H6147031   0.318   2.245   0.131  0.6411  1.3275 -0.1423
  386MOL    C6247032   0.427   2.290   8.300  0.0124  0.5940 -0.0128
  386MOL    F6347033   0.532   2.232   8.233 -0.4780  0.0742 -0.1951
  386MOL    F6447034   0.319   2.280   8.227 -0.3284  0.3464 -0.3409
  386MOL    C6547035   0.454   2.439   8.334  0.3862  0.7505 -0.0880
  386MOL    H6647036   0.551   2.442   0.034  1.1709 -1.7106 -1.3988
  386MOL    H6747037   0.380   2.469   0.058 -0.3891 -1.8318  0.2508
  386MOL    C6847038   0.454   2.532   8.217 -0.0373 -0.2593  0.1942
  386MOL    F6947039   0.537   2.489   8.124 -0.2467 -0.1748  0.3050
  386MOL    F7047040   0.334   2.538   8.167  0.1061 -0.2359 -0.0686
  386MOL    C7147041   0.499   2.678   8.244  0.1432  0.3420 -0.1421
  386MOL    H7247042   0.514   2.721   8.145  1.4599 -0.2687 -0.2305
  386MOL    H7347043   0.601   2.670   8.282  1.0500 -1.8889 -2.8420
  386MOL    C7447044   0.416   2.764   0.000  0.2646 -0.1435  0.2214
  386MOL    F7547045   0.290   2.752   8.321  0.0271  0.0055  0.4587
  386MOL    F7647046   0.449   2.720   0.122 -0.3138 -0.0207 -0.2934
  386MOL    C7747047   0.453   2.913   0.012  0.1818 -0.1701 -0.4181
  386MOL    H7847048   0.450   2.960   8.264  0.4851  0.0988 -0.2996
  386MOL    H7947049   0.559   2.924   0.036 -0.2566  1.4053  0.8693
  386MOL    C8047050   0.355   3.003   0.098  0.6873  0.2867 -0.6784
  386MOL    F8147051   0.404   3.126   0.091 -0.1858  0.7443  0.7916
  386MOL    F8247052   0.231   3.002   0.043 -0.3573  0.0151  0.3061
  386MOL    C8347053   0.339   2.972   0.251 -0.0335 -0.5001 -0.0153
  386MOL    H8447054   0.298   2.871   0.256  2.0194 -1.4088 -0.8314
  386MOL    H8547055   0.264   3.041   0.290 -1.0665 -1.0530 -0.9862
  386MOL    C8647056   0.465   2.979   0.342 -0.1173 -0.3131  0.7267
  386MOL    F8747057   0.556   2.909   0.273 -0.2274 -0.1430  0.9891
  386MOL    F8847058   0.500   3.108   0.328  0.1113 -0.0345  0.4172
  386MOL    C8947059   0.451   2.942   0.492 -0.5623  0.0960 -0.3248
  386MOL    H9047060   0.425   2.838   0.509  2.4728 -0.1740  3.1667
  386MOL    H9147061   0.376   2.994   0.550 -2.0602  0.8450 -2.8421
  386MOL    C9247062   0.573   2.957   0.581 -0.7325 -0.4093 -0.0786
  386MOL    F9347063   0.528   2.934   0.706  0.2670  0.0188 -0.0844
  386MOL    F9447064   0.660   2.863   0.536  0.4686  0.6687  0.0447
  386MOL    C9547065   0.646   3.100   0.563 -0.0723  0.0849 -0.3793
  386MOL    H9647066   0.577   3.182   0.579 -1.7555 -1.2571 -0.5429
  386MOL    H9747067   0.692   3.107   0.465  1.1779 -0.8743  0.1145
  386MOL    C9847068   0.768   3.122   0.647  0.2508  0.0554  0.2330
  386MOL    F9947069   0.837   3.009   0.653 -0.4304 -0.6365  0.0727
  386MOL   F10047070   0.843   3.210   0.585 -0.3361 -0.6587  0.0964
  386MOL   C10147071   0.747   3.159   0.797 -0.2826  0.0119  0.3492
  386MOL   H10247072   0.846   3.144   0.840 -1.2825 -1.9088  2.0147
  386MOL   H10347073   0.681   3.092   0.851  1.2221 -0.5680  1.5146
  386MOL   C10447074   0.701   3.307   0.826 -0.1212  0.4751 -0.2537
  386MOL   F10547075   0.803   3.377   0.776  0.4931  0.4764 -0.1748
  386MOL   F10647076   0.593   3.335   0.754 -0.1746 -0.9101 -0.0883
  386MOL   C10747077   0.672   3.322   0.981  0.2836  0.1235 -1.1275
  386MOL   H10847078   0.764   3.287   1.029  1.0700  1.2364 -1.7924
  386MOL   H10947079   0.586   3.260   1.003  0.4109 -1.2848 -4.3538
  386MOL   C11047080   0.642   3.468   1.025  0.9042  0.3992  0.5408
  386MOL   F11147081   0.719   3.548   0.958  0.2519  0.3507 -0.8854
  386MOL   F11247082   0.508   3.487   0.993 -0.0338 -0.1359  0.3086
  386MOL   C11347083   0.663   3.479   1.175  0.2826  0.1392  0.0955
  386MOL   H11447084   0.767   3.454   1.196  0.1177 -0.0850  0.6732
  386MOL   H11547085   0.619   3.395   1.230 -0.8815  0.8260  0.2138
  386MOL   C11647086   0.613   3.608   1.246 -0.9691  0.0951 -0.6717
  386MOL   F11747087   0.668   3.718   1.196 -0.6345 -0.0578 -0.1602
  386MOL   F11847088   0.483   3.630   1.251 -0.2738  0.3482 -0.6220
  386MOL   C11947089   0.658   3.619   1.392  0.2619  0.5471 -0.3451
  386MOL   H12047090   0.611   3.543   1.454 -0.0984  0.2036 -1.0301
  386MOL   H12147091   0.623   3.707   1.446 -1.0198  0.3019 -0.7522
  386MOL   H12247092   0.766   3.609   1.395  0.3043  1.2928  1.4450
  387MOL     C147093   5.988   3.097   0.438  0.4102  0.3772 -0.7177
  387MOL     F247094   5.913   3.095   0.327 -0.5556 -0.1662  0.0594
  387MOL     F347095   5.960   3.214   0.505  0.1142  0.1809  0.3320
  387MOL     C447096   6.138   3.090   0.402 -0.0564 -0.0533 -1.0429
  387MOL     H547097   6.174   3.170   0.338  0.4465  0.5072 -0.0714
  387MOL     H647098   6.131   3.006   0.333  0.8774 -0.0088 -1.1953
  387MOL     H747099   5.953   3.009   0.491  0.1291  2.2857  2.3314
  387MOL     C847100   6.215   3.078   0.532 -0.0980  0.2925  0.2330
  387MOL     F947101   6.197   3.188   0.614  0.5547  0.0809 -0.1799
  387MOL    F1047102   6.183   2.968   0.592  0.0784 -0.1921 -0.3459
  387MOL    C1147103   6.369   3.045   0.511  0.0844  0.8410  0.6076
  387MOL    H1247104   6.407   3.129   0.453  0.4121 -1.6972 -3.0575
  387MOL    H1347105   6.375   2.962   0.439 -3.6735  0.6265  0.4759
  387MOL    C1447106   6.470   3.022   0.633 -0.6070 -0.2247 -0.3720
  387MOL    F1547107   6.593   3.044   0.595  0.2454  0.3988  0.2539
  387MOL    F1647108   6.438   3.114   0.726  0.1860 -0.3532 -0.0719
  387MOL    C1747109   6.451   2.878   0.703 -0.0940 -0.6256  0.0317
  387MOL    H1847110   6.348   2.873   0.740  0.5152 -0.4382  1.8077
  387MOL    H1947111   6.510   2.896   0.793 -0.4120  0.1518  0.0960
  387MOL    C2047112   6.486   2.751   0.620 -0.4797 -0.1562  0.0931
  387MOL    F2147113   6.386   2.737   0.532  0.4138 -0.6839  0.1396
  387MOL    F2247114   6.603   2.779   0.562 -0.0216  0.0825  0.1545
  387MOL    C2347115   6.485   2.627   0.703  0.8423 -0.2370  0.2799
  387MOL    H2447116   6.389   2.602   0.747  0.6823 -0.9149 -0.4295
  387MOL    H2547117   6.544   2.648   0.792 -0.3257 -0.6359  1.1646
  387MOL    C2647118   6.535   2.503   0.618  0.1844  1.1160 -0.4465
  387MOL    F2747119   6.663   2.511   0.586 -0.0256 -0.0162 -0.5990
  387MOL    F2847120   6.529   2.396   0.697  0.4675 -0.1014  0.1885
  387MOL    C2947121   6.444   2.480   0.498  0.0024  0.2635  0.3023
  387MOL    H3047122   6.468   2.556   0.425  1.9805 -0.0267  0.6303
  387MOL    H3147123   6.340   2.499   0.526 -0.1197  1.2490 -0.8004
  387MOL    C3247124   6.454   2.341   0.425  0.3947 -0.0668 -0.0523
  387MOL    F3347125   6.423   2.243   0.508 -0.4192 -0.3815  0.1259
  387MOL    F3447126   6.358   2.337   0.328  0.0785  0.1955 -0.3800
  387MOL    C3547127   6.594   2.301   0.364 -0.3999  0.6672  0.1651
  387MOL    H3647128   6.585   2.196   0.336 -0.4241  0.5428  0.6371
  387MOL    H3747129   6.675   2.291   0.436  1.3259  0.4421 -1.7545
  387MOL    C3847130   6.657   2.373   0.245 -0.3991  0.4200  0.1211
  387MOL    F3947131   6.561   2.365   0.151 -0.4421 -0.2815 -0.0484
  387MOL    F4047132   6.672   2.504   0.282 -0.5221 -0.2708  0.4683
  387MOL    C4147133   6.785   2.309   0.189  0.9664  0.2557 -0.3217
  387MOL    H4247134   6.770   2.201   0.184 -3.2892  0.7212  0.6417
  387MOL    H4347135   6.868   2.305   0.260  0.3783  1.5440  0.4537
  387MOL    C4447136   6.831   2.370   0.056  0.3109  0.3432 -0.4208
  387MOL    F4547137   6.934   2.300   0.023 -0.0139 -0.2590  0.2248
  387MOL    F4647138   6.734   2.362   8.317  0.2388 -0.0979 -0.3071
  387MOL    C4747139   6.872   2.519   0.061 -0.6707 -0.1302  0.3677
  387MOL    H4847140   6.787   2.579   0.092  0.6342  1.5744  0.7569
  387MOL    H4947141   6.891   2.553   8.308 -2.4485 -0.0299  0.0631
  387MOL    C5047142   6.992   2.553   0.156  0.0408 -0.3434  0.1613
  387MOL    F5147143   6.957   2.529   0.284  0.8849 -0.4453  0.1920
  387MOL    F5247144   7.104   2.473   0.131  0.3359  0.1414  0.2159
  387MOL    C5347145   7.040   2.699   0.158 -0.4492  0.0703 -0.9702
  387MOL    H5447146   6.960   2.760   0.197  0.9092  2.4663 -1.7971
  387MOL    H5547147   7.060   2.727   0.054  2.1987 -1.7065 -0.9910
  387MOL    C5647148   7.161   2.740   0.245 -0.6326 -0.2280  0.0461
  387MOL    F5747149   7.177   2.872   0.238 -0.0328  0.0255  0.2711
  387MOL    F5847150   7.134   2.722   0.365 -0.3167 -0.1205 -0.3461
  387MOL    C5947151   7.298   2.672   0.213 -0.1197 -0.2301 -0.8387
  387MOL    H6047152   7.297   2.568   0.243 -2.4288  0.3432  1.2266
  387MOL    H6147153   7.362   2.715   0.290  0.1276 -0.2752 -1.0162
  387MOL    C6247154   7.371   2.688   0.065 -0.2131  0.4920 -0.3721
  387MOL    F6347155   7.282   2.656   8.324 -0.0185  0.4926 -0.5993
  387MOL    F6447156   7.394   2.824   0.055 -0.0529  0.2352 -0.5003
  387MOL    C6547157   7.500   2.603   0.053 -0.2224 -0.1702  0.3781
  387MOL    H6647158   7.477   2.499   0.076 -4.3252  0.2899 -1.2061
  387MOL    H6747159   7.566   2.651   0.126 -1.0567  2.0016 -0.2645
  387MOL    C6847160   7.568   2.622   8.265  0.2239 -0.0709  0.1477
  387MOL    F6947161   7.478   2.598   8.171 -1.0221  0.4277 -0.1338
  387MOL    F7047162   7.606   2.745   8.252 -0.4276 -0.2177  0.4227
  387MOL    C7147163   7.696   2.533   8.245 -0.3264  0.6032  0.1527
  387MOL    H7247164   7.681   2.426   8.259  0.6968  0.1042 -2.2748
  387MOL    H7347165   7.763   2.560   8.326 -1.6005 -1.1544  1.8337
  387MOL    C7447166   7.769   2.544   8.110  0.4210  0.1668 -0.4385
  387MOL    F7547167   7.836   2.656   8.106  0.2861 -0.5828  0.3256
  387MOL    F7647168   7.857   2.449   8.103 -0.0593 -0.2486  0.2217
  387MOL    C7747169   7.681   2.532   7.984 -0.8569  0.4135 -0.0827
  387MOL    H7847170   7.747   2.569   7.906 -2.0933 -0.2495 -1.4492
  387MOL    H7947171   7.613   2.617   7.981 -0.8697  0.4830  1.7008
  387MOL    C8047172   7.618   2.392   7.951 -0.2045  0.0710  0.0377
  387MOL    F8147173   7.689   2.283   7.931  0.3839 -0.0437 -0.6330
  387MOL    F8247174   7.557   2.367   8.067  0.3891  0.2683  0.0227
  387MOL    C8347175   7.499   2.396   7.845 -0.4320  0.3388  0.3208
  387MOL    H8447176   7.425   2.470   7.875 -0.1881  0.0093  1.7751
  387MOL    H8547177   7.444   2.304   7.867  1.6271 -0.1793  3.7263
  387MOL    C8647178   7.527   2.408   7.693 -0.5844 -0.0881  0.9399
  387MOL    F8747179   7.628   2.499   7.696 -0.2385  0.1632  0.7383
  387MOL    F8847180   7.581   2.301   7.641 -0.3915  0.0950  0.0277
  387MOL    C8947181   7.411   2.466   7.606  0.9650  0.0028  0.3057
  387MOL    H9047182   7.452   2.492   7.508 -0.0466 -2.7447 -0.9007
  387MOL    H9147183   7.369   2.561   7.638 -0.3982  0.6153 -3.0053
  387MOL    C9247184   7.294   2.364   7.575  0.3243  0.6024 -0.4434
  387MOL    F9347185   7.279   2.271   7.673  0.4831  0.4668 -0.7398
  387MOL    F9447186   7.187   2.441   7.572  0.3896  0.0374 -0.6214
  387MOL    C9547187   7.313   2.277   7.444 -0.0787 -0.0027  0.4988
  387MOL    H9647188   7.398   2.208   7.445 -0.6392 -0.7433 -1.5068
  387MOL    H9747189   7.335   2.343   7.360  3.3326 -0.7518  0.7010
  387MOL    C9847190   7.190   2.200   7.398  0.5682  0.5344  0.1873
  387MOL    F9947191   7.083   2.277   7.368  0.0476  0.4589  0.6794
  387MOL   F10047192   7.212   2.146   7.280  0.0118 -0.5021  0.0883
  387MOL   C10147193   7.139   2.095   7.493 -0.0101 -0.1895  0.9136
  387MOL   H10247194   7.104   2.137   7.587  1.5533 -0.4566  1.6346
  387MOL   H10347195   7.219   2.029   7.527  1.0142  0.5699  0.0111
  387MOL   C10447196   7.031   1.996   7.438 -0.8166 -0.3627  0.5485
  387MOL   F10547197   6.925   2.056   7.388 -0.1267 -0.2236 -0.2916
  387MOL   F10647198   7.099   1.928   7.346 -0.7594  0.2361 -0.6916
  387MOL   C10747199   6.993   1.897   7.550 -0.1675  0.5860 -0.6438
  387MOL   H10847200   6.942   1.961   7.623  0.2267  0.2988 -0.1118
  387MOL   H10947201   7.082   1.867   7.605  1.0603  2.2471 -1.6456
  387MOL   C11047202   6.910   1.772   7.516  0.3023  0.2014 -0.4140
  387MOL   F11147203   6.810   1.816   7.440  0.1462  0.1820  0.3830
  387MOL   F11247204   6.992   1.691   7.439  0.2670 -0.0870  0.3874
  387MOL   C11347205   6.856   1.695   7.639  0.3221 -0.1408  0.1572
  387MOL   H11447206   6.786   1.763   7.686 -0.1275  1.8709 -3.2214
  387MOL   H11547207   6.928   1.669   7.716  0.1239 -1.9741 -0.2498
  387MOL   C11647208   6.769   1.570   7.603  0.6109 -0.4933  0.4722
  387MOL   F11747209   6.658   1.613   7.537 -0.2165  0.0726  0.1941
  387MOL   F11847210   6.831   1.498   7.515 -0.4329  0.0575  0.3419
  387MOL   C11947211   6.711   1.490   7.718  0.6181 -0.2471 -0.3849
  387MOL   H12047212   6.778   1.475   7.804 -1.1917  0.1924  1.1323
  387MOL   H12147213   6.684   1.392   7.679 -2.0064  0.4664 -0.4049
  387MOL   H12247214   6.622   1.535   7.762  0.5976  0.5835 -1.2695
  388MOL     C147215   0.860   2.866   8.098 -0.4792 -0.1523 -0.3102
  388MOL     F247216   0.888   2.960   8.186 -0.5142  0.1351  0.0327
  388MOL     F347217   0.732   2.831   8.109  0.2049  0.1161 -0.4506
  388MOL     C447218   0.942   2.744   8.144 -0.4511 -0.0154 -0.6579
  388MOL     H547219   0.917   2.733   8.249  2.8150  0.6043  0.2128
  388MOL     H647220   1.047   2.772   8.148 -1.0276  2.0249  0.8144
  388MOL     H747221   0.880   2.912   8.001  0.3600  1.0638  0.4273
  388MOL     C847222   0.928   2.619   8.051 -0.1013  0.4013  0.3867
  388MOL     F947223   0.819   2.545   8.088  0.0345 -0.0517 -0.4727
  388MOL    F1047224   0.912   2.666   7.926 -0.4452 -0.1376  0.0270
  388MOL    C1147225   1.053   2.522   8.054  0.0135  0.0320 -0.3815
  388MOL    H1247226   1.137   2.576   8.011  0.4456 -0.9007 -0.7343
  388MOL    H1347227   1.027   2.447   7.979 -0.0244 -0.3457  0.0037
  388MOL    C1447228   1.103   2.473   8.191 -0.6150  0.3124 -0.1725
  388MOL    F1547229   1.147   2.582   8.257 -0.0347 -0.1139  0.1432
  388MOL    F1647230   0.995   2.434   8.255  0.4179 -0.1151 -0.2311
  388MOL    C1747231   1.208   2.366   8.203 -0.4386 -0.0774  0.8601
  388MOL    H1847232   1.241   2.360   8.306  0.9391  1.7586  0.5520
  388MOL    H1947233   1.298   2.388   8.145 -0.4997  0.0783  0.8250
  388MOL    C2047234   1.158   2.214   8.171 -0.1454 -0.3455  0.3996
  388MOL    F2147235   1.068   2.174   8.263 -0.0648 -0.3109 -0.0007
  388MOL    F2247236   1.089   2.218   8.057 -0.1803 -0.3158  0.0437
  388MOL    C2347237   1.274   2.112   8.154  0.4643  0.2228 -0.4359
  388MOL    H2447238   1.342   2.152   8.079  0.0521 -0.9594 -1.4629
  388MOL    H2547239   1.222   2.021   8.123  0.8515 -0.6883  1.4703
  388MOL    C2647240   1.358   2.075   8.281 -0.1950 -0.5291 -0.7736
  388MOL    F2747241   1.411   2.193   8.319  1.0228  0.2240  0.2452
  388MOL    F2847242   1.286   2.043   0.040  0.0257  0.3381  0.2905
  388MOL    C2947243   1.467   1.967   8.259  0.3784  0.3616  0.6389
  388MOL    H3047244   1.429   1.865   8.269 -1.4382  0.8771 -0.7027
  388MOL    H3147245   1.536   1.985   8.342  0.7274  1.1371  0.1885
  388MOL    C3247246   1.541   1.969   8.128 -0.7616 -0.3704  0.5627
  388MOL    F3347247   1.470   1.949   8.014  0.0792  0.2127  0.2184
  388MOL    F3447248   1.607   2.081   8.116 -0.0996  0.3563 -0.4217
  388MOL    C3547249   1.651   1.865   8.134  0.1944 -0.2231  1.3788
  388MOL    H3647250   1.615   1.762   8.145  0.6693 -0.3269  2.0176
  388MOL    H3747251   1.695   1.884   8.232 -0.1152  2.6133  1.0086
  388MOL    C3847252   1.761   1.864   8.026  0.2584  0.8287 -0.4086
  388MOL    F3947253   1.790   1.987   7.976  0.3627  0.0886 -0.1599
  388MOL    F4047254   1.865   1.816   8.086 -0.2388  0.0810  0.0144
  388MOL    C4147255   1.744   1.758   7.918  0.4298  0.3063 -0.9168
  388MOL    H4247256   1.647   1.775   7.872  0.0842  0.8978  0.0192
  388MOL    H4347257   1.730   1.665   7.972  2.3447  0.9481  0.7530
  388MOL    C4447258   1.860   1.760   7.815 -0.1395 -0.1474 -0.4966
  388MOL    F4547259   1.883   1.883   7.762  0.1320  0.1313  0.0176
  388MOL    F4647260   1.981   1.735   7.863  0.3012  0.1760  0.3903
  388MOL    C4747261   1.835   1.660   7.704  0.1714  0.1013 -0.7402
  388MOL    H4847262   1.922   1.679   7.640  0.9148  0.5336  0.3716
  388MOL    H4947263   1.744   1.696   7.657 -0.9817 -0.9980  0.6014
  388MOL    C5047264   1.833   1.505   7.722 -0.1521 -0.3003  0.1040
  388MOL    F5147265   1.927   1.464   7.805 -0.5839 -0.3841  0.3469
  388MOL    F5247266   1.720   1.474   7.786 -0.1458 -0.0456  0.4188
  388MOL    C5347267   1.850   1.433   7.585 -0.4180  0.9236 -0.1574
  388MOL    H5447268   1.944   1.468   7.543 -1.1766  2.2858 -0.7458
  388MOL    H5547269   1.778   1.471   7.513  0.2336 -1.1949 -1.9786
  388MOL    C5647270   1.856   1.278   7.580 -0.1265 -0.3196  0.5794
  388MOL    F5747271   1.884   1.238   7.451  0.4979  0.4926 -0.5774
  388MOL    F5847272   1.952   1.239   7.672 -0.4154 -0.0046 -0.2655
  388MOL    C5947273   1.726   1.214   7.629 -0.2104 -0.3928 -0.4014
  388MOL    H6047274   1.711   1.231   7.736  3.4086 -0.0109  0.0849
  388MOL    H6147275   1.743   1.106   7.621  0.4182 -0.4463  1.3486
  388MOL    C6247276   1.592   1.250   7.556 -0.7847 -0.4984  0.0947
  388MOL    F6347277   1.556   1.379   7.574 -0.6222  0.2019  0.0296
  388MOL    F6447278   1.603   1.236   7.425  0.4667  0.3558  0.9138
  388MOL    C6547279   1.477   1.162   7.593  0.2028  0.2249 -0.4084
  388MOL    H6647280   1.496   1.066   7.546 -1.0096 -0.0177 -0.4056
  388MOL    H6747281   1.394   1.203   7.535  1.0122  0.6485 -1.2857
  388MOL    C6847282   1.450   1.134   7.741 -0.3814 -0.0753  0.2504
  388MOL    F6947283   1.533   1.048   7.793 -0.3998 -0.4676 -0.0987
  388MOL    F7047284   1.462   1.248   7.809  0.5880  0.3493  0.3316
  388MOL    C7147285   1.306   1.078   7.763  0.2771  0.0474 -0.2227
  388MOL    H7247286   1.295   0.991   7.698 -1.3670 -0.1429  0.2811
  388MOL    H7347287   1.234   1.152   7.729  2.5707  3.2002  1.4765
  388MOL    C7447288   1.268   1.049   7.907  0.5378 -0.2308  0.4537
  388MOL    F7547289   1.350   0.957   7.953 -0.0151 -0.4976 -0.0719
  388MOL    F7647290   1.285   1.157   7.980 -0.1952  1.2530 -0.0482
  388MOL    C7747291   1.127   0.988   7.914  0.1610 -0.2666 -0.2856
  388MOL    H7847292   1.124   0.882   7.889 -1.7764 -0.1118 -0.8236
  388MOL    H7947293   1.056   1.023   7.839  1.0127 -0.2807 -1.1023
  388MOL    C8047294   1.047   1.005   8.048  0.4429  0.0163 -0.1658
  388MOL    F8147295   1.000   1.129   8.055  0.3863  0.3525 -0.0184
  388MOL    F8247296   0.936   0.928   8.049  0.4531 -0.2396 -0.3988
  388MOL    C8347297   1.131   0.971   8.173  0.1716  0.1014 -0.7059
  388MOL    H8447298   1.234   1.004   8.161  0.9128 -1.5622  0.7896
  388MOL    H8547299   1.144   0.863   8.178 -0.2808  0.1286  1.6515
  388MOL    C8647300   1.083   1.028   8.310  0.5240  0.3020 -0.0519
  388MOL    F8747301   1.090   1.166   8.316 -0.0409  0.5133 -0.5442
  388MOL    F8847302   0.956   0.984   8.320 -0.3125 -0.2254  0.1750
  388MOL    C8947303   1.161   0.974   0.079 -0.0407  0.2702 -0.2647
  388MOL    H9047304   1.255   1.028   0.091  1.6283 -2.3362 -1.1334
  388MOL    H9147305   1.193   0.875   0.048 -1.4750 -0.2594 -0.1203
  388MOL    C9247306   1.082   0.967   0.211  0.3907  0.7907 -0.2537
  388MOL    F9347307   1.031   1.090   0.235 -0.1732 -0.3298 -0.7852
  388MOL    F9447308   0.980   0.883   0.206 -0.2274  0.5511 -0.2192
  388MOL    C9547309   1.171   0.921   0.332  0.2199 -0.5601  0.0278
  388MOL    H9647310   1.253   0.989   0.354 -0.4140 -0.1254  1.1435
  388MOL    H9747311   1.227   0.833   0.300  1.1954  0.4512 -1.0337
  388MOL    C9847312   1.085   0.887   0.459 -0.2665  0.1970 -0.4072
  388MOL    F9947313   1.011   0.992   0.493 -0.1033  0.4870  0.1684
  388MOL   F10047314   0.999   0.791   0.442 -0.0203  0.1369  0.1695
  388MOL   C10147315   1.177   0.854   0.582 -0.4123  0.3521  0.2355
  388MOL   H10247316   1.118   0.841   0.673  0.2742 -1.0468  0.5021
  388MOL   H10347317   1.246   0.931   0.614 -0.2813  1.1705 -1.9227
  388MOL   C10447318   1.265   0.727   0.561  0.8327  0.1557 -1.1226
  388MOL   F10547319   1.187   0.625   0.518  0.2209  0.4960  0.0189
  388MOL   F10647320   1.362   0.747   0.471  0.3475 -0.3931 -0.7130
  388MOL   C10747321   1.324   0.694   0.699 -0.0491  0.9523 -0.3106
  388MOL   H10847322   1.251   0.716   0.776 -1.0956 -2.5823 -0.2129
  388MOL   H10947323   1.403   0.768   0.708  2.0000 -1.2409  0.2284
  388MOL   C11047324   1.391   0.556   0.726 -0.5203  0.4733  0.1858
  388MOL   F11147325   1.435   0.570   0.852  0.1123 -0.2425  0.1660
  388MOL   F11247326   1.301   0.462   0.729  0.2016  0.4235  0.7440
  388MOL   C11347327   1.505   0.510   0.635  0.2670 -0.2245  0.0131
  388MOL   H11447328   1.575   0.592   0.620  0.1587  0.0302  0.9066
  388MOL   H11547329   1.462   0.471   0.542  0.3270  0.4175 -0.2870
  388MOL   C11647330   1.595   0.388   0.686  0.1949 -0.3612 -0.7007
  388MOL   F11747331   1.649   0.420   0.808  0.0127  0.3391  0.1433
  388MOL   F11847332   1.522   0.284   0.707  0.2795 -0.1108  0.0860
  388MOL   C11947333   1.716   0.361   0.595 -0.0759  0.6196  0.1513
  388MOL   H12047334   1.781   0.448   0.583 -0.9040  1.1285 -0.7688
  388MOL   H12147335   1.684   0.330   0.495  1.6182  2.6870 -1.0775
  388MOL   H12247336   1.768   0.274   0.635  0.6415 -0.2406 -2.5067
  389MOL     C147337   6.639   7.758   5.709  0.1245  0.0605 -0.9719
  389MOL     F247338   6.634   7.845   5.803  0.0814 -0.1978 -0.4531
  389MOL     F347339   6.518   7.783   5.649 -0.2150  0.2664 -0.5617
  389MOL     C447340   6.643   7.613   5.764 -0.0053 -0.3040  0.2276
  389MOL     H547341   6.627   7.555   5.673  3.2036 -0.3368 -0.3935
  389MOL     H647342   6.561   7.592   5.832 -1.0410  0.4094 -0.7959
  389MOL     H747343   6.720   7.772   5.638  1.1761  0.0350  0.2027
  389MOL     C847344   6.772   7.572   5.843  0.5264 -0.0139  0.0365
  389MOL     F947345   6.740   7.454   5.895 -0.5904  0.5376 -0.0477
  389MOL    F1047346   6.862   7.554   5.753 -0.3752  0.5400 -0.0181
  389MOL    C1147347   6.810   7.662   5.965  0.1667  0.7040 -0.1091
  389MOL    H1247348   6.734   7.674   6.042 -1.2308 -0.1974 -1.3099
  389MOL    H1347349   6.820   7.768   5.942 -0.1539  1.3163  2.4518
  389MOL    C1447350   6.925   7.594   6.056  0.1868 -0.4919 -0.1742
  389MOL    F1547351   6.880   7.477   6.098  0.0996 -0.1855 -0.2577
  389MOL    F1647352   7.044   7.591   5.992  0.0728  0.0209 -0.1416
  389MOL    C1747353   6.936   7.675   6.187  0.0131  0.0258 -0.5846
  389MOL    H1847354   6.844   7.661   6.245  1.3130  3.1178  2.3569
  389MOL    H1947355   6.960   7.779   6.169  2.9611 -0.7759 -1.5017
  389MOL    C2047356   7.055   7.622   6.283 -0.4657 -0.0115 -0.2382
  389MOL    F2147357   7.048   7.703   6.388  0.5148 -0.1905  0.0463
  389MOL    F2247358   7.019   7.499   6.319 -0.1083 -0.0148 -0.2283
  389MOL    C2347359   7.208   7.627   6.251 -0.1499  0.4849  0.1823
  389MOL    H2447360   7.216   7.732   6.222  3.3269  0.2096 -0.1090
  389MOL    H2547361   7.238   7.574   6.161  0.4322  1.0340  0.0456
  389MOL    C2647362   7.310   7.600   6.361  0.2038  0.1153 -0.2800
  389MOL    F2747363   7.433   7.612   6.317 -0.7214 -0.2488  0.4809
  389MOL    F2847364   7.288   7.685   6.460 -0.6804  0.5025  0.0823
  389MOL    C2947365   7.289   7.459   6.434  0.0734 -0.2808 -1.1266
  389MOL    H3047366   7.190   7.446   6.477  1.3989  0.0752  2.1672
  389MOL    H3147367   7.358   7.454   6.518 -1.3815  0.6627  0.1465
  389MOL    C3247368   7.318   7.334   6.348  0.2243 -0.3227 -0.1259
  389MOL    F3347369   7.249   7.320   6.233  0.0102  0.2757 -0.7200
  389MOL    F3447370   7.447   7.354   6.307  0.0373 -0.2293  0.1116
  389MOL    C3547371   7.307   7.206   6.434  0.1330  0.0706  1.0734
  389MOL    H3647372   7.216   7.207   6.493 -0.5090 -0.5815  0.1210
  389MOL    H3747373   7.398   7.191   6.493  0.3857  1.9339  1.1750
  389MOL    C3847374   7.302   7.066   6.357 -0.5667  0.5550 -0.4664
  389MOL    F3947375   7.309   6.969   6.457  0.1796 -0.3111  0.1749
  389MOL    F4047376   7.178   7.061   6.302  0.0190 -0.1984 -0.2829
  389MOL    C4147377   7.413   7.045   6.247  0.4844  0.1893  0.0381
  389MOL    H4247378   7.510   7.049   6.297 -0.1625 -0.5125  1.3832
  389MOL    H4347379   7.413   7.130   6.179 -0.1052  0.0098 -0.1882
  389MOL    C4447380   7.398   6.920   6.160 -0.6332 -1.0527 -0.9102
  389MOL    F4547381   7.284   6.923   6.094  0.1990 -0.0778 -0.0459
  389MOL    F4647382   7.500   6.926   6.081 -0.2002 -0.0107  0.6478
  389MOL    C4747383   7.415   6.791   6.239 -0.7897  0.5940  0.6772
  389MOL    H4847384   7.324   6.773   6.297 -0.4576 -0.2665  0.9380
  389MOL    H4947385   7.487   6.802   6.320 -0.9543  0.1037  0.8946
  389MOL    C5047386   7.437   6.658   6.161 -0.2416  0.2164 -0.3345
  389MOL    F5147387   7.393   6.562   6.241  0.4484  0.0971 -0.0712
  389MOL    F5247388   7.361   6.650   6.053 -0.0150 -0.1519  0.3926
  389MOL    C5347389   7.580   6.630   6.134 -0.1207 -0.3261 -0.0699
  389MOL    H5447390   7.645   6.640   6.221 -0.5474  2.4634 -0.0238
  389MOL    H5547391   7.623   6.699   6.061  0.1942  0.3225  0.7196
  389MOL    C5647392   7.608   6.490   6.063  0.7452 -0.3116 -0.2921
  389MOL    F5747393   7.737   6.485   6.063  0.1089 -0.6070  0.4142
  389MOL    F5847394   7.559   6.387   6.135  0.6135 -0.0900 -0.2249
  389MOL    C5947395   7.556   6.469   5.920  0.6654  1.0257 -0.7480
  389MOL    H6047396   7.583   6.549   5.851  0.7982  1.0137 -0.7094
  389MOL    H6147397   7.449   6.489   5.924  0.2738 -1.2137  4.5400
  389MOL    C6247398   7.585   6.330   5.864 -0.0672  0.4252 -0.3044
  389MOL    F6347399   7.723   6.311   5.866  0.1881 -0.4439  0.4438
  389MOL    F6447400   7.510   6.246   5.937 -0.3471 -0.1251  0.5518
  389MOL    C6547401   7.539   6.325   5.720  0.2656 -0.3095  0.4108
  389MOL    H6647402   7.580   6.415   5.674  0.2743 -0.5649 -0.0840
  389MOL    H6747403   7.430   6.332   5.723  0.2988  0.6249 -0.1305
  389MOL    C6847404   7.572   6.201   5.634  0.0546  1.0243  0.0866
  389MOL    F6947405   7.504   6.224   5.518  0.4655 -0.2957  0.2067
  389MOL    F7047406   7.707   6.196   5.601 -0.0745  0.4242 -0.4179
  389MOL    C7147407   7.530   6.066   5.698  0.0477  0.6012 -0.2694
  389MOL    H7247408   7.434   6.087   5.745  0.6357  3.2444 -0.1292
  389MOL    H7347409   7.601   6.036   5.776 -3.6331  0.3555  3.1361
  389MOL    C7447410   7.509   5.943   5.597 -0.4570 -0.4431 -0.7837
  389MOL    F7547411   7.450   5.855   5.675 -0.4601 -0.4947  0.4267
  389MOL    F7647412   7.427   5.984   5.498 -0.1546  0.3547  0.0972
  389MOL    C7747413   7.638   5.884   5.529 -0.3574  0.4209  0.4353
  389MOL    H7847414   7.676   5.954   5.454 -0.4721 -0.7533 -0.7373
  389MOL    H7947415   7.601   5.804   5.466  0.3095  1.9498 -1.9973
  389MOL    C8047416   7.753   5.840   5.623  0.6046 -0.1923 -0.0703
  389MOL    F8147417   7.848   5.778   5.552  0.3907 -0.8414  0.2621
  389MOL    F8247418   7.812   5.952   5.672  0.0812  0.2315 -0.1774
  389MOL    C8347419   7.716   5.740   5.736  0.0834 -0.1756  0.0251
  389MOL    H8447420   7.657   5.659   5.694  1.9755 -1.2282 -0.6522
  389MOL    H8547421   7.648   5.776   5.813  2.0686 -1.6724  2.5483
  389MOL    C8647422   7.836   5.688   5.816 -0.1693  0.0163  0.0717
  389MOL    F8747423   7.779   5.607   5.907 -0.4102  0.5797  0.4301
  389MOL    F8847424   7.916   5.615   5.730  0.2658  0.0975  0.1924
  389MOL    C8947425   7.916   5.787   5.911  0.2904 -0.2546 -0.7582
  389MOL    H9047426   7.852   5.806   5.998  1.5447  1.6627 -0.2233
  389MOL    H9147427   7.940   5.884   5.867  1.7961  0.1476  0.9048
  389MOL    C9247428   8.045   5.736   5.972 -0.0678  0.1771  0.8452
  389MOL    F9347429   8.074   5.814   6.071  0.1098  0.6003 -0.4446
  389MOL    F9447430   8.014   5.623   6.028  0.0177  0.0871  0.3843
  389MOL    C9547431   8.169   5.724   5.886 -0.2572 -0.9461 -0.3411
  389MOL    H9647432   8.205   5.823   5.859 -0.6130 -0.9740 -0.9283
  389MOL    H9747433   8.147   5.673   5.791 -1.3905  0.0491 -0.6270
  389MOL    C9847434   8.294   5.645   5.943 -0.8900  0.0321  0.3699
  389MOL    F9947435   0.050   5.676   5.861  0.5536 -0.2225 -0.5067
  389MOL   F10047436   8.315   5.690   6.067 -0.0098  0.5444 -0.2471
  389MOL   C10147437   8.277   5.494   5.950  0.4358 -0.4194 -0.3917
  389MOL   H10247438   8.208   5.451   5.877  3.3624 -0.0241 -3.5655
  389MOL   H10347439   8.225   5.470   6.042 -2.1840  1.5384 -1.3129
  389MOL   C10447440   0.060   5.412   5.948  0.8064 -0.5223  0.0584
  389MOL   F10547441   0.143   5.455   6.037  0.3221  0.6360 -0.2979
  389MOL   F10647442   0.019   5.293   5.992 -0.5662 -0.0276 -0.1007
  389MOL   C10747443   0.122   5.378   5.812  0.1587 -0.1374 -0.2339
  389MOL   H10847444   0.157   5.470   5.765  2.2531 -0.8691 -0.1609
  389MOL   H10947445   0.039   5.346   5.748 -1.3003  1.9034  0.5860
  389MOL   C11047446   0.226   5.255   5.802  0.2307  0.7321 -0.3170
  389MOL   F11147447   0.162   5.139   5.829  0.4834 -0.3564 -0.7348
  389MOL   F11247448   0.265   5.251   5.674 -0.3609 -0.3225 -0.2919
  389MOL   C11347449   0.362   5.262   5.887 -0.1639 -0.1926 -0.1383
  389MOL   H11447450   0.344   5.251   5.994 -2.1456 -0.3264 -0.4540
  389MOL   H11547451   0.413   5.355   5.864 -0.7343 -0.2377 -1.6842
  389MOL   C11647452   0.453   5.136   5.869 -0.0411 -0.5424  0.3247
  389MOL   F11747453   0.384   5.035   5.908 -0.4610  0.1789  0.2669
  389MOL   F11847454   0.476   5.116   5.737  0.8776 -0.2309  0.4200
  389MOL   C11947455   0.588   5.139   5.956  0.6896 -0.1951  0.2186
  389MOL   H12047456   0.640   5.044   5.948 -0.3448 -0.6698 -1.0718
  389MOL   H12147457   0.574   5.163   6.062  0.4211  0.4089  0.0483
  389MOL   H12247458   0.657   5.215   5.920  2.4748 -1.5086  0.7923
  390MOL     C147459   2.810   1.154   7.248  0.0970  0.5328 -0.2191
  390MOL     F247460   2.799   1.137   7.377 -0.0932  0.0647 -0.1986
  390MOL     F347461   2.788   1.275   7.235 -0.0355  0.0055  0.2606
  390MOL     C447462   2.710   1.061   7.178  0.2869 -0.0472  0.0160
  390MOL     H547463   2.726   1.074   7.071  1.0208  0.7013  0.2105
  390MOL     H647464   2.607   1.095   7.189  0.6842  0.8754  0.8812
  390MOL     H747465   2.917   1.133   7.239  0.1161  0.8940 -0.8012
  390MOL     C847466   2.714   0.907   7.217  0.0757 -0.6608  0.4434
  390MOL     F947467   2.618   0.843   7.143  0.1177  0.1658  0.1871
  390MOL    F1047468   2.834   0.854   7.185  0.3313  0.0824 -0.1253
  390MOL    C1147469   2.700   0.870   7.369 -0.0233  0.2666  0.2642
  390MOL    H1247470   2.605   0.912   7.401 -0.3207 -0.2434  0.0503
  390MOL    H1347471   2.773   0.927   7.428 -0.6005 -0.3946  1.6486
  390MOL    C1447472   2.705   0.720   7.393  0.2925 -0.0607  0.0649
  390MOL    F1547473   2.608   0.659   7.327  0.0235 -0.9940 -0.3078
  390MOL    F1647474   2.819   0.672   7.350 -0.5842  0.9179  0.4497
  390MOL    C1747475   2.682   0.679   7.537  0.3171 -0.2926  0.4077
  390MOL    H1847476   2.706   0.575   7.560  1.2579  0.0378  0.9730
  390MOL    H1947477   2.578   0.686   7.570 -0.0685  0.3720 -0.9331
  390MOL    C2047478   2.758   0.757   7.650 -0.4949  0.3832  0.0799
  390MOL    F2147479   2.893   0.752   7.631  0.0523  0.1462  0.3756
  390MOL    F2247480   2.715   0.878   7.661  0.5106  0.5464 -0.5236
  390MOL    C2347481   2.736   0.687   7.787 -0.3944 -0.2235 -0.7052
  390MOL    H2447482   2.788   0.759   7.851  1.8327 -1.2281 -1.3482
  390MOL    H2547483   2.800   0.600   7.794  1.2135  1.1014  2.1076
  390MOL    C2647484   2.591   0.655   7.840 -1.1560 -0.0472  0.1300
  390MOL    F2747485   2.544   0.560   7.764 -0.4438 -0.2344  0.2669
  390MOL    F2847486   2.602   0.611   7.966 -0.1536 -0.0988 -0.4246
  390MOL    C2947487   2.493   0.776   7.845  0.0550  0.3599 -0.4558
  390MOL    H3047488   2.503   0.831   7.751  0.9500 -0.7874 -1.0483
  390MOL    H3147489   2.529   0.861   7.903  0.0119 -2.4743  3.9701
  390MOL    C3247490   2.346   0.750   7.879 -0.1585 -0.1054  0.6643
  390MOL    F3347491   2.353   0.686   7.999  0.2652  0.0006  0.2265
  390MOL    F3447492   2.291   0.871   7.899 -0.4287  0.2738  0.0139
  390MOL    C3547493   2.279   0.650   7.781 -0.0260 -0.5444 -0.4208
  390MOL    H3647494   2.327   0.552   7.779 -0.5897 -0.8315  0.1376
  390MOL    H3747495   2.288   0.687   7.679  0.9467 -0.8079 -0.4397
  390MOL    C3847496   2.123   0.631   7.802 -0.7930  0.1535 -0.6305
  390MOL    F3947497   2.070   0.741   7.776  0.2060 -0.4567  0.2222
  390MOL    F4047498   2.092   0.542   7.708 -0.2129 -0.0327  0.2440
  390MOL    C4147499   2.096   0.585   7.946  0.2518 -0.3848 -0.0191
  390MOL    H4247500   2.118   0.663   8.019 -0.2915 -0.2280 -0.0171
  390MOL    H4347501   2.153   0.498   7.979 -0.3287 -0.7835 -0.0631
  390MOL    C4447502   1.957   0.536   7.975 -0.2614  0.1265 -0.1625
  390MOL    F4547503   1.952   0.494   8.103 -0.2016 -0.4306  0.0784
  390MOL    F4647504   1.869   0.631   7.952 -0.1130  0.2907  0.4435
  390MOL    C4747505   1.917   0.416   7.895  0.2123  0.1028 -1.0142
  390MOL    H4847506   1.995   0.345   7.922 -0.0909  1.0872  2.7300
  390MOL    H4947507   1.918   0.434   7.787 -0.4805 -1.8091 -1.3566
  390MOL    C5047508   1.776   0.350   7.928  0.9933 -0.2295  0.2100
  390MOL    F5147509   1.763   0.249   7.842 -0.5052  0.2239 -0.4136
  390MOL    F5247510   1.787   0.292   8.047  0.2487  0.3255 -0.0915
  390MOL    C5347511   1.641   0.433   7.920  0.6751 -0.1678  0.5575
  390MOL    H5447512   1.649   0.521   7.983  3.4765  0.3478 -0.4216
  390MOL    H5547513   1.555   0.375   7.953  0.8699 -1.4974 -1.1680
  390MOL    C5647514   1.600   0.484   7.777  0.4512 -0.8079 -0.2509
  390MOL    F5747515   1.602   0.379   7.690 -0.2423 -0.1650 -0.2331
  390MOL    F5847516   1.475   0.526   7.788 -0.1037 -0.0095  0.3460
  390MOL    C5947517   1.675   0.614   7.721  0.5285  0.0053 -0.3943
  390MOL    H6047518   1.782   0.603   7.709  0.7097  1.3633 -0.1246
  390MOL    H6147519   1.658   0.695   7.793 -0.6280  1.6747 -2.4797
  390MOL    C6247520   1.621   0.665   7.586  0.9338  0.1344 -0.3453
  390MOL    F6347521   1.498   0.710   7.589 -0.0716 -0.6573  0.2824
  390MOL    F6447522   1.698   0.777   7.559  0.2700  0.1806 -0.1372
  390MOL    C6547523   1.616   0.564   7.460  0.2580 -0.4370 -0.6633
  390MOL    H6647524   1.570   0.621   7.379 -0.0512  0.2257 -0.0244
  390MOL    H6747525   1.541   0.489   7.485  2.2015 -1.8585  1.0266
  390MOL    C6847526   1.748   0.497   7.409  0.2785 -0.2161 -0.3730
  390MOL    F6947527   1.806   0.433   7.509  0.1819 -0.2295 -0.0577
  390MOL    F7047528   1.707   0.410   7.315 -0.1786  0.0669 -0.7694
  390MOL    C7147529   1.847   0.596   7.352 -0.2797 -0.3078 -0.8363
  390MOL    H7247530   1.871   0.671   7.428  0.5528 -2.9999  1.6378
  390MOL    H7347531   1.799   0.645   7.267  0.9011 -1.6681 -2.3181
  390MOL    C7447532   1.978   0.533   7.294  0.0348  0.5812  0.1202
  390MOL    F7547533   2.031   0.450   7.384 -0.0674 -0.2374 -0.0459
  390MOL    F7647534   1.945   0.454   7.190  0.5759 -0.1057  0.5812
  390MOL    C7747535   2.074   0.634   7.244  0.1665  0.4263 -0.2091
  390MOL    H7847536   2.029   0.705   7.175  0.8987  0.2368 -0.8974
  390MOL    H7947537   2.137   0.581   7.172  0.9714 -2.7166  2.6415
  390MOL    C8047538   2.164   0.702   7.355 -1.5816 -0.8497  0.1973
  390MOL    F8147539   2.092   0.775   7.446 -0.0774  0.3986 -0.6706
  390MOL    F8247540   2.234   0.615   7.425 -0.1759 -0.1076  0.6370
  390MOL    C8347541   2.272   0.793   7.290 -0.2553  0.3732  0.6075
  390MOL    H8447542   2.309   0.749   7.197 -1.3296  1.2781 -0.2601
  390MOL    H8547543   2.351   0.786   7.364  0.2027 -1.9131 -0.0397
  390MOL    C8647544   2.242   0.945   7.260  0.1968 -0.5734 -0.6697
  390MOL    F8747545   2.339   0.999   7.187 -0.3362  0.0390  0.4090
  390MOL    F8847546   2.135   0.952   7.177  0.4771  0.1239 -0.2497
  390MOL    C8947547   2.207   1.034   7.379 -0.1131  0.3936  0.2804
  390MOL    H9047548   2.116   1.001   7.430 -0.0694 -0.6394 -0.2954
  390MOL    H9147549   2.179   1.136   7.353 -0.9251 -0.1040 -0.8329
  390MOL    C9247550   2.322   1.044   7.481  0.3039  0.5033 -0.1550
  390MOL    F9347551   2.334   0.925   7.549  0.9970  0.4799  0.5440
  390MOL    F9447552   2.431   1.070   7.413 -0.7916  0.7496 -0.1323
  390MOL    C9547553   2.308   1.160   7.580 -0.5001  0.0242  0.3423
  390MOL    H9647554   2.220   1.146   7.642 -0.7301 -0.1415 -0.0172
  390MOL    H9747555   2.305   1.251   7.518  3.4164 -1.4268 -2.1947
  390MOL    C9847556   2.422   1.177   7.683 -0.1865  0.0514  0.0267
  390MOL    F9947557   2.419   1.062   7.751 -0.3323  0.4405  0.3770
  390MOL   F10047558   2.539   1.189   7.626  0.0218 -0.5850  0.5373
  390MOL   C10147559   2.395   1.303   7.779 -0.5059  0.0439  0.0633
  390MOL   H10247560   2.301   1.295   7.834  0.4791  0.1136  1.7920
  390MOL   H10347561   2.380   1.389   7.713  0.8913  0.6382  0.5173
  390MOL   C10447562   2.507   1.309   7.883 -0.3194 -0.5210  0.0061
  390MOL   F10547563   2.487   1.223   7.983 -0.4878 -0.6842  0.1866
  390MOL   F10647564   2.629   1.288   7.831 -0.0488  0.3343 -0.8606
  390MOL   C10747565   2.513   1.453   7.930 -0.3214 -0.1456 -0.1190
  390MOL   H10847566   2.538   1.516   7.845 -1.8045  1.4572  0.6064
  390MOL   H10947567   2.597   1.461   7.998  0.3781 -0.1015 -0.9716
  390MOL   C11047568   2.388   1.506   8.005 -0.2194 -0.3444  1.0184
  390MOL   F11147569   2.281   1.491   7.925  0.4280 -0.1964 -0.4708
  390MOL   F11247570   2.365   1.436   8.116 -0.5692 -0.2887 -0.2478
  390MOL   C11347571   2.402   1.649   8.058  0.1066  0.6785  0.7030
  390MOL   H11447572   2.488   1.652   8.125  0.9842 -2.3223 -0.2124
  390MOL   H11547573   2.317   1.675   8.121  0.2714  0.5645  0.9756
  390MOL   C11647574   2.411   1.766   7.955 -0.1002 -0.0304  0.6532
  390MOL   F11747575   2.459   1.872   8.024  0.2022 -0.2218 -0.2348
  390MOL   F11847576   2.479   1.733   7.850  0.4248  0.1284  0.4573
  390MOL   C11947577   2.281   1.825   7.898  0.1327  0.1912 -0.0955
  390MOL   H12047578   2.222   1.858   7.984  1.2917 -0.6476  1.0472
  390MOL   H12147579   2.228   1.746   7.845  1.0505 -0.1850 -0.4702
  390MOL   H12247580   2.283   1.911   7.831 -1.7207 -0.2479 -0.7329
  391MOL     C147581   7.114   6.210   6.910 -0.7760  0.7535 -0.1727
  391MOL     F247582   7.215   6.242   6.821 -0.2329  0.2876 -0.6070
  391MOL     F347583   7.023   6.139   6.847 -0.2262  0.4257 -0.0866
  391MOL     C447584   7.049   6.343   6.948  0.4108  0.0867 -0.8023
  391MOL     H547585   6.954   6.335   7.000  1.4152 -1.0221  0.9466
  391MOL     H647586   7.023   6.393   6.855  1.2101  1.2744 -0.4052
  391MOL     H747587   7.162   6.152   6.989 -3.3228  0.6738  1.3631
  391MOL     C847588   7.122   6.440   7.043 -0.1797 -0.6116 -0.6233
  391MOL     F947589   7.049   6.548   7.059  0.8324  0.3114  0.4816
  391MOL    F1047590   7.137   6.373   7.158  0.0482  0.5029 -0.0894
  391MOL    C1147591   7.265   6.474   6.996 -0.0394 -0.4749  1.0902
  391MOL    H1247592   7.249   6.524   6.900  1.9220  0.0978  1.0427
  391MOL    H1347593   7.326   6.384   6.986  0.4720 -0.0921  0.7221
  391MOL    C1447594   7.345   6.574   7.081  0.4039 -0.6221  0.2975
  391MOL    F1547595   7.272   6.683   7.116 -0.0916  0.0251 -0.9440
  391MOL    F1647596   7.377   6.522   7.203 -0.0745  1.0935 -0.2129
  391MOL    C1747597   7.482   6.613   7.018 -0.3134  0.5739 -0.3570
  391MOL    H1847598   7.535   6.517   7.014  0.4286  0.9424  0.4817
  391MOL    H1947599   7.531   6.674   7.093  0.8482 -1.3341  0.4924
  391MOL    C2047600   7.476   6.687   6.883 -0.5756 -1.0903  0.1228
  391MOL    F2147601   7.430   6.619   6.781 -0.2011  0.1310 -0.4298
  391MOL    F2247602   7.396   6.793   6.885  0.4200 -0.0894  0.2039
  391MOL    C2347603   7.620   6.736   6.847 -0.2411 -0.8471  0.4186
  391MOL    H2447604   7.649   6.803   6.928 -1.3184 -2.5234  2.2487
  391MOL    H2547605   7.607   6.791   6.754  0.5498  0.5526  1.1155
  391MOL    C2647606   7.724   6.623   6.816 -0.0558 -0.5438  0.4812
  391MOL    F2747607   7.752   6.562   6.936 -0.3400  0.3333 -0.0624
  391MOL    F2847608   7.675   6.540   6.725 -0.2610  0.2681 -0.3407
  391MOL    C2947609   7.860   6.684   6.769  0.6791  0.8634  0.0549
  391MOL    H3047610   7.892   6.752   6.847  0.0604 -1.3347  2.2838
  391MOL    H3147611   7.848   6.748   6.681  3.1492  1.2677 -0.0194
  391MOL    C3247612   7.974   6.581   6.750  0.6501  0.6726 -0.8232
  391MOL    F3347613   8.087   6.647   6.733  0.2325 -0.1559 -0.2116
  391MOL    F3447614   7.997   6.507   6.859  0.4832  0.8377  0.6344
  391MOL    C3547615   7.941   6.506   6.622 -0.4472 -0.4291 -0.6282
  391MOL    H3647616   7.894   6.580   6.558 -0.6601 -0.0460 -0.0305
  391MOL    H3747617   7.873   6.423   6.641  2.6979 -3.0935 -0.4528
  391MOL    C3847618   8.059   6.436   6.555  0.0865 -0.3809  0.3497
  391MOL    F3947619   8.141   6.534   6.505  0.0662 -0.1650 -0.0722
  391MOL    F4047620   8.118   6.368   6.646 -0.3513 -0.2565 -0.7817
  391MOL    C4147621   8.033   6.326   6.445 -0.1976 -0.1480  0.1560
  391MOL    H4247622   7.958   6.263   6.493  0.3557 -0.5844  0.4455
  391MOL    H4347623   8.119   6.261   6.432 -2.0358 -2.6861  0.3738
  391MOL    C4447624   7.967   6.381   6.315 -0.8683  0.3609 -0.6300
  391MOL    F4547625   7.844   6.430   6.342  0.1082 -0.3840 -0.0572
  391MOL    F4647626   8.038   6.483   6.281  0.1897 -0.1989  0.8776
  391MOL    C4747627   7.977   6.283   6.198 -0.2133  0.2358 -0.2530
  391MOL    H4847628   8.078   6.273   6.160 -0.3719  1.2716 -0.9697
  391MOL    H4947629   7.926   6.335   6.116 -2.1865 -1.9473 -0.4859
  391MOL    C5047630   7.910   6.142   6.231  0.2605  0.1131 -0.1815
  391MOL    F5147631   7.916   6.072   6.112 -0.1576 -0.1898 -0.2643
  391MOL    F5247632   7.980   6.070   6.317  0.1215 -0.1704 -0.2966
  391MOL    C5347633   7.763   6.149   6.272  0.1241  0.6825  0.1691
  391MOL    H5447634   7.718   6.233   6.219 -0.1281 -0.5498 -1.6239
  391MOL    H5547635   7.756   6.183   6.376 -2.1617  1.3558 -0.1879
  391MOL    C5647636   7.675   6.025   6.258 -0.2738  0.7372 -0.3475
  391MOL    F5747637   7.547   6.057   6.291 -0.2599  0.3705  0.0432
  391MOL    F5847638   7.674   5.985   6.136  0.0803 -0.1401 -0.1903
  391MOL    C5947639   7.719   5.902   6.332  0.0074  0.4077  0.1413
  391MOL    H6047640   7.811   5.871   6.283 -0.5514  0.7697 -1.1594
  391MOL    H6147641   7.652   5.820   6.309 -0.8735  1.1898 -0.1241
  391MOL    C6247642   7.733   5.908   6.485  0.1338 -0.2972  0.2929
  391MOL    F6347643   7.821   5.995   6.516  0.1266  0.1730  0.1649
  391MOL    F6447644   7.614   5.952   6.526  0.0189 -0.1454  0.2699
  391MOL    C6547645   7.746   5.765   6.554  0.0902  0.5621 -0.4267
  391MOL    H6647646   7.662   5.698   6.536  1.8960 -1.8331 -0.1217
  391MOL    H6747647   7.751   5.776   6.662 -3.4354  2.4749 -0.3659
  391MOL    C6847648   7.860   5.674   6.506  0.5897  0.1041 -0.1880
  391MOL    F6947649   7.826   5.623   6.384 -0.2456  0.3190  0.2157
  391MOL    F7047650   7.975   5.743   6.504  0.1141 -0.0502  0.2092
  391MOL    C7147651   7.891   5.558   6.597  0.6044  0.2548  0.1602
  391MOL    H7247652   7.931   5.600   6.689  0.8663 -1.2243  0.7307
  391MOL    H7347653   7.969   5.491   6.562 -0.1845 -0.8156  0.4164
  391MOL    C7447654   7.764   5.469   6.605 -0.3556 -0.3630 -0.1456
  391MOL    F7547655   7.671   5.515   6.684  0.0327  0.0953  0.0453
  391MOL    F7647656   7.710   5.447   6.483  0.4006  0.1040 -0.1064
  391MOL    C7747657   7.803   5.326   6.657  0.5429  0.8027 -0.1558
  391MOL    H7847658   7.865   5.352   6.743 -0.8824  0.2430  1.0585
  391MOL    H7947659   7.877   5.278   6.593 -0.8949  0.7086 -1.7680
  391MOL    C8047660   7.687   5.229   6.693 -0.4187 -0.2883  0.6915
  391MOL    F8147661   7.733   5.108   6.695  0.1130  0.2237 -0.0749
  391MOL    F8247662   7.651   5.270   6.812  0.2487  0.4544  0.2807
  391MOL    C8347663   7.569   5.238   6.597 -0.5435 -0.4185 -0.3122
  391MOL    H8447664   7.599   5.222   6.493  2.6879  2.3097  0.1091
  391MOL    H8547665   7.520   5.336   6.595  0.6932  0.1947 -0.8906
  391MOL    C8647666   7.457   5.130   6.611  0.6009  0.3140 -0.7013
  391MOL    F8747667   7.441   5.092   6.740 -0.2244  0.1530 -0.2624
  391MOL    F8847668   7.349   5.190   6.559 -0.0870  0.2477  0.0450
  391MOL    C8947669   7.488   5.004   6.522 -0.3556 -0.3871 -1.1153
  391MOL    H9047670   7.593   4.978   6.535  0.0328  1.6523  0.1290
  391MOL    H9147671   7.495   5.042   6.421 -0.4655 -0.2108 -1.0557
  391MOL    C9247672   7.394   4.884   6.545  0.6861  0.0478  0.4731
  391MOL    F9347673   7.408   4.803   6.650 -0.3321 -0.2098  0.0043
  391MOL    F9447674   7.268   4.930   6.533 -0.0639  0.1001  0.0336
  391MOL    C9547675   7.393   4.801   6.410 -0.2257 -0.3022  0.4849
  391MOL    H9647676   7.370   4.874   6.332 -0.6825  0.4837  1.3373
  391MOL    H9747677   7.318   4.723   6.400 -0.8399  0.6686 -3.3723
  391MOL    C9847678   7.521   4.732   6.380  0.1909  0.3122 -0.4566
  391MOL    F9947679   7.618   4.821   6.358  0.7742 -0.1218  0.2241
  391MOL   F10047680   7.560   4.661   6.485  0.4598 -0.3569  0.4899
  391MOL   C10147681   7.511   4.642   6.260  0.1614 -0.5011 -0.5930
  391MOL   H10247682   7.437   4.563   6.276  0.8101 -0.9988 -0.0237
  391MOL   H10347683   7.608   4.594   6.252  1.8380  2.4720  1.2850
  391MOL   C10447684   7.476   4.702   6.121 -0.1831 -0.7087 -0.6626
  391MOL   F10547685   7.349   4.748   6.128  0.1716 -0.4614 -0.4020
  391MOL   F10647686   7.554   4.802   6.088 -0.6611 -0.3136 -0.2406
  391MOL   C10747687   7.478   4.587   6.015 -0.0374  1.0769 -0.0093
  391MOL   H10847688   7.466   4.486   6.054  1.5050  0.5649 -0.8173
  391MOL   H10947689   7.583   4.573   5.988  0.0380  0.1503  0.7193
  391MOL   C11047690   7.403   4.607   5.881  0.3185  0.4913 -0.3481
  391MOL   F11147691   7.427   4.506   5.803 -0.1586  0.1016  0.3927
  391MOL   F11247692   7.270   4.608   5.912 -0.0818  0.1258 -0.1959
  391MOL   C11347693   7.447   4.731   5.803 -0.0998  0.4493  0.1359
  391MOL   H11447694   7.554   4.719   5.786 -0.0790  1.2157 -0.2883
  391MOL   H11547695   7.448   4.819   5.869  0.0354 -0.6650  1.6554
  391MOL   C11647696   7.382   4.747   5.672 -0.5803 -0.4579  0.0471
  391MOL   F11747697   7.406   4.638   5.602  0.5980 -0.2244  0.7489
  391MOL   F11847698   7.249   4.757   5.681 -0.0942 -0.4515  0.3578
  391MOL   C11947699   7.438   4.860   5.581  0.4355 -0.2425  0.5696
  391MOL   H12047700   7.420   4.962   5.614  1.7787 -0.1223  0.9560
  391MOL   H12147701   7.401   4.848   5.479 -0.0114 -1.6965  0.8986
  391MOL   H12247702   7.546   4.842   5.575  0.2178 -1.0043 -1.4415
  392MOL     C147703   2.568   6.612   6.432 -0.5696 -0.5948  0.2600
  392MOL     F247704   2.666   6.688   6.467 -0.1742  0.1489 -0.3056
  392MOL     F347705   2.510   6.562   6.540  0.0367 -0.2948  0.3884
  392MOL     C447706   2.626   6.500   6.350 -0.6785 -0.2381  0.2574
  392MOL     H547707   2.553   6.419   6.356  1.6628 -2.3563  1.3542
  392MOL     H647708   2.715   6.450   6.389 -0.6370 -0.5423 -0.2183
  392MOL     H747709   2.495   6.668   6.373  2.5003  0.9061 -2.2403
  392MOL     C847710   2.627   6.533   6.205  0.0103  1.3235 -0.0982
  392MOL     F947711   2.639   6.413   6.147 -0.1373  0.6007 -0.1868
  392MOL    F1047712   2.511   6.579   6.169  0.0707 -0.4644  0.1673
  392MOL    C1147713   2.733   6.632   6.163 -0.0586  0.2976 -0.0882
  392MOL    H1247714   2.821   6.608   6.222 -0.6821 -1.3016  0.2058
  392MOL    H1347715   2.699   6.731   6.195  1.5692  1.1721 -0.9862
  392MOL    C1447716   2.745   6.652   6.009  0.4986 -0.3123  0.0530
  392MOL    F1547717   2.631   6.695   5.953  0.6097  0.2695  0.1013
  392MOL    F1647718   2.834   6.750   5.989 -0.3360  0.2484  0.1904
  392MOL    C1747719   2.791   6.526   5.933 -0.3162 -0.1395 -0.1823
  392MOL    H1847720   2.827   6.572   5.841  1.3722 -1.0250  0.0137
  392MOL    H1947721   2.713   6.453   5.910  0.2532 -0.6043 -0.6754
  392MOL    C2047722   2.907   6.443   5.990  0.3406 -0.0879 -0.0367
  392MOL    F2147723   3.004   6.520   6.027  0.0093 -0.7984  0.1493
  392MOL    F2247724   2.873   6.362   6.086  0.1563 -0.5828 -0.0897
  392MOL    C2347725   2.978   6.349   5.889 -0.6194  0.3324  0.0640
  392MOL    H2447726   3.058   6.306   5.948  0.5848 -0.2629 -1.9709
  392MOL    H2547727   3.039   6.408   5.821  1.1530  0.7253  1.9695
  392MOL    C2647728   2.896   6.241   5.819 -0.7935 -0.5458  0.3551
  392MOL    F2747729   2.826   6.174   5.907 -0.1823 -0.1597 -0.1125
  392MOL    F2847730   2.815   6.295   5.731  0.2712  0.0212  0.4644
  392MOL    C2947731   2.991   6.137   5.749 -0.1003 -1.0229 -0.3608
  392MOL    H3047732   3.052   6.083   5.821  2.6468  1.4655 -0.7201
  392MOL    H3147733   3.061   6.199   5.693 -0.4252 -0.7741 -0.4971
  392MOL    C3247734   2.921   6.038   5.662  0.3325  0.4473 -0.3244
  392MOL    F3347735   2.838   5.969   5.741  0.3524  0.3151 -0.7879
  392MOL    F3447736   2.831   6.101   5.591  0.3359 -0.1426  0.3112
  392MOL    C3547737   3.004   5.949   5.570 -0.0101 -0.4837  0.6724
  392MOL    H3647738   3.038   6.007   5.483 -1.1481 -2.2920 -1.0057
  392MOL    H3747739   2.940   5.874   5.524 -0.9769  0.6646  0.1290
  392MOL    C3847740   3.128   5.877   5.640  0.3208  0.4621 -0.7604
  392MOL    F3947741   3.174   5.792   5.552 -0.3319  0.5672  0.1389
  392MOL    F4047742   3.223   5.963   5.659 -0.4319 -0.0605  0.2018
  392MOL    C4147743   3.083   5.791   5.765 -1.0986 -0.3127 -0.3871
  392MOL    H4247744   3.013   5.719   5.724  0.7599 -0.7776 -2.9138
  392MOL    H4347745   3.035   5.859   5.835  1.9487  1.0174  0.5411
  392MOL    C4447746   3.208   5.730   5.834  0.6262  0.1722 -0.1151
  392MOL    F4547747   3.276   5.669   5.745 -0.0279  0.1029 -1.0704
  392MOL    F4647748   3.283   5.820   5.893 -0.0350  0.0629  0.0837
  392MOL    C4747749   3.165   5.626   5.937  0.0435  0.3512 -0.1386
  392MOL    H4847750   3.119   5.549   5.874  1.1807 -0.8120  0.4531
  392MOL    H4947751   3.092   5.671   6.005 -0.5414  1.6122 -1.5617
  392MOL    C5047752   3.285   5.570   6.024 -0.6063  0.2725  0.6463
  392MOL    F5147753   3.337   5.673   6.089  0.4587 -0.1118 -0.1492
  392MOL    F5247754   3.225   5.485   6.108 -0.3271  0.0771 -0.6182
  392MOL    C5347755   3.392   5.488   5.937  0.2321 -0.6323 -0.0259
  392MOL    H5447756   3.457   5.557   5.884  0.6079 -0.7282  0.3119
  392MOL    H5547757   3.357   5.421   5.858 -0.7487 -2.3882  1.8478
  392MOL    C5647758   3.508   5.415   6.023 -0.3695  0.0231  0.6235
  392MOL    F5747759   3.458   5.298   6.068  0.2753  0.3107  0.2127
  392MOL    F5847760   3.602   5.375   5.928 -0.4971  0.0894 -0.0912
  392MOL    C5947761   3.566   5.503   6.143  0.4091 -0.7429 -0.2454
  392MOL    H6047762   3.476   5.521   6.201  0.6472 -2.5606  0.7323
  392MOL    H6147763   3.606   5.597   6.106 -1.6248  0.1868 -0.1334
  392MOL    C6247764   3.672   5.438   6.238  0.0360 -0.3387 -0.5387
  392MOL    F6347765   3.639   5.328   6.304  0.3450 -0.4406 -0.3446
  392MOL    F6447766   3.779   5.400   6.166  0.7657 -0.0974 -0.0469
  392MOL    C6547767   3.732   5.532   6.342 -0.6932  0.6633  0.3474
  392MOL    H6647768   3.810   5.595   6.299 -0.0760 -0.6159 -0.4107
  392MOL    H6747769   3.795   5.474   6.409 -1.1590 -0.7446 -0.4214
  392MOL    C6847770   3.643   5.625   6.426 -0.7213  0.8395  0.0757
  392MOL    F6947771   3.713   5.688   6.518 -0.3911  0.4536  0.1152
  392MOL    F7047772   3.589   5.718   6.342 -0.1210 -0.4295 -0.0064
  392MOL    C7147773   3.543   5.543   6.508 -0.7119  0.9794  0.2732
  392MOL    H7247774   3.604   5.486   6.578  1.5233  2.3151 -0.5243
  392MOL    H7347775   3.484   5.482   6.440 -2.9751  0.5593  2.5386
  392MOL    C7447776   3.439   5.620   6.598 -0.3474 -0.2478  0.0323
  392MOL    F7547777   3.502   5.704   6.685  0.3622 -0.0612 -0.0536
  392MOL    F7647778   3.372   5.696   6.512  0.6086 -0.1648  0.0724
  392MOL    C7747779   3.333   5.532   6.675 -0.1281  0.2782  0.8944
  392MOL    H7847780   3.395   5.444   6.693  0.0590 -0.2580 -2.1086
  392MOL    H7947781   3.251   5.509   6.608  1.2619  1.4641 -1.2955
  392MOL    C8047782   3.258   5.611   6.787 -0.4838 -0.5506  0.1437
  392MOL    F8147783   3.169   5.518   6.835 -0.2124 -0.7305  0.1305
  392MOL    F8247784   3.348   5.630   6.882 -0.2256 -0.5945  0.1319
  392MOL    C8347785   3.194   5.746   6.748  0.0036 -0.4954  0.8584
  392MOL    H8447786   3.259   5.815   6.694 -0.7139 -0.8037 -0.4392
  392MOL    H8547787   3.172   5.807   6.835  1.7754  2.4511 -0.6878
  392MOL    C8647788   3.063   5.735   6.671  0.2675 -0.4142 -0.5444
  392MOL    F8747789   3.078   5.669   6.555  0.6642  0.1135  0.0321
  392MOL    F8847790   2.975   5.670   6.749  0.3401  0.9036 -0.0203
  392MOL    C8947791   2.994   5.871   6.632 -0.2786 -0.6733 -0.1545
  392MOL    H9047792   2.956   5.912   6.725 -0.7215 -0.7121 -0.3152
  392MOL    H9147793   2.906   5.846   6.572  0.1866 -0.6014 -0.8740
  392MOL    C9247794   3.075   5.983   6.556 -0.6291 -0.2760  0.0528
  392MOL    F9347795   2.988   6.072   6.522  0.2867 -0.1467 -0.4661
  392MOL    F9447796   3.176   6.036   6.632 -0.0754  0.4444  0.2039
  392MOL    C9547797   3.140   5.930   6.424 -0.4026  0.6371  0.7768
  392MOL    H9647798   3.060   5.876   6.374  0.3260 -0.3028  0.6189
  392MOL    H9747799   3.212   5.854   6.454  1.2221  1.3451 -1.2154
  392MOL    C9847800   3.214   6.039   6.340 -0.0562  0.4552  0.5710
  392MOL    F9947801   3.122   6.128   6.299 -0.1398 -0.2474  0.3652
  392MOL   F10047802   3.299   6.096   6.424 -0.1559 -0.1421 -0.6820
  392MOL   C10147803   3.292   5.982   6.221 -0.3957  0.4880 -0.2274
  392MOL   H10247804   3.232   5.905   6.174  2.2825 -1.8782  0.1335
  392MOL   H10347805   3.382   5.930   6.254 -0.5333  1.1990  1.3204
  392MOL   C10447806   3.334   6.089   6.116  0.0055 -0.0613 -0.2675
  392MOL   F10547807   3.231   6.112   6.039  0.1534 -0.4459 -0.2849
  392MOL   F10647808   3.360   6.211   6.167 -0.0233  0.8645 -0.5419
  392MOL   C10747809   3.458   6.060   6.027 -0.4730  0.5615  0.8121
  392MOL   H10847810   3.446   5.959   5.988  0.9095  1.1228 -1.1607
  392MOL   H10947811   3.547   6.058   6.090  0.4370 -2.3549 -0.5220
  392MOL   C11047812   3.464   6.148   5.899 -0.3980 -0.3240  1.2598
  392MOL   F11147813   3.370   6.106   5.809 -0.3042 -0.3645  0.2883
  392MOL   F11247814   3.433   6.277   5.923  0.1630  0.5908  0.5305
  392MOL   C11347815   3.594   6.137   5.819  0.0371 -0.4708 -0.4142
  392MOL   H11447816   3.603   6.031   5.793 -3.0371 -0.9515  0.3113
  392MOL   H11547817   3.680   6.143   5.886 -0.8318 -0.6515  0.7302
  392MOL   C11647818   3.630   6.234   5.702  0.0536  0.4088  0.0541
  392MOL   F11747819   3.673   6.350   5.760 -0.1765  0.3639  0.1813
  392MOL   F11847820   3.736   6.189   5.636  0.2645  0.3366  0.1234
  392MOL   C11947821   3.517   6.263   5.601  0.0322  0.0407  0.7487
  392MOL   H12047822   3.528   6.364   5.561  0.4212 -0.7992 -1.2806
  392MOL   H12147823   3.430   6.286   5.663  0.1583  0.6101  0.7188
  392MOL   H12247824   3.499   6.179   5.535  0.3790  0.6839 -0.1675
  393MOL     C147825   6.231   1.088   5.459  0.2424  0.4291  0.2803
  393MOL     F247826   6.338   1.031   5.522 -0.3449 -0.1603  0.1200
  393MOL     F347827   6.107   1.055   5.502 -0.7510  0.5729  0.2159
  393MOL     C447828   6.234   1.058   5.310  0.1319  0.6713 -0.0527
  393MOL     H547829   6.140   1.095   5.266  1.7248  2.3235 -2.1949
  393MOL     H647830   6.227   0.955   5.275 -2.8474  1.0809 -0.8135
  393MOL     H747831   6.235   1.195   5.480 -1.1134  0.6223 -0.3640
  393MOL     C847832   6.345   1.125   5.236 -0.0726 -1.0330 -0.1696
  393MOL     F947833   6.338   1.255   5.257  0.3564  0.4344  0.1758
  393MOL    F1047834   6.459   1.075   5.284  0.2575  0.0758  0.2080
  393MOL    C1147835   6.332   1.106   5.084  1.0963 -0.5293  0.2230
  393MOL    H1247836   6.231   1.126   5.048  0.9993 -2.2524 -0.5346
  393MOL    H1347837   6.334   0.997   5.082  0.9618 -0.5381  0.5202
  393MOL    C1447838   6.433   1.175   4.985  0.4865  0.4032  0.3181
  393MOL    F1547839   6.398   1.307   4.984  0.0523 -0.2632  0.0194
  393MOL    F1647840   6.552   1.164   5.025 -0.2854  0.3308  0.1821
  393MOL    C1747841   6.420   1.108   4.845 -0.2955 -0.5062 -0.0070
  393MOL    H1847842   6.318   1.122   4.809  0.3962 -0.7837 -2.1000
  393MOL    H1947843   6.445   1.002   4.850  2.0477 -0.0602 -1.6875
  393MOL    C2047844   6.505   1.165   4.733 -0.7027  0.4218 -0.1813
  393MOL    F2147845   6.625   1.158   4.772  0.0257  0.2794 -0.2512
  393MOL    F2247846   6.496   1.083   4.632 -0.5209  0.1775 -0.3684
  393MOL    C2347847   6.483   1.310   4.689 -0.0085 -0.2885  0.7210
  393MOL    H2447848   6.562   1.325   4.614 -1.0882  2.4296  0.0659
  393MOL    H2547849   6.512   1.381   4.766 -1.7059  1.0740  0.1391
  393MOL    C2647850   6.348   1.357   4.629  0.0770  0.5481  0.1403
  393MOL    F2747851   6.270   1.405   4.721  0.3484  0.0602  0.8313
  393MOL    F2847852   6.370   1.461   4.545 -0.3376  0.5929  0.0948
  393MOL    C2947853   6.278   1.249   4.550  0.2283  0.1809 -1.2741
  393MOL    H3047854   6.286   1.148   4.589 -2.0075  0.6730  0.5527
  393MOL    H3147855   6.330   1.251   4.454  0.1836 -0.0274 -1.3010
  393MOL    C3247856   6.129   1.283   4.509 -0.2162 -0.2578  0.7775
  393MOL    F3347857   6.048   1.282   4.617  0.0128 -0.4290 -0.0225
  393MOL    F3447858   6.115   1.408   4.465 -0.0311 -0.6178  0.0159
  393MOL    C3547859   6.054   1.189   4.407  0.2983  0.4535 -0.0468
  393MOL    H3647860   6.089   1.195   4.304 -1.5374  1.5200 -0.6272
  393MOL    H3747861   5.948   1.212   4.403  0.5695  2.1128  1.5357
  393MOL    C3847862   6.065   1.034   4.444 -0.1886 -1.0923 -0.4360
  393MOL    F3947863   6.191   0.993   4.435 -0.4261 -0.0169 -0.1272
  393MOL    F4047864   6.032   1.028   4.569  0.9917 -0.1884  0.0455
  393MOL    C4147865   5.961   0.947   4.364 -0.3201 -0.0921 -0.2350
  393MOL    H4247866   5.981   0.959   4.257 -0.4444  0.6051 -0.1815
  393MOL    H4347867   5.863   0.992   4.376 -0.3222 -0.1832  0.0919
  393MOL    C4447868   5.937   0.788   4.398 -0.4526  0.4398  0.6587
  393MOL    F4547869   5.895   0.768   4.519  0.1098 -0.0313 -0.2309
  393MOL    F4647870   5.844   0.741   4.312  0.3128 -0.4079 -0.3003
  393MOL    C4747871   6.060   0.708   4.378  0.4014  1.0612  1.0638
  393MOL    H4847872   6.122   0.735   4.463 -0.5952 -0.1032  2.1756
  393MOL    H4947873   6.109   0.750   4.290  0.2511 -2.4563 -0.7749
  393MOL    C5047874   6.038   0.554   4.365  1.3597  0.8035 -0.0594
  393MOL    F5147875   5.971   0.527   4.247 -0.1403  0.0640 -0.5211
  393MOL    F5247876   6.155   0.501   4.358  0.3111 -0.2298  0.3054
  393MOL    C5347877   5.953   0.481   4.472 -0.3194  0.1699 -0.2193
  393MOL    H5447878   5.944   0.375   4.448  0.0318 -0.1991  1.2050
  393MOL    H5547879   5.851   0.518   4.473  0.3430  2.0397  0.6494
  393MOL    C5647880   6.013   0.469   4.612 -0.4307 -0.1294 -0.7696
  393MOL    F5747881   6.143   0.451   4.612  0.6910  0.1805  0.5272
  393MOL    F5847882   6.014   0.594   4.667 -0.4044  0.1248  0.0208
  393MOL    C5947883   5.935   0.373   4.703 -0.3523  0.3522  0.2402
  393MOL    H6047884   5.832   0.407   4.716 -1.2776 -1.8083 -0.9826
  393MOL    H6147885   5.990   0.380   4.797  0.8098  1.1360 -0.4874
  393MOL    C6247886   5.940   0.223   4.669  0.3574  0.9443 -0.2146
  393MOL    F6347887   5.852   0.192   4.566  0.1770 -0.0941  0.0890
  393MOL    F6447888   6.069   0.195   4.638 -0.2532  0.0230  0.1734
  393MOL    C6547889   5.906   0.124   4.780 -0.5152 -0.1463  0.1846
  393MOL    H6647890   5.987   0.130   4.853 -1.8019 -1.1593  1.7236
  393MOL    H6747891   5.914   0.024   4.738 -0.2418  0.2525 -0.7369
  393MOL    C6847892   5.773   0.142   4.852 -0.4048  0.1494  0.2428
  393MOL    F6947893   5.786   0.260   4.906  0.4534 -0.7077 -0.2241
  393MOL    F7047894   5.687   0.132   4.752 -0.5944 -0.9331 -0.5238
  393MOL    C7147895   5.727   0.042   4.960 -0.7539  0.4682  0.0915
  393MOL    H7247896   5.807   0.024   5.032 -0.0538 -0.8559 -0.9731
  393MOL    H7347897   5.726   8.293   4.912  3.4849  1.1346 -1.5758
  393MOL    C7447898   5.590   0.067   5.030 -0.0578  0.1633  0.4562
  393MOL    F7547899   5.566   8.314   5.107  0.2926  0.4766 -0.0802
  393MOL    F7647900   5.600   0.172   5.109  0.1901 -0.3146 -0.0710
  393MOL    C7747901   5.464   0.058   4.937  0.0907 -0.9629  0.1617
  393MOL    H7847902   5.476   8.320   4.873  2.5381  0.0814 -0.8721
  393MOL    H7947903   5.472   0.141   4.867  1.9079 -1.5679 -0.3765
  393MOL    C8047904   5.322   0.074   5.003 -0.1546  0.8272 -0.3375
  393MOL    F8147905   5.317   0.005   5.117 -0.1298  0.3731 -0.1649
  393MOL    F8247906   5.315   0.205   5.044 -0.3124  0.6123 -0.0502
  393MOL    C8347907   5.191   0.049   4.929 -0.5368  0.3486 -0.1679
  393MOL    H8447908   5.173   0.125   4.853  0.4711  2.5740  1.7429
  393MOL    H8547909   5.105   0.082   4.988 -0.7466 -2.0116  0.9027
  393MOL    C8647910   5.162   8.256   4.886 -0.0162  0.1898 -0.2500
  393MOL    F8747911   5.056   8.268   4.809  0.0167  0.0077 -0.2315
  393MOL    F8847912   5.269   8.205   4.821  0.5497 -0.0505  0.1430
  393MOL    C8947913   5.118   8.154   4.997  0.0554 -0.1536 -0.4110
  393MOL    H9047914   5.029   8.187   5.051  0.7286  0.9825  0.0198
  393MOL    H9147915   5.197   8.147   5.073 -0.4538 -0.5534  0.0931
  393MOL    C9247916   5.086   8.011   4.939 -0.0400  0.1364  0.5524
  393MOL    F9347917   5.023   7.956   5.044  0.4294  0.9591  0.2175
  393MOL    F9447918   5.004   8.009   4.842  0.0197 -0.2920  0.4981
  393MOL    C9547919   5.207   7.917   4.900  0.1413  0.4840 -0.1352
  393MOL    H9647920   5.244   7.951   4.803 -0.5414  0.3284 -0.4621
  393MOL    H9747921   5.173   7.814   4.883 -2.0326  1.2842 -0.8916
  393MOL    C9847922   5.331   7.917   4.983 -0.0445  1.1887  0.4631
  393MOL    F9947923   5.407   7.826   4.919 -0.2466  0.5845 -0.0563
  393MOL   F10047924   5.387   8.033   4.964 -0.0130  0.2068 -0.3881
  393MOL   C10147925   5.305   7.897   5.136  0.2418  0.0017  0.3880
  393MOL   H10247926   5.256   7.801   5.151 -0.4674  0.1447 -0.9062
  393MOL   H10347927   5.235   7.974   5.167  0.4692  0.9742 -1.4170
  393MOL   C10447928   5.435   7.887   5.225  0.0474 -0.1512 -0.3053
  393MOL   F10547929   5.400   7.847   5.350  0.0434  0.1454 -0.1585
  393MOL   F10647930   5.514   7.786   5.181  0.0500 -0.0485 -0.0013
  393MOL   C10747931   5.519   8.022   5.230  0.1480  1.0523 -0.7004
  393MOL   H10847932   5.470   8.103   5.285 -2.3009 -0.0645 -1.1790
  393MOL   H10947933   5.538   8.061   5.130 -1.8429  1.4130 -0.9501
  393MOL   C11047934   5.655   8.001   5.293  0.0282  0.5562 -0.9701
  393MOL   F11147935   5.635   7.962   5.417  0.2254 -0.2800 -0.0031
  393MOL   F11247936   5.732   7.910   5.232  0.0863  0.1691  0.4208
  393MOL   C11347937   5.715   8.140   5.300 -0.4377  0.1086 -0.4989
  393MOL   H11447938   5.655   8.216   5.349 -0.2895  0.4032 -0.7784
  393MOL   H11547939   5.729   8.162   5.195 -0.6171  1.3199 -0.2697
  393MOL   C11647940   5.860   8.147   5.351  0.2133  0.4721 -0.1001
  393MOL   F11747941   5.932   8.072   5.271  0.1748 -0.4290  0.0494
  393MOL   F11847942   5.904   8.274   5.332  0.2151  0.0841 -0.7383
  393MOL   C11947943   5.891   8.103   5.501  0.4511 -0.3440  0.6399
  393MOL   H12047944   5.883   7.996   5.523 -1.0432 -0.3361  0.2297
  393MOL   H12147945   5.835   8.158   5.576  0.0665 -0.6498  0.5835
  393MOL   H12247946   5.997   8.109   5.526  0.6297  0.8609 -0.3249
  394MOL     C147947   5.066   0.883   3.017 -0.5519 -0.0912  0.0657
  394MOL     F247948   5.182   0.864   2.951 -0.3674 -0.2079 -0.3707
  394MOL     F347949   4.998   0.768   3.040  0.1544  0.2646  0.3137
  394MOL     C447950   4.987   0.986   2.929 -0.1726  0.0870 -0.2554
  394MOL     H547951   4.901   1.021   2.987 -0.0489  0.1625 -0.1184
  394MOL     H647952   4.951   0.923   2.848 -1.0405  1.5805 -1.0565
  394MOL     H747953   5.093   0.925   3.114  2.3272  2.0189 -1.5889
  394MOL     C847954   5.058   1.120   2.901  0.5866  0.5294 -0.3151
  394MOL     F947955   5.089   1.175   3.017 -0.2494 -0.2904  0.0827
  394MOL    F1047956   5.181   1.105   2.842  0.0772  0.0517 -0.2872
  394MOL    C1147957   4.972   1.224   2.832 -0.0331 -0.5473 -0.6422
  394MOL    H1247958   5.025   1.320   2.838 -1.3622  0.2895 -1.8797
  394MOL    H1347959   4.875   1.232   2.881  0.5101  1.7271  0.1509
  394MOL    C1447960   4.945   1.197   2.683  0.4985  0.3531  0.5971
  394MOL    F1547961   4.896   1.072   2.684 -0.2238  0.4523  0.4628
  394MOL    F1647962   4.854   1.285   2.647 -0.1231 -0.2519 -0.2369
  394MOL    C1747963   5.061   1.203   2.578  0.6393  0.2830 -0.3651
  394MOL    H1847964   5.150   1.167   2.631  1.5273  2.1281 -0.5796
  394MOL    H1947965   5.096   1.302   2.548  1.6337 -0.0436 -0.3081
  394MOL    C2047966   5.046   1.137   2.438 -0.3397 -0.2243  0.6342
  394MOL    F2147967   4.958   1.206   2.365  0.2998  0.5943  0.5255
  394MOL    F2247968   5.169   1.154   2.387  0.4377 -0.0158  0.4848
  394MOL    C2347969   5.018   0.988   2.422 -0.3199  0.0111  0.0305
  394MOL    H2447970   5.021   0.958   2.317  0.1144 -3.4361  0.9626
  394MOL    H2547971   4.913   0.992   2.452  0.0415  0.3254  1.2719
  394MOL    C2647972   5.105   0.892   2.502 -0.3859  0.0731 -0.0403
  394MOL    F2747973   5.231   0.899   2.461  0.2507  0.3185 -0.4033
  394MOL    F2847974   5.101   0.922   2.630 -0.4437  0.0895 -0.0436
  394MOL    C2947975   5.061   0.746   2.480  0.0683 -0.6324  0.6365
  394MOL    H3047976   5.056   0.715   2.375 -1.6286  0.0876  0.4837
  394MOL    H3147977   4.957   0.733   2.511  0.3082 -2.4863  0.6865
  394MOL    C3247978   5.138   0.640   2.560 -0.0808  0.3855 -0.6649
  394MOL    F3347979   5.150   0.675   2.687  0.3857  0.5996 -0.4642
  394MOL    F3447980   5.048   0.540   2.558  0.5929 -0.1713  0.0271
  394MOL    C3547981   5.271   0.603   2.501  0.0876  0.1284 -0.3854
  394MOL    H3647982   5.343   0.680   2.528 -0.6731 -0.0066  2.0970
  394MOL    H3747983   5.265   0.612   2.392  0.4718  1.2053 -0.3254
  394MOL    C3847984   5.321   0.461   2.539  0.3007 -0.0321 -0.4965
  394MOL    F3947985   5.305   0.433   2.673 -0.6319  0.3857  0.6083
  394MOL    F4047986   5.246   0.369   2.483 -0.2519  0.0686  0.0348
  394MOL    C4147987   5.466   0.431   2.490  0.5303 -0.5742  0.3832
  394MOL    H4247988   5.496   0.334   2.529 -2.6510 -2.0265 -0.6010
  394MOL    H4347989   5.542   0.500   2.528  0.5303 -0.4273  0.1157
  394MOL    C4447990   5.494   0.448   2.335  0.2631 -0.2679  0.1089
  394MOL    F4547991   5.489   0.575   2.311 -0.2692  0.0055 -0.3778
  394MOL    F4647992   5.622   0.425   2.308 -0.0329  0.0165 -0.1765
  394MOL    C4747993   5.397   0.374   2.236 -0.5235 -0.3006  0.0122
  394MOL    H4847994   5.292   0.385   2.262 -0.6332 -0.0938 -0.5174
  394MOL    H4947995   5.413   0.268   2.257 -1.8583 -0.7375 -1.1759
  394MOL    C5047996   5.421   0.402   2.082  0.8086 -1.0125  0.0544
  394MOL    F5147997   5.417   0.532   2.070 -0.1560  0.1777 -0.0706
  394MOL    F5247998   5.540   0.356   2.059  0.3593  0.0630 -0.4084
  394MOL    C5347999   5.319   0.344   1.980  0.4248  0.5228  0.2744
  394MOL    H5448000   5.352   0.382   1.883 -1.0718  1.9223  0.2994
  394MOL    H5548001   5.228   0.396   2.008 -1.9708 -1.7483 -2.8789
  394MOL    C5648002   5.314   0.189   1.979 -0.3616  0.3423  0.2438
  394MOL    F5748003   5.303   0.136   2.098 -0.4180 -0.5182 -0.1228
  394MOL    F5848004   5.207   0.163   1.902  0.5786  0.4148 -0.2687
  394MOL    C5948005   5.428   0.125   1.895 -0.0003  1.1419  0.8897
  394MOL    H6048006   5.518   0.146   1.953  0.3353 -1.4952  1.3792
  394MOL    H6148007   5.441   0.172   1.798  0.4992 -0.4360  0.1882
  394MOL    C6248008   5.404   8.319   1.886  0.5056 -0.3253  0.0028
  394MOL    F6348009   5.385   8.274   2.010  0.0826  0.5852  0.6236
  394MOL    F6448010   5.298   8.292   1.810  0.3159 -0.1996  0.0299
  394MOL    C6548011   5.520   8.231   1.838 -0.2131 -0.1353 -0.0866
  394MOL    H6648012   5.484   8.128   1.843 -4.2087  1.1859  0.6033
  394MOL    H6748013   5.594   8.247   1.917 -2.0686  2.5687  1.2009
  394MOL    C6848014   5.571   8.266   1.693 -0.1359 -0.0311  0.3108
  394MOL    F6948015   5.465   8.266   1.619  0.1245  0.1822  0.4861
  394MOL    F7048016   5.630   0.033   1.714 -0.0784 -0.2821 -0.0733
  394MOL    C7148017   5.666   8.161   1.640  0.0844 -0.4090  0.1283
  394MOL    H7248018   5.685   8.182   1.535  0.5002  2.0203  0.6644
  394MOL    H7348019   5.618   8.063   1.638  0.6699 -0.6795 -1.4955
  394MOL    C7448020   5.805   8.146   1.703 -0.0615  0.9209  0.6003
  394MOL    F7548021   5.870   8.258   1.678 -0.3787 -0.5520 -0.2073
  394MOL    F7648022   5.788   8.126   1.830  0.1540 -0.1470 -0.0341
  394MOL    C7748023   5.894   8.027   1.640  0.6677 -0.8491  0.0543
  394MOL    H7848024   5.902   8.042   1.533  2.5071  0.3517  0.3553
  394MOL    H7948025   5.838   7.936   1.662  2.1744 -1.5910  0.8444
  394MOL    C8048026   6.040   8.015   1.693 -0.0674 -0.0893 -0.8347
  394MOL    F8148027   6.106   8.123   1.649 -0.6308  0.5650  0.4160
  394MOL    F8248028   6.041   8.027   1.828  0.1028  0.2775  0.1692
  394MOL    C8348029   6.115   7.885   1.663  0.6745 -0.2291 -0.5149
  394MOL    H8448030   6.070   7.799   1.712  0.1777 -1.0290 -2.3065
  394MOL    H8548031   6.220   7.895   1.691 -0.0875  1.5156  1.8532
  394MOL    C8648032   6.113   7.847   1.516 -0.2593  0.6794 -0.1202
  394MOL    F8748033   5.987   7.812   1.483  1.0984 -0.1022 -0.8983
  394MOL    F8848034   6.137   7.959   1.446 -0.2710 -0.2296  0.8630
  394MOL    C8948035   6.207   7.733   1.478  0.0883  0.5080 -0.2378
  394MOL    H9048036   6.303   7.769   1.516  0.3810 -1.0251  0.5076
  394MOL    H9148037   6.216   7.741   1.369 -1.6042  0.3288 -0.3966
  394MOL    C9248038   6.186   7.590   1.531  0.3318 -0.6814  0.0543
  394MOL    F9348039   6.198   7.598   1.664  0.4081 -0.0846 -0.3587
  394MOL    F9448040   6.072   7.542   1.480  0.2381  0.6026  0.1865
  394MOL    C9548041   6.297   7.498   1.491  0.0949  0.2501 -0.0637
  394MOL    H9648042   6.392   7.539   1.524 -0.0480 -0.6102  1.4718
  394MOL    H9748043   6.286   7.476   1.384 -2.1353  1.9453 -0.2104
  394MOL    C9848044   6.295   7.355   1.552  0.2602 -0.5463 -0.3086
  394MOL    F9948045   6.291   7.359   1.686 -0.2426  0.3646 -0.3654
  394MOL   F10048046   6.181   7.285   1.516  0.1993 -0.1327  0.3207
  394MOL   C10148047   6.416   7.276   1.490 -0.8292 -0.5268 -0.2358
  394MOL   H10248048   6.515   7.308   1.521  0.8694 -2.6379 -3.3188
  394MOL   H10348049   6.414   7.288   1.382  2.8830  0.9911 -0.1756
  394MOL   C10448050   6.415   7.126   1.528 -0.0111  0.1915 -0.6535
  394MOL   F10548051   6.417   7.123   1.658 -0.8185  0.3953  0.2236
  394MOL   F10648052   6.309   7.064   1.488 -0.6137  0.4046 -0.2776
  394MOL   C10748053   6.547   7.053   1.475  0.3570  0.0098 -0.1587
  394MOL   H10848054   6.631   7.110   1.516 -0.5254  0.5579  0.9088
  394MOL   H10948055   6.555   7.078   1.369 -1.9322  0.8986 -0.1525
  394MOL   C11048056   6.559   6.904   1.508  0.0998  0.4874 -0.0338
  394MOL   F11148057   6.513   6.883   1.629 -0.2731 -0.1588  0.1748
  394MOL   F11248058   6.482   6.841   1.413 -0.1860 -0.1605 -0.3773
  394MOL   C11348059   6.696   6.837   1.506  0.1867  0.1536 -0.7077
  394MOL   H11448060   6.677   6.733   1.532 -0.2945  0.1734 -0.9759
  394MOL   H11548061   6.757   6.877   1.587 -0.0466 -0.8477 -0.0271
  394MOL   C11648062   6.762   6.845   1.364 -1.1272  0.4777 -0.3706
  394MOL   F11748063   6.686   6.790   1.271 -0.0591 -0.1541 -0.2065
  394MOL   F11848064   6.769   6.972   1.328 -0.2562  0.2625 -0.4251
  394MOL   C11948065   6.909   6.783   1.365  0.2212  0.1618 -0.6747
  394MOL   H12048066   6.900   6.685   1.413  0.2589  0.6364  0.3227
  394MOL   H12148067   6.975   6.846   1.425  0.6887 -2.6203  1.8445
  394MOL   H12248068   6.958   6.763   1.269 -0.6830  0.6940 -1.2479
  395MOL     C148069   7.429   6.288   6.488  1.4183 -0.9748  0.5916
  395MOL     F248070   7.525   6.248   6.567 -0.2394 -0.1480 -0.1638
  395MOL     F348071   7.396   6.411   6.531  0.0557  0.3038 -0.2072
  395MOL     C448072   7.312   6.191   6.497  0.7078  0.3889  0.4686
  395MOL     H548073   7.272   6.201   6.598 -0.7523 -1.6802  0.1295
  395MOL     H648074   7.331   6.085   6.482  2.2332  0.6741  0.3287
  395MOL     H748075   7.475   6.299   6.390  1.0739  2.3800  0.7525
  395MOL     C848076   7.202   6.224   6.399 -0.0615  0.4208  0.3233
  395MOL     F948077   7.267   6.224   6.286  0.1604 -0.2333 -1.2775
  395MOL    F1048078   7.103   6.141   6.386  0.1466 -0.2028  0.3564
  395MOL    C1148079   7.136   6.364   6.413  0.0932  0.7100  0.5641
  395MOL    H1248080   7.058   6.370   6.337 -0.1870 -1.9737  0.5878
  395MOL    H1348081   7.203   6.448   6.395  2.9333 -1.0920  2.2350
  395MOL    C1448082   7.077   6.390   6.551  0.3051 -0.1585 -0.2998
  395MOL    F1548083   7.035   6.274   6.605  0.0836 -0.3790 -0.4154
  395MOL    F1648084   7.166   6.443   6.641  0.1779  0.0675 -1.1131
  395MOL    C1748085   6.949   6.478   6.542  0.1923 -0.7521  0.3117
  395MOL    H1848086   6.900   6.475   6.640  0.3066  1.2232  0.4586
  395MOL    H1948087   6.881   6.438   6.467  0.5595 -0.5289 -0.1372
  395MOL    C2048088   6.971   6.630   6.509  0.5063  0.3294 -0.3640
  395MOL    F2148089   7.090   6.672   6.555  0.0641  0.3547 -0.0920
  395MOL    F2248090   6.987   6.643   6.376  0.2456  0.0694  0.4767
  395MOL    C2348091   6.860   6.737   6.537 -0.1094  0.4419  0.2243
  395MOL    H2448092   6.772   6.696   6.488  0.2463  0.7809 -0.7026
  395MOL    H2548093   6.872   6.829   6.479  1.4945 -1.0211 -1.8156
  395MOL    C2648094   6.818   6.773   6.681 -0.0463 -0.0397  0.1731
  395MOL    F2748095   6.708   6.842   6.673 -0.1224  0.1155 -0.1774
  395MOL    F2848096   6.780   6.657   6.741 -0.5291 -0.1650  0.6728
  395MOL    C2948097   6.937   6.839   6.763 -0.5161 -0.2921  0.5096
  395MOL    H3048098   6.979   6.918   6.701  1.8242 -0.2932  2.0665
  395MOL    H3148099   7.015   6.765   6.778  0.5118  0.4263 -1.0861
  395MOL    C3248100   6.902   6.899   6.901 -0.3747 -0.0370  0.4045
  395MOL    F3348101   6.818   7.000   6.890 -0.8176  0.1585  0.0347
  395MOL    F3448102   6.836   6.801   6.961 -0.4335 -0.4035 -0.2318
  395MOL    C3548103   7.029   6.932   6.976  0.7154 -0.2132 -0.0588
  395MOL    H3648104   7.097   6.847   6.973  1.1425  0.1221  0.0237
  395MOL    H3748105   7.012   6.951   7.082 -2.5410  0.2776 -0.6140
  395MOL    C3848106   7.111   7.049   6.930  0.5861  0.0564 -0.0724
  395MOL    F3948107   7.208   7.055   7.016  0.3740 -0.1177  0.1019
  395MOL    F4048108   7.161   7.024   6.816  0.8511 -0.5856 -0.2490
  395MOL    C4148109   7.035   7.186   6.927 -0.5487  0.4005  0.0068
  395MOL    H4248110   6.997   7.200   7.028 -0.6498  0.9169 -0.1039
  395MOL    H4348111   6.948   7.178   6.863 -0.0212 -0.0560 -0.6640
  395MOL    C4448112   7.114   7.316   6.892  0.2167 -0.4268 -0.7725
  395MOL    F4548113   7.156   7.307   6.763 -0.2567 -0.0122  0.2515
  395MOL    F4648114   7.027   7.413   6.909 -0.2574 -0.0072  0.0281
  395MOL    C4748115   7.240   7.344   6.976  0.7814 -0.0724  0.7554
  395MOL    H4848116   7.314   7.264   6.983  0.7680 -0.0401  1.2796
  395MOL    H4948117   7.204   7.338   7.079  1.6329  0.2295  1.0791
  395MOL    C5048118   7.314   7.477   6.944 -0.2214 -0.2270 -0.5834
  395MOL    F5148119   7.406   7.472   7.042 -0.0013  0.2963 -0.0480
  395MOL    F5248120   7.370   7.464   6.827  0.6404  0.6418  0.4633
  395MOL    C5348121   7.224   7.608   6.968  0.6936  0.2787 -0.5984
  395MOL    H5448122   7.172   7.599   7.063  2.4642  1.6686  0.5104
  395MOL    H5548123   7.145   7.603   6.892  1.3952  3.6279 -1.5963
  395MOL    C5648124   7.292   7.740   6.956 -0.1770  0.8709  0.1966
  395MOL    F5748125   7.199   7.838   6.973 -0.0816  0.0409 -0.3979
  395MOL    F5848126   7.374   7.762   7.063 -0.1196 -0.8167 -0.1346
  395MOL    C5948127   7.374   7.764   6.825  0.2076 -0.6071  0.0141
  395MOL    H6048128   7.305   7.731   6.747 -0.5829  0.2989  0.3310
  395MOL    H6148129   7.453   7.689   6.833 -0.7140 -1.5332  0.5946
  395MOL    C6248130   7.426   7.910   6.794  0.3336 -0.0869 -0.3249
  395MOL    F6348131   7.316   7.987   6.768  0.5804 -0.1529  0.0967
  395MOL    F6448132   7.501   7.955   6.899  0.0108 -0.1152 -0.3697
  395MOL    C6548133   7.509   7.914   6.665  0.1356  0.2235  0.4268
  395MOL    H6648134   7.546   8.016   6.652  0.8882 -0.3995 -2.6502
  395MOL    H6748135   7.443   7.884   6.584 -0.0827  2.4745 -0.2633
  395MOL    C6848136   7.635   7.821   6.657 -0.6167  0.1928  0.1025
  395MOL    F6948137   7.589   7.690   6.660 -0.4457 -0.0970 -0.4463
  395MOL    F7048138   7.686   7.849   6.538  0.2255 -0.0117 -0.2108
  395MOL    C7148139   7.747   7.837   6.759  0.3285 -0.2625  0.2164
  395MOL    H7248140   7.705   7.817   6.858  0.5815  0.6632  0.5234
  395MOL    H7348141   7.788   7.937   6.743  1.8502 -1.0952 -1.1945
  395MOL    C7448142   7.847   7.727   6.744  0.0232  0.1937  0.4255
  395MOL    F7548143   7.798   7.619   6.803  0.1010  0.0124 -0.9434
  395MOL    F7648144   7.873   7.696   6.615 -0.4345 -0.1779  0.0089
  395MOL    C7748145   7.982   7.753   6.814 -0.3348 -0.3099  0.4333
  395MOL    H7848146   8.042   7.664   6.795 -1.2847 -1.0257  0.7589
  395MOL    H7948147   7.955   7.774   6.918 -2.4271  2.3905 -0.5857
  395MOL    C8048148   8.072   7.876   6.767  1.0395  0.5632 -0.6586
  395MOL    F8148149   8.088   7.863   6.635  0.3068 -0.5688  0.8520
  395MOL    F8248150   8.018   8.001   6.795  0.0910  0.5596 -0.1865
  395MOL    C8348151   8.215   7.880   6.827 -0.3540 -0.0369 -0.2699
  395MOL    H8448152   8.210   7.921   6.928 -1.0530  1.1061 -0.7540
  395MOL    H8548153   8.267   7.963   6.780  2.0348 -2.1560 -1.4859
  395MOL    C8648154   8.300   7.755   6.826 -0.9432 -0.0949 -0.5462
  395MOL    F8748155   8.255   7.660   6.905 -0.2074  0.6427 -0.1054
  395MOL    F8848156   8.280   7.713   6.701  0.5384 -0.1182 -0.0893
  395MOL    C8948157   0.099   7.779   6.840  0.1847  0.8284  0.5598
  395MOL    H9048158   0.118   7.880   6.803  1.4802  0.6193  0.5970
  395MOL    H9148159   0.164   7.712   6.782 -0.0558  1.9810 -1.0771
  395MOL    C9248160   0.150   7.778   6.980 -0.1298  0.0173 -0.0128
  395MOL    F9348161   0.272   7.837   6.978  0.1285 -0.1030  0.3433
  395MOL    F9448162   0.083   7.862   7.055  0.2332  0.2518  0.2093
  395MOL    C9548163   0.172   7.638   7.051 -0.4235 -0.5256 -0.3989
  395MOL    H9648164   0.082   7.577   7.048 -0.1096 -1.0074  0.0035
  395MOL    H9748165   0.202   7.654   7.155  3.0877 -0.8175 -1.3083
  395MOL    C9848166   0.277   7.538   7.005 -0.3967 -0.3491  0.9568
  395MOL    F9948167   0.244   7.493   6.887  0.1761  0.1570  0.6221
  395MOL   F10048168   0.397   7.594   6.992 -0.0901  0.5574  0.1883
  395MOL   C10148169   0.280   7.414   7.099 -0.2005 -0.0799  0.7288
  395MOL   H10248170   0.344   7.429   7.187  0.9340  1.7853 -0.3788
  395MOL   H10348171   0.332   7.331   7.052 -0.4890  0.0370  0.2055
  395MOL   C10448172   0.144   7.358   7.143  0.2391  0.1185  1.2587
  395MOL   F10548173   0.092   7.421   7.249  0.1877  0.0090 -0.0131
  395MOL   F10648174   0.063   7.360   7.038  0.1458 -0.3213 -0.5262
  395MOL   C10748175   0.161   7.210   7.188 -0.1213 -0.4988  0.0591
  395MOL   H10848176   0.071   7.188   7.246 -0.7057  1.5821 -0.0279
  395MOL   H10948177   0.250   7.189   7.248 -0.9622 -0.8063  1.2321
  395MOL   C11048178   0.141   7.100   7.083 -0.5655  0.3282 -0.1915
  395MOL   F11148179   0.226   7.124   6.978 -0.2892 -0.0791  0.1865
  395MOL   F11248180   0.169   6.983   7.144 -0.3967  0.0599 -0.3606
  395MOL   C11348181   8.350   7.083   7.031  0.2572 -0.6336 -0.3645
  395MOL   H11448182   8.308   7.176   6.994 -1.0698 -0.1557  2.2142
  395MOL   H11548183   8.288   7.052   7.115 -0.4293 -0.4224 -0.7908
  395MOL   C11648184   8.333   6.972   6.929 -0.4722  0.2433 -0.4066
  395MOL   F11748185   0.066   6.999   6.830 -0.4076 -0.1307  0.1409
  395MOL   F11848186   0.020   6.861   6.982 -0.5639  0.3922 -0.4412
  395MOL   C11948187   8.187   6.963   6.879  0.4404  0.4438  0.8577
  395MOL   H12048188   8.163   6.882   6.811  0.8199  1.3738 -0.3883
  395MOL   H12148189   8.145   7.056   6.841 -1.4763 -0.1286  1.5052
  395MOL   H12248190   8.118   6.940   6.961 -0.4814 -0.3761 -0.1237
  396MOL     C148191   5.645   5.487   3.085 -0.1015  0.0718  0.0822
  396MOL     F248192   5.581   5.395   3.156  0.0115  0.2742 -0.0256
  396MOL     F348193   5.702   5.577   3.165  0.1071 -0.2407 -0.1472
  396MOL     C448194   5.534   5.548   2.994  0.2873  1.0575 -0.2012
  396MOL     H548195   5.574   5.642   2.957  1.6062  0.7940  0.5466
  396MOL     H648196   5.450   5.560   3.062 -0.9814  0.5238 -1.6344
  396MOL     H748197   5.729   5.441   3.033 -2.3414  0.4981 -4.0911
  396MOL     C848198   5.500   5.463   2.870  0.4027 -0.2424 -1.0019
  396MOL     F948199   5.420   5.547   2.796 -0.1035 -0.1212  0.1443
  396MOL    F1048200   5.613   5.459   2.802  0.3144 -0.3340  0.1553
  396MOL    C1148201   5.433   5.331   2.907 -0.3629 -0.1214  0.5879
  396MOL    H1248202   5.350   5.364   2.971  0.6134 -0.3609  2.0071
  396MOL    H1348203   5.504   5.281   2.973 -0.3198 -0.3142  0.3967
  396MOL    C1448204   5.398   5.246   2.777  0.2229  0.4721 -0.1014
  396MOL    F1548205   5.518   5.211   2.725 -0.1184 -0.0961  0.0575
  396MOL    F1648206   5.350   5.129   2.822  0.3587 -0.2516  0.1829
  396MOL    C1748207   5.306   5.309   2.669  0.1754 -0.0597  0.1636
  396MOL    H1848208   5.305   5.240   2.584  1.3846  1.4282 -1.0966
  396MOL    H1948209   5.351   5.401   2.633 -1.8808  0.8938 -0.0484
  396MOL    C2048210   5.158   5.330   2.706  0.3859 -0.0515  0.7451
  396MOL    F2148211   5.112   5.223   2.772 -0.4991  0.4270  0.4360
  396MOL    F2248212   5.155   5.441   2.783  0.1198 -0.0196 -0.0511
  396MOL    C2348213   5.058   5.340   2.580  0.0606 -0.3579 -0.9822
  396MOL    H2448214   5.070   5.249   2.520  0.7148 -1.7125  1.1337
  396MOL    H2548215   5.099   5.418   2.517 -1.7912  1.1542 -0.3616
  396MOL    C2648216   4.910   5.378   2.616 -0.3518  0.7498  0.3394
  396MOL    F2748217   4.845   5.278   2.681 -0.1537  0.4568 -0.0002
  396MOL    F2848218   4.908   5.493   2.688 -0.5015 -0.0116  0.1704
  396MOL    C2948219   4.828   5.401   2.488 -0.9077  0.8804 -0.2726
  396MOL    H3048220   4.822   5.305   2.436 -0.1441  0.0726  1.0972
  396MOL    H3148221   4.888   5.459   2.418 -0.2320  0.2958 -0.1819
  396MOL    C3248222   4.687   5.459   2.488 -0.6231  0.8818 -0.5027
  396MOL    F3348223   4.704   5.586   2.511  0.4282  0.1725  0.4896
  396MOL    F3448224   4.632   5.442   2.377 -0.6162  0.1989  0.0560
  396MOL    C3548225   4.604   5.409   2.612 -0.5476 -0.3108 -0.4431
  396MOL    H3648226   4.642   5.459   2.701 -1.3214  0.0150 -0.2902
  396MOL    H3748227   4.616   5.301   2.624  1.7221  0.0750  1.1092
  396MOL    C3848228   4.453   5.445   2.604  0.4934 -0.8564 -0.3586
  396MOL    F3948229   4.435   5.575   2.606  0.3112  0.1990  0.2580
  396MOL    F4048230   4.397   5.415   2.486 -0.4261 -0.1854  0.0257
  396MOL    C4148231   4.366   5.377   2.710  0.0150 -0.6054  0.5492
  396MOL    H4248232   4.393   5.411   2.811  0.0137 -2.6097  1.2468
  396MOL    H4348233   4.394   5.272   2.714  1.3115 -0.3667 -1.4818
  396MOL    C4448234   4.207   5.396   2.691  0.8854 -0.2245  0.0528
  396MOL    F4548235   4.174   5.349   2.572  0.2216  0.0577 -0.0303
  396MOL    F4648236   4.161   5.314   2.796 -0.0494  0.1148  0.5097
  396MOL    C4748237   4.157   5.544   2.715  0.9330 -0.0073  0.0062
  396MOL    H4848238   4.204   5.609   2.641  0.4964 -1.0740 -1.2234
  396MOL    H4948239   4.196   5.574   2.813 -0.2594 -0.5876  0.6657
  396MOL    C5048240   4.005   5.570   2.697  0.4507  0.1607 -0.1702
  396MOL    F5148241   3.962   5.501   2.587  0.3831 -0.6354 -0.0069
  396MOL    F5248242   3.934   5.520   2.804  0.2241  0.0805  0.2144
  396MOL    C5348243   3.963   5.712   2.686  0.1390 -0.4499 -0.0381
  396MOL    H5448244   4.013   5.777   2.757 -1.2031  0.8469 -0.2593
  396MOL    H5548245   3.856   5.724   2.699  0.3019  0.5231  0.3789
  396MOL    C5648246   3.988   5.787   2.552 -0.0694 -0.3726  0.3497
  396MOL    F5748247   4.118   5.774   2.526  0.1467 -0.0796  0.2695
  396MOL    F5848248   3.921   5.729   2.458 -0.5400  0.1443  0.2324
  396MOL    C5948249   3.948   5.941   2.556 -0.0902  0.2535 -0.2484
  396MOL    H6048250   3.958   5.989   2.459  3.2139 -1.1270 -0.6655
  396MOL    H6148251   4.015   5.983   2.632 -0.7439  0.6579  0.1144
  396MOL    C6248252   3.801   5.969   2.614 -0.3580 -0.7649 -0.3718
  396MOL    F6348253   3.716   5.881   2.550 -0.2202 -0.2515  0.1136
  396MOL    F6448254   3.796   5.944   2.748 -0.7461 -0.6509  0.6100
  396MOL    C6548255   3.743   6.110   2.588  0.0038  0.1720 -1.0449
  396MOL    H6648256   3.701   6.102   2.488 -1.7638 -2.2083 -0.1510
  396MOL    H6748257   3.814   6.192   2.596 -0.3919  0.3171  1.5114
  396MOL    C6848258   3.618   6.151   2.669 -0.3566  0.3002 -0.7384
  396MOL    F6948259   3.650   6.172   2.798 -0.0378 -0.1540  0.3117
  396MOL    F7048260   3.579   6.272   2.606 -0.3257 -0.3694  0.4405
  396MOL    C7148261   3.492   6.054   2.656  0.1319  0.1138  0.2957
  396MOL    H7248262   3.511   5.963   2.712 -1.0837  0.2671  0.9792
  396MOL    H7348263   3.491   6.015   2.554 -0.2834  0.7435  0.0510
  396MOL    C7448264   3.352   6.114   2.694  0.1809 -0.2083  0.3552
  396MOL    F7548265   3.357   6.154   2.821 -0.3925  0.0919  0.2150
  396MOL    F7648266   3.331   6.223   2.622  0.0660  0.3489  0.8431
  396MOL    C7748267   3.231   6.020   2.666 -0.2974  0.9046  1.2130
  396MOL    H7848268   3.251   5.932   2.727  1.3199  0.0930 -0.4286
  396MOL    H7948269   3.224   5.996   2.560  1.1417  3.1516  0.5713
  396MOL    C8048270   3.091   6.077   2.698 -1.1597 -0.6293 -0.2289
  396MOL    F8148271   3.055   6.165   2.601  0.0141  0.3207 -0.1523
  396MOL    F8248272   3.011   5.974   2.678 -0.7072  0.2797 -0.4781
  396MOL    C8348273   3.070   6.137   2.840 -0.3656  0.2391  0.1766
  396MOL    H8448274   3.136   6.223   2.849 -0.0131  0.0124 -0.2034
  396MOL    H8548275   3.104   6.059   2.908 -0.7581 -0.0897  0.0014
  396MOL    C8648276   2.920   6.183   2.861 -0.6037 -1.1857  0.1517
  396MOL    F8748277   2.877   6.282   2.778 -0.5430  0.3498 -0.4764
  396MOL    F8848278   2.835   6.081   2.844  0.4445 -0.0374 -0.4905
  396MOL    C8948279   2.908   6.249   3.000 -0.5343 -0.1343  0.0589
  396MOL    H9048280   2.806   6.283   3.016 -1.3673 -1.5115 -2.1676
  396MOL    H9148281   2.971   6.338   3.005 -1.0702  0.1674  1.8567
  396MOL    C9248282   2.944   6.154   3.119  0.4669 -0.8200 -0.2385
  396MOL    F9348283   2.899   6.035   3.110 -0.4932 -0.0497  0.5171
  396MOL    F9448284   3.079   6.154   3.132  0.0271  0.2069 -0.2240
  396MOL    C9548285   2.878   6.217   3.245 -0.0208  0.3174 -0.4467
  396MOL    H9648286   2.771   6.209   3.226 -0.8494 -0.3450  4.1532
  396MOL    H9748287   2.895   6.325   3.237  0.2116  0.1192 -3.4078
  396MOL    C9848288   2.929   6.170   3.386  0.8133  0.1706 -0.0935
  396MOL    F9948289   3.061   6.184   3.386 -0.3915 -0.0489 -0.2060
  396MOL   F10048290   2.875   6.262   3.472  0.2830 -0.2584 -0.4073
  396MOL   C10148291   2.889   6.031   3.435  0.3476  0.2140  0.0976
  396MOL   H10248292   2.907   5.952   3.363 -3.9712  0.4835 -1.4079
  396MOL   H10348293   2.781   6.030   3.451  0.3866 -0.3185  0.3422
  396MOL   C10448294   2.937   5.989   3.583  0.9667  0.3826  0.8911
  396MOL   F10548295   2.885   6.078   3.668 -0.4281  0.0947 -0.3612
  396MOL   F10648296   2.880   5.864   3.606  0.1250 -0.9201  0.3509
  396MOL   C10748297   3.087   5.972   3.614  0.5452 -0.5399  0.6408
  396MOL   H10848298   3.137   6.062   3.579  0.3026 -0.4554  0.5055
  396MOL   H10948299   3.132   5.905   3.541  2.7441  0.9547  0.5724
  396MOL   C11048300   3.131   5.952   3.759 -0.1246 -0.6792 -0.4423
  396MOL   F11148301   3.254   5.910   3.750 -0.2272 -0.1215  0.0559
  396MOL   F11248302   3.132   6.065   3.833 -0.6521  0.6325  0.1797
  396MOL   C11348303   3.048   5.839   3.826 -0.5672  0.9171 -0.2038
  396MOL   H11448304   3.052   5.755   3.757  1.2366  1.5983 -0.9656
  396MOL   H11548305   2.942   5.862   3.837 -0.8876 -1.4557  2.1939
  396MOL   C11648306   3.099   5.782   3.962 -0.1231 -0.0441  0.0053
  396MOL   F11748307   3.227   5.754   3.948 -0.1520 -0.0792  0.6406
  396MOL   F11848308   3.089   5.885   4.052 -0.3701 -0.1321  0.0362
  396MOL   C11948309   3.015   5.661   4.000  0.8434 -0.7485  0.0999
  396MOL   H12048310   3.042   5.609   4.092  0.0028 -1.3437  0.0152
  396MOL   H12148311   3.026   5.581   3.926  0.9563  0.3039 -1.0328
  396MOL   H12248312   2.912   5.692   4.016  2.2142  3.0574  1.9447
  397MOL     C148313   4.585   5.824   8.181  0.2136 -0.4030  0.2894
  397MOL     F248314   4.686   5.793   8.253  0.1457 -0.4590 -0.1311
  397MOL     F348315   4.619   5.870   8.059  0.0683 -0.5085 -0.1705
  397MOL     C448316   4.495   5.929   8.242 -0.0438 -1.1852  0.1958
  397MOL     H548317   4.399   5.906   8.196 -0.0612 -0.3428 -0.2019
  397MOL     H648318   4.514   6.035   8.227 -0.2584 -1.0014  1.2217
  397MOL     H748319   4.517   5.740   8.174 -0.0094 -0.0438 -2.1901
  397MOL     C848320   4.465   5.912   0.041  0.4769 -0.4685 -0.1169
  397MOL     F948321   4.389   5.800   0.043 -0.1726  0.4110 -0.1868
  397MOL    F1048322   4.562   5.892   0.125 -0.3335  0.0123 -0.2122
  397MOL    C1148323   4.384   6.035   0.104  0.2244  0.2326 -0.1610
  397MOL    H1248324   4.303   6.068   0.039 -0.7483 -1.1186  0.3340
  397MOL    H1348325   4.446   6.117   0.139 -0.8531  0.3958  1.4358
  397MOL    C1448326   4.321   6.004   0.242 -0.8574  0.8604 -0.1697
  397MOL    F1548327   4.251   6.109   0.286 -0.1754 -0.5283  0.1321
  397MOL    F1648328   4.234   5.902   0.231  0.3598  0.2973 -0.3501
  397MOL    C1748329   4.413   5.963   0.363  0.3959 -0.2855 -0.0510
  397MOL    H1848330   4.490   6.033   0.397  0.9786 -0.6465 -0.6022
  397MOL    H1948331   4.464   5.868   0.344  0.0088 -0.3620 -0.7317
  397MOL    C2048332   4.340   5.919   0.487 -0.2025  0.2844 -0.2712
  397MOL    F2148333   4.271   6.025   0.529 -0.0916  0.1670 -0.4534
  397MOL    F2248334   4.254   5.827   0.448 -0.0019  0.5372 -0.9882
  397MOL    C2348335   4.417   5.856   0.598  0.0359 -0.3544 -0.1956
  397MOL    H2448336   4.507   5.914   0.620 -1.0924  2.0490 -1.7178
  397MOL    H2548337   4.467   5.770   0.554  0.2151 -0.2117 -0.2673
  397MOL    C2648338   4.352   5.819   0.737 -0.6807 -0.2411  0.4976
  397MOL    F2748339   4.333   5.928   0.807  0.2395 -0.5913  0.0322
  397MOL    F2848340   4.235   5.759   0.710 -0.4664 -0.4869 -0.4291
  397MOL    C2948341   4.441   5.715   0.809 -0.1785 -0.1142  0.1909
  397MOL    H3048342   4.531   5.770   0.834  0.4456 -1.2869  0.5579
  397MOL    H3148343   4.473   5.631   0.748 -0.2210 -0.4629  0.6431
  397MOL    C3248344   4.386   5.655   0.943 -1.2589 -0.2697 -0.8658
  397MOL    F3348345   4.345   5.757   1.023  0.1971  0.3132  0.4331
  397MOL    F3448346   4.273   5.580   0.930  0.2525  0.3541 -0.0869
  397MOL    C3548347   4.483   5.567   1.028 -1.0342  0.4222 -0.0847
  397MOL    H3648348   4.478   5.464   0.995  0.0122  0.6916 -1.1139
  397MOL    H3748349   4.436   5.552   1.126 -0.7998 -1.8592 -0.2916
  397MOL    C3848350   4.633   5.602   1.028 -0.0125 -0.3196 -0.6863
  397MOL    F3948351   4.685   5.586   0.909 -0.0837 -0.2037  0.0734
  397MOL    F4048352   4.633   5.734   1.057  0.4330 -0.3931  0.4316
  397MOL    C4148353   4.727   5.531   1.138 -0.6691  0.9026  0.2514
  397MOL    H4248354   4.738   5.425   1.117 -1.1144  0.3923  2.4786
  397MOL    H4348355   4.671   5.548   1.230  0.9303  1.5298  1.1437
  397MOL    C4448356   4.862   5.600   1.170  0.5099 -0.2176  0.1230
  397MOL    F4548357   4.830   5.727   1.216  0.0963 -0.3980 -0.2077
  397MOL    F4648358   4.927   5.528   1.266 -0.0103  0.5858  0.3022
  397MOL    C4748359   4.944   5.620   1.046  0.4370  0.5521  0.0746
  397MOL    H4848360   4.896   5.706   0.998 -0.1665 -1.2898 -2.6984
  397MOL    H4948361   4.945   5.539   0.974 -2.5727 -0.0238  0.6151
  397MOL    C5048362   5.090   5.655   1.071  0.3267 -0.3210 -0.4306
  397MOL    F5148363   5.153   5.549   1.112  0.0452 -0.8031 -0.0531
  397MOL    F5248364   5.148   5.699   0.957  0.0727 -0.2219  0.4496
  397MOL    C5348365   5.100   5.767   1.169  0.1305  0.1983 -0.2874
  397MOL    H5448366   5.073   5.723   1.266  2.2186  1.3977  0.8656
  397MOL    H5548367   5.027   5.847   1.156 -1.0858 -0.4536  2.0569
  397MOL    C5648368   5.238   5.837   1.172  1.2578  0.0322 -0.3795
  397MOL    F5748369   5.250   5.899   1.054 -0.2741  0.2267 -0.0993
  397MOL    F5848370   5.222   5.927   1.268  0.0965 -0.2778  0.1113
  397MOL    C5948371   5.359   5.751   1.211  0.1593  0.3936 -0.3164
  397MOL    H6048372   5.374   5.686   1.125 -1.3417 -0.1336 -0.1816
  397MOL    H6148373   5.336   5.690   1.298 -0.2237 -0.5514 -1.0823
  397MOL    C6248374   5.497   5.824   1.235 -0.3338 -0.2330 -0.3226
  397MOL    F6348375   5.591   5.734   1.205 -0.3675  0.5534 -0.3011
  397MOL    F6448376   5.519   5.918   1.147 -0.2409  0.3388  0.8272
  397MOL    C6548377   5.518   5.873   1.376  0.3398  0.0342  0.0206
  397MOL    H6648378   5.465   5.811   1.448 -1.0025 -0.2466 -1.1751
  397MOL    H6748379   5.464   5.965   1.397 -0.4330  0.2436 -2.6080
  397MOL    C6848380   5.666   5.892   1.424  0.0410  0.0264  0.3684
  397MOL    F6948381   5.670   5.931   1.551 -0.4866  0.1468  0.0324
  397MOL    F7048382   5.730   5.776   1.431 -0.2069 -0.4904  0.7591
  397MOL    C7148383   5.750   5.999   1.353 -0.1392  0.1923  0.2416
  397MOL    H7248384   5.716   6.098   1.383 -0.3352  0.1133  0.2874
  397MOL    H7348385   5.733   5.993   1.245  1.1175 -1.2535  0.1112
  397MOL    C7448386   5.904   5.977   1.365  0.2757 -0.1550 -0.1213
  397MOL    F7548387   5.931   5.950   1.492  0.1441 -0.2572  0.2488
  397MOL    F7648388   5.942   5.876   1.287  0.0983 -0.6968  0.3906
  397MOL    C7748389   5.988   6.097   1.329 -0.8234 -0.3234  0.0137
  397MOL    H7848390   6.089   6.063   1.352 -1.3042 -0.3628  2.2458
  397MOL    H7948391   5.966   6.182   1.395  2.2056  0.4855  0.0474
  397MOL    C8048392   5.984   6.149   1.188 -0.5042  0.3959 -0.8158
  397MOL    F8148393   6.030   6.059   1.110 -0.1276  0.0207  0.7044
  397MOL    F8248394   5.862   6.193   1.149 -0.1953 -0.0057  0.1356
  397MOL    C8348395   6.087   6.268   1.169 -0.2001  0.0638 -0.1483
  397MOL    H8448396   6.187   6.226   1.172 -1.0513 -1.9736  0.7391
  397MOL    H8548397   6.081   6.340   1.251  2.0440 -3.0415  2.8705
  397MOL    C8648398   6.081   6.349   1.047  0.4341  0.0650  0.0410
  397MOL    F8748399   5.976   6.427   1.061 -0.5172  0.1511 -0.1657
  397MOL    F8848400   6.192   6.429   1.050  0.3069  0.2980 -0.2937
  397MOL    C8948401   6.084   6.254   0.926  0.2616  0.2212  0.0302
  397MOL    H9048402   5.998   6.186   0.930 -2.4733  3.4928 -0.8982
  397MOL    H9148403   6.165   6.182   0.937  0.6523  0.5461 -0.7136
  397MOL    C9248404   6.088   6.329   0.791  0.0313  0.1891  0.5740
  397MOL    F9348405   6.068   6.237   0.699  0.5025  0.0641 -0.0541
  397MOL    F9448406   5.986   6.412   0.782  0.3174 -0.0971 -0.1815
  397MOL    C9548407   6.221   6.414   0.768 -0.3639  0.1857  0.1563
  397MOL    H9648408   6.221   6.504   0.828  0.1033  0.3022 -0.0168
  397MOL    H9748409   6.206   6.466   0.673  0.7884  0.9802  0.4082
  397MOL    C9848410   6.352   6.331   0.762  0.7417  0.3265 -0.3959
  397MOL    F9948411   6.366   6.268   0.885 -0.2184  0.6871 -0.4201
  397MOL   F10048412   6.340   6.236   0.669 -0.1105  0.6770  0.0250
  397MOL   C10148413   6.484   6.402   0.732  0.2197 -0.8280 -0.1941
  397MOL   H10248414   6.563   6.327   0.741  0.8002 -0.2671 -0.6158
  397MOL   H10348415   6.495   6.475   0.812  1.2899  0.8525 -1.8210
  397MOL   C10448416   6.492   6.486   0.601 -0.1870  0.3487  0.5616
  397MOL   F10548417   6.442   6.411   0.501 -0.0145  0.3293 -0.3775
  397MOL   F10648418   6.404   6.588   0.610  0.3270 -0.2689  0.3400
  397MOL   C10748419   6.630   6.540   0.559  0.2993 -0.3745  0.0156
  397MOL   H10848420   6.711   6.468   0.553 -0.0018 -0.9427  2.1262
  397MOL   H10948421   6.668   6.605   0.638  0.7641  0.3828 -0.8275
  397MOL   C11048422   6.639   6.614   0.422 -0.2216  0.9141  0.1632
  397MOL   F11148423   6.626   6.516   0.335  0.0287  0.0159 -0.0761
  397MOL   F11248424   6.537   6.698   0.400  0.0425 -0.3068  0.1882
  397MOL   C11348425   6.775   6.682   0.397  0.6354  0.7523  0.8562
  397MOL   H11448426   6.791   6.692   0.290  1.4292  3.0588  1.1591
  397MOL   H11548427   6.859   6.629   0.442 -0.3133 -2.7212 -1.2221
  397MOL   C11648428   6.790   6.831   0.457  0.5944 -0.1854  0.2613
  397MOL   F11748429   6.703   6.922   0.405  0.2433  0.0781 -0.1478
  397MOL   F11848430   6.777   6.827   0.585 -0.3636 -0.1597 -0.0063
  397MOL   C11948431   6.922   6.900   0.421 -0.0322  0.5008  0.3176
  397MOL   H12048432   6.916   6.911   0.312 -1.4600  1.0404  0.4413
  397MOL   H12148433   7.002   6.834   0.454 -0.9892 -1.1428 -0.5635
  397MOL   H12248434   6.941   6.998   0.465  2.0185 -0.1184  0.8322
  398MOL     C148435   7.062   8.297   4.841 -0.2795  0.3299  0.7438
  398MOL     F248436   6.993   8.201   4.917  0.0421  0.2592 -0.0596
  398MOL     F348437   6.990   8.343   4.744 -0.1558  0.0777 -0.5379
  398MOL     C448438   7.192   8.235   4.798  0.0291 -0.3868 -0.4049
  398MOL     H548439   7.168   8.152   4.732  1.3615 -0.7634 -0.4454
  398MOL     H648440   7.250   8.199   4.883 -1.2186  0.2268  0.7171
  398MOL     H748441   7.072   0.029   4.913  0.2160 -0.0482  1.1061
  398MOL     C848442   7.283   8.331   4.719  0.3856 -0.5010  0.8834
  398MOL     F948443   7.226   0.022   4.611  0.3821 -0.0815  0.2737
  398MOL    F1048444   7.318   0.088   4.798  0.1156  0.1183 -0.0431
  398MOL    C1148445   7.405   8.256   4.666  0.2230  0.0104 -0.3378
  398MOL    H1248446   7.370   8.178   4.598  0.0490 -2.9338  3.0348
  398MOL    H1348447   7.456   8.208   4.749 -0.2200  0.0937 -0.0158
  398MOL    C1448448   7.495   0.005   4.578  0.1791 -0.5850  0.5486
  398MOL    F1548449   7.607   8.289   4.555 -0.3720  0.4391  0.2795
  398MOL    F1648450   7.421   0.034   4.465  0.2439 -0.5346 -0.1465
  398MOL    C1748451   7.544   0.142   4.644 -0.3125  0.0469  0.7507
  398MOL    H1848452   7.585   0.143   4.746 -0.7364 -1.4940  0.9499
  398MOL    H1948453   7.455   0.205   4.641  0.0052  0.4371 -1.1570
  398MOL    C2048454   7.655   0.221   4.570  0.3645  0.6977 -0.1306
  398MOL    F2148455   7.765   0.150   4.565  0.0771  0.3235 -0.1930
  398MOL    F2248456   7.615   0.240   4.442 -0.4220  0.2985 -0.0824
  398MOL    C2348457   7.693   0.357   4.623  0.3882  0.5524  0.0065
  398MOL    H2448458   7.770   0.376   4.549  0.2967  0.7204 -0.0463
  398MOL    H2548459   7.739   0.356   4.722  0.0942  1.8077  0.1657
  398MOL    C2648460   7.583   0.465   4.614 -0.4788  0.0364 -0.9176
  398MOL    F2748461   7.557   0.479   4.485 -0.2400  0.5780 -0.1308
  398MOL    F2848462   7.470   0.415   4.671 -0.1928  0.0665  0.1190
  398MOL    C2948463   7.636   0.598   4.670  0.6371 -0.4122 -0.4592
  398MOL    H3048464   7.723   0.627   4.612  0.6452  1.6796  0.5236
  398MOL    H3148465   7.678   0.590   4.770 -1.4070  0.2853  0.4820
  398MOL    C3248466   7.544   0.717   4.660  0.1967  0.0096 -0.2536
  398MOL    F3348467   7.620   0.826   4.683  0.1050 -0.2243 -0.0989
  398MOL    F3448468   7.501   0.717   4.533  0.4645  0.1621  0.0653
  398MOL    C3548469   7.425   0.715   4.760 -0.1130  0.7881 -0.4239
  398MOL    H3648470   7.341   0.658   4.721 -0.5057  1.5847 -0.7679
  398MOL    H3748471   7.389   0.818   4.769 -0.0424  0.6780  1.1760
  398MOL    C3848472   7.461   0.679   4.905  0.2229  0.0784  0.1044
  398MOL    F3948473   7.494   0.553   4.926  0.7219 -0.5514  0.4605
  398MOL    F4048474   7.572   0.746   4.938  0.2095  0.6289 -0.1246
  398MOL    C4148475   7.352   0.727   5.004  0.2121 -0.6389 -0.4198
  398MOL    H4248476   7.332   0.832   4.982  0.7624  0.2627  3.0503
  398MOL    H4348477   7.402   0.718   5.100 -0.5024 -0.2840 -0.0086
  398MOL    C4448478   7.215   0.658   5.010  0.1057 -0.0265 -0.0912
  398MOL    F4548479   7.128   0.720   5.098  0.8652 -0.0643  0.2432
  398MOL    F4648480   7.173   0.687   4.886  0.0688  0.5879 -0.3378
  398MOL    C4748481   7.239   0.509   5.023  0.5052  0.0020  0.4605
  398MOL    H4848482   7.314   0.493   5.100  1.0298  1.4606  0.2539
  398MOL    H4948483   7.265   0.467   4.925 -2.9901 -0.2380 -0.4238
  398MOL    C5048484   7.116   0.419   5.057 -0.0715 -0.7747 -0.9320
  398MOL    F5148485   7.168   0.299   5.041 -0.8264 -0.2145  0.4810
  398MOL    F5248486   7.087   0.429   5.193  0.1180 -0.3970  0.7820
  398MOL    C5348487   6.985   0.450   4.985  0.3979  0.3091  0.1420
  398MOL    H5448488   7.019   0.454   4.881  1.5172 -1.4262  0.4177
  398MOL    H5548489   6.958   0.552   5.013 -0.4036  0.1238  0.0451
  398MOL    C5648490   6.871   0.347   4.993  0.3729 -0.0042  0.3532
  398MOL    F5748491   6.756   0.397   4.946  0.4059  0.3187  0.7029
  398MOL    F5848492   6.901   0.235   4.926  0.0118 -0.1494  0.0664
  398MOL    C5948493   6.844   0.295   5.138  0.4262 -0.2973  0.3986
  398MOL    H6048494   6.832   0.379   5.207 -0.5559 -1.9260  2.2560
  398MOL    H6148495   6.933   0.238   5.166 -0.5156 -1.8202  0.3240
  398MOL    C6248496   6.734   0.189   5.167  0.6042 -0.0898  0.1407
  398MOL    F6348497   6.617   0.241   5.136  0.5430 -0.0855  0.1362
  398MOL    F6448498   6.762   0.097   5.075  0.2928 -0.0222 -0.3204
  398MOL    C6548499   6.734   0.114   5.302 -0.1706  0.3070  0.1402
  398MOL    H6648500   6.822   0.052   5.318 -0.1751  0.2966  0.1226
  398MOL    H6748501   6.650   0.045   5.303 -0.5419  0.7546  1.1512
  398MOL    C6848502   6.737   0.207   5.420  0.1488  0.7752  0.3479
  398MOL    F6948503   6.859   0.258   5.418  0.0184 -0.2863  0.2463
  398MOL    F7048504   6.652   0.314   5.399  0.4777 -0.2939  0.0504
  398MOL    C7148505   6.715   0.140   5.554 -0.1279  0.1740  0.0964
  398MOL    H7248506   6.717   0.211   5.637  0.7549 -1.0580  1.1385
  398MOL    H7348507   6.796   0.072   5.577  1.9643  2.4196 -0.3942
  398MOL    C7448508   6.573   0.077   5.578  0.0123  0.8235 -0.4277
  398MOL    F7548509   6.478   0.152   5.510  0.6894 -0.4832 -0.0984
  398MOL    F7648510   6.575   8.299   5.533 -0.0132  0.8420 -0.0735
  398MOL    C7748511   6.538   0.074   5.726 -0.3970  0.0295  0.2659
  398MOL    H7848512   6.539   0.178   5.761 -1.2714  0.1477 -0.0585
  398MOL    H7948513   6.612   0.023   5.787 -3.0772 -1.1553  2.6622
  398MOL    C8048514   6.402   0.015   5.771 -0.5692 -0.0714 -0.6379
  398MOL    F8148515   6.385   0.043   5.902  0.7578 -0.3046  0.0391
  398MOL    F8248516   6.310   0.082   5.702  0.0285 -0.3287  0.2301
  398MOL    C8348517   6.384   8.206   5.738  0.7709  0.5659 -0.0334
  398MOL    H8448518   6.466   8.163   5.795 -1.5611  0.0965  3.1531
  398MOL    H8548519   6.404   8.181   5.634  1.7598 -0.6752  0.4549
  398MOL    C8648520   6.250   8.134   5.776  0.1947  0.1429  0.0294
  398MOL    F8748521   6.161   8.195   5.697  0.3206  0.1161  0.3785
  398MOL    F8848522   6.264   8.004   5.750 -0.0221  0.1461 -0.0339
  398MOL    C8948523   6.225   8.130   5.937 -0.0504  0.0174  0.7665
  398MOL    H9048524   6.236   8.233   5.972 -0.7210  0.2723  0.2426
  398MOL    H9148525   6.307   8.086   5.994 -1.4483 -0.9868  2.0349
  398MOL    C9248526   6.078   8.090   5.977 -0.2007 -0.1180  0.3299
  398MOL    F9348527   6.068   8.130   6.104 -0.4322 -0.3795  0.0892
  398MOL    F9448528   5.995   8.163   5.905  0.1497  0.2164 -0.2235
  398MOL    C9548529   6.049   7.940   5.968  0.3243  0.0485 -0.5585
  398MOL    H9648530   6.139   7.883   5.992  0.8449  1.8773  1.9954
  398MOL    H9748531   6.033   7.907   5.865 -0.5633 -3.0551  0.5111
  398MOL    C9848532   5.935   7.889   6.057 -0.2449  0.1151 -0.3914
  398MOL    F9948533   5.907   7.764   6.012  0.7324 -0.1082 -0.0293
  398MOL   F10048534   5.978   7.875   6.188  0.6106 -0.0841 -0.2243
  398MOL   C10148535   5.812   7.978   6.041 -0.1617  0.6173 -0.0908
  398MOL   H10248536   5.789   7.985   5.935 -3.1947  0.7370  0.5178
  398MOL   H10348537   5.834   8.080   6.073  0.2396  0.0927  1.3667
  398MOL   C10448538   5.691   7.932   6.124  0.2496  0.5184 -0.4173
  398MOL   F10548539   5.722   7.930   6.253  0.4822 -0.2491  0.1047
  398MOL   F10648540   5.598   8.025   6.103 -0.0485 -0.1067  0.2173
  398MOL   C10748541   5.624   7.798   6.084  0.6774 -0.3249 -0.5284
  398MOL   H10848542   5.688   7.722   6.129  0.9774  0.3129  0.1222
  398MOL   H10948543   5.634   7.784   5.977 -0.1135 -0.9836 -0.5291
  398MOL   C11048544   5.481   7.786   6.145  0.6229  0.2493 -0.8289
  398MOL   F11148545   5.399   7.877   6.090 -0.3316 -0.3990 -0.3533
  398MOL   F11248546   5.434   7.662   6.113 -0.0151  0.4477  0.4321
  398MOL   C11348547   5.490   7.790   6.300 -0.1116 -0.4101 -0.4522
  398MOL   H11448548   5.500   7.896   6.324 -0.8333  0.1354 -2.5307
  398MOL   H11548549   5.576   7.738   6.343  0.5213 -0.1382 -1.3806
  398MOL   C11648550   5.357   7.750   6.367 -0.8242 -0.4756 -0.2344
  398MOL   F11748551   5.367   7.796   6.485  0.5098  0.0564  0.1853
  398MOL   F11848552   5.258   7.807   6.303 -0.0128  0.1715  0.0123
  398MOL   C11948553   5.327   7.604   6.377 -0.1104  0.5470 -0.0426
  398MOL   H12048554   5.323   7.556   6.279 -1.5784  0.3246  0.1249
  398MOL   H12148555   5.225   7.601   6.414  0.0367 -1.1526  0.2441
  398MOL   H12248556   5.388   7.542   6.442  1.7138  1.8333 -0.4696
  399MOL     C148557   4.292   2.303   3.968  0.3453  0.8160 -0.8961
  399MOL     F248558   4.399   2.309   3.887  0.4067  0.0718 -0.2358
  399MOL     F348559   4.225   2.410   3.926  0.3010  0.2583 -0.4661
  399MOL     C448560   4.348   2.324   4.114 -0.6199 -0.3457  0.1375
  399MOL     H548561   4.262   2.361   4.170  1.1505  0.2646  2.5642
  399MOL     H648562   4.428   2.398   4.112  0.2592 -1.2120  1.8878
  399MOL     H748563   4.234   2.211   3.958  0.1499  0.7909  0.4002
  399MOL     C848564   4.418   2.206   4.186  0.6469  0.2756  0.0921
  399MOL     F948565   4.453   2.267   4.306 -0.6484 -0.2303  0.5834
  399MOL    F1048566   4.331   2.102   4.199  0.2717  0.0555  0.7651
  399MOL    C1148567   4.540   2.163   4.121 -0.6040  0.2426  0.5569
  399MOL    H1248568   4.599   2.249   4.088 -0.1323 -0.2020  0.2222
  399MOL    H1348569   4.526   2.110   4.026  0.1230  0.5843  0.2534
  399MOL    C1448570   4.623   2.060   4.210  0.2903  0.2677 -0.7802
  399MOL    F1548571   4.717   2.022   4.122  0.1858 -0.3065  0.7483
  399MOL    F1648572   4.685   2.111   4.310 -0.4613  0.3377  0.8980
  399MOL    C1748573   4.541   1.935   4.259 -0.3502 -0.9648 -0.5970
  399MOL    H1848574   4.472   1.913   4.177 -2.4132  0.0009  0.8430
  399MOL    H1948575   4.473   1.959   4.340  0.2664 -0.9611 -0.0804
  399MOL    C2048576   4.629   1.826   4.317  0.3815 -1.0013  0.3956
  399MOL    F2148577   4.714   1.766   4.226 -0.6076 -0.6162  0.4836
  399MOL    F2248578   4.710   1.880   4.411 -0.3027  0.5009  0.1405
  399MOL    C2348579   4.550   1.716   4.386  0.0015  0.3069  0.3657
  399MOL    H2448580   4.504   1.759   4.475  0.5180 -0.1013  0.8322
  399MOL    H2548581   4.618   1.635   4.413 -0.3041 -0.5709 -1.4190
  399MOL    C2648582   4.443   1.642   4.304  0.3270 -0.0926 -0.6647
  399MOL    F2748583   4.351   1.732   4.261 -0.2361  0.1011 -0.7050
  399MOL    F2848584   4.503   1.581   4.204 -0.2965 -0.3495  0.3877
  399MOL    C2948585   4.369   1.546   4.395 -0.4308 -0.3107  0.2252
  399MOL    H3048586   4.322   1.611   4.469 -0.4572  0.8862 -0.8223
  399MOL    H3148587   4.445   1.480   4.437  0.3604  1.1568  1.1487
  399MOL    C3248588   4.269   1.451   4.319  0.3466 -0.2806  0.2346
  399MOL    F3348589   4.333   1.380   4.222 -0.6945 -0.4617  0.1768
  399MOL    F3448590   4.226   1.368   4.412  0.4509 -0.1791 -0.1389
  399MOL    C3548591   4.143   1.524   4.265  0.0323  0.3346 -0.4748
  399MOL    H3648592   4.174   1.589   4.182  1.7427 -1.0561 -0.9592
  399MOL    H3748593   4.098   1.576   4.350 -0.5154 -0.4622 -0.2775
  399MOL    C3848594   4.042   1.435   4.199  0.6249  0.1216 -0.5285
  399MOL    F3948595   4.094   1.354   4.115 -0.4801  0.1010  0.3584
  399MOL    F4048596   3.985   1.357   4.289  0.6638 -0.1767 -0.1888
  399MOL    C4148597   3.936   1.508   4.113  0.5064 -0.2089  0.5439
  399MOL    H4248598   3.861   1.441   4.071  0.3580  0.8609 -0.9405
  399MOL    H4348599   3.988   1.558   4.031 -0.1116 -3.5577 -2.0103
  399MOL    C4448600   3.865   1.617   4.201  0.4405  0.6677  1.2526
  399MOL    F4548601   3.823   1.563   4.317 -0.2432  0.2151  0.3716
  399MOL    F4648602   3.950   1.723   4.222 -0.1230 -0.3525 -0.7470
  399MOL    C4748603   3.739   1.676   4.131  0.0001  0.0099 -0.2858
  399MOL    H4848604   3.666   1.597   4.120 -0.3566 -0.0634  2.3540
  399MOL    H4948605   3.769   1.723   4.037 -0.5115 -0.6036 -0.7563
  399MOL    C5048606   3.668   1.792   4.199 -0.4456 -0.6612  0.1885
  399MOL    F5148607   3.621   1.744   4.318 -0.1692 -0.2006  0.1325
  399MOL    F5248608   3.751   1.895   4.223 -0.0619 -0.2638 -0.6407
  399MOL    C5348609   3.553   1.856   4.127  0.2034  0.2846 -0.5130
  399MOL    H5448610   3.576   1.930   4.050 -3.0854  0.6989 -1.1871
  399MOL    H5548611   3.513   1.923   4.203  0.9261  1.4129 -1.1119
  399MOL    C5648612   3.442   1.755   4.077  0.0192 -0.6082  0.2213
  399MOL    F5748613   3.501   1.694   3.975  0.7125 -0.1330 -0.5498
  399MOL    F5848614   3.412   1.665   4.170 -0.1940  0.1348 -0.0487
  399MOL    C5948615   3.313   1.825   4.032  0.0867  0.4353  0.2369
  399MOL    H6048616   3.275   1.864   4.126 -1.3301  4.1333 -1.7718
  399MOL    H6148617   3.235   1.752   4.011  0.4031  0.1837 -0.0768
  399MOL    C6248618   3.327   1.942   3.926 -0.6166 -0.8124  0.1015
  399MOL    F6348619   3.376   2.057   3.980 -0.1605 -0.3750  0.2237
  399MOL    F6448620   3.417   1.887   3.846 -0.0559  0.2514  0.0367
  399MOL    C6548621   3.202   1.960   3.834 -0.5018  0.9731 -0.1141
  399MOL    H6648622   3.174   1.859   3.803 -0.7208  0.5106  1.5227
  399MOL    H6748623   3.225   2.017   3.744  0.0132 -0.7672 -1.1139
  399MOL    C6848624   3.086   2.025   3.905 -0.1942  0.1991 -0.1640
  399MOL    F6948625   3.050   1.943   4.010 -0.1114  0.3331  0.9466
  399MOL    F7048626   3.123   2.142   3.962  0.3365  0.1143  0.3525
  399MOL    C7148627   2.966   2.052   3.807  0.3894  0.6527 -0.5227
  399MOL    H7248628   2.931   1.963   3.754 -0.4810 -1.2097  3.0559
  399MOL    H7348629   3.003   2.116   3.727  1.7611  2.0749  1.2237
  399MOL    C7448630   2.828   2.089   3.871  0.2886  1.2367 -0.3922
  399MOL    F7548631   2.747   2.096   3.771  0.0628  0.7141 -0.1521
  399MOL    F7648632   2.785   2.004   3.966  0.1923 -0.3514  0.4505
  399MOL    C7748633   2.824   2.227   3.944 -1.1200 -0.3219  0.5151
  399MOL    H7848634   2.888   2.243   4.031 -0.3581  2.7293 -0.5387
  399MOL    H7948635   2.722   2.240   3.980 -1.4972 -0.7229 -0.4008
  399MOL    C8048636   2.862   2.344   3.849 -0.3837 -1.1164  0.4919
  399MOL    F8148637   2.992   2.339   3.806  0.2655  0.5160 -0.2412
  399MOL    F8248638   2.781   2.354   3.736  0.0576  0.3791 -0.0573
  399MOL    C8348639   2.847   2.476   3.936 -0.0323  0.0364  0.3783
  399MOL    H8448640   2.915   2.478   4.022  0.4842 -0.3503 -0.0182
  399MOL    H8548641   2.750   2.475   3.986 -0.0809  0.4328  0.2920
  399MOL    C8648642   2.846   2.603   3.857 -0.4690 -0.1683 -0.4414
  399MOL    F8748643   2.723   2.623   3.813 -0.1482  0.3550 -0.3924
  399MOL    F8848644   2.869   2.689   3.953 -0.6362 -0.0871 -0.3642
  399MOL    C8948645   2.948   2.627   3.746 -0.1402 -0.3523 -0.1473
  399MOL    H9048646   2.948   2.540   3.681  0.3383  1.3111 -2.4304
  399MOL    H9148647   3.050   2.622   3.784 -0.8642  0.8050  2.0243
  399MOL    C9248648   2.932   2.750   3.656  0.4078  0.3476 -0.2240
  399MOL    F9348649   2.813   2.744   3.600 -0.1684  0.2704 -0.0086
  399MOL    F9448650   2.941   2.856   3.740  0.1606  0.1832 -0.0003
  399MOL    C9548651   3.044   2.754   3.553 -0.1165  0.2049  0.2072
  399MOL    H9648652   3.070   2.661   3.503  0.2388  1.1936 -1.4715
  399MOL    H9748653   3.138   2.767   3.605  0.8682 -2.1948 -0.9117
  399MOL    C9848654   3.034   2.867   3.453  0.1205  0.1264  1.0060
  399MOL    F9948655   3.022   2.977   3.526  0.2640 -0.3658  0.3513
  399MOL   F10048656   3.149   2.875   3.385 -0.0406 -0.4711 -0.4293
  399MOL   C10148657   2.922   2.862   3.347  0.6448  0.3883  0.5351
  399MOL   H10248658   2.930   2.941   3.273  0.9170 -1.1394 -1.1248
  399MOL   H10348659   2.825   2.881   3.393 -1.0034 -2.0720 -1.7656
  399MOL   C10448660   2.901   2.738   3.258  0.3308  0.5013 -0.3764
  399MOL   F10548661   3.013   2.701   3.189  0.4175  0.2591 -0.1077
  399MOL   F10648662   2.874   2.631   3.333  0.5719 -0.5326 -0.2597
  399MOL   C10748663   2.772   2.771   3.169 -0.6780  0.9217  0.2118
  399MOL   H10848664   2.798   2.858   3.108  0.6737  1.9711  2.2533
  399MOL   H10948665   2.690   2.791   3.238 -0.1246  4.0938  0.0243
  399MOL   C11048666   2.723   2.655   3.088 -0.5095  0.6434  0.6738
  399MOL   F11148667   2.833   2.603   3.023 -0.2072  0.2064 -0.2201
  399MOL   F11248668   2.675   2.570   3.175 -0.2875 -0.0690  0.5155
  399MOL   C11348669   2.618   2.705   2.977 -0.3927 -0.0318 -0.1888
  399MOL   H11448670   2.662   2.779   2.910 -0.2142 -0.9588 -1.1047
  399MOL   H11548671   2.534   2.763   3.018 -0.1794  0.6484 -0.6971
  399MOL   C11648672   2.543   2.594   2.901  0.0558 -0.5718 -0.0639
  399MOL   F11748673   2.633   2.537   2.822 -0.2103 -0.0689  0.2114
  399MOL   F11848674   2.488   2.506   2.981  0.6170  0.2690  0.2587
  399MOL   C11948675   2.443   2.651   2.798 -0.7231  0.4338 -0.1443
  399MOL   H12048676   2.366   2.712   2.845 -1.9750 -1.9165  0.9516
  399MOL   H12148677   2.390   2.574   2.741 -0.1198  1.3491 -1.9963
  399MOL   H12248678   2.484   2.729   2.733 -0.4780  0.5306  0.1258
  400MOL     C148679   6.778   1.933   0.074  0.3253  1.1674 -0.0852
  400MOL     F248680   6.808   1.991   0.192  0.0424 -0.2708  0.0453
  400MOL     F348681   6.884   1.942   8.344  0.1649  0.3250 -0.0888
  400MOL     C448682   6.647   1.989   0.009  0.3176  0.0300  0.3903
  400MOL     H548683   6.653   1.943   8.260 -1.7433 -3.6584  1.8825
  400MOL     H648684   6.663   2.096   8.346  0.4979 -0.2244 -1.7342
  400MOL     H748685   6.787   1.825   0.084  1.5316  1.1136 -1.5720
  400MOL     C848686   6.511   1.968   0.078 -0.7247  0.1643 -0.3307
  400MOL     F948687   6.476   1.843   0.052  0.0312  0.3387 -0.3104
  400MOL    F1048688   6.524   1.990   0.210  0.3394 -0.0195 -0.1262
  400MOL    C1148689   6.395   2.055   0.010 -0.1866 -0.3917 -0.2674
  400MOL    H1248690   6.389   2.018   8.257 -2.9267 -2.2983  0.5462
  400MOL    H1348691   6.433   2.157   0.011  0.4605 -0.6095 -1.1165
  400MOL    C1448692   6.259   2.053   0.068  0.3341  1.1401 -0.0276
  400MOL    F1548693   6.203   1.931   0.051 -0.2283  0.2642  0.1063
  400MOL    F1648694   6.268   2.074   0.200  0.1626  0.1276  0.3434
  400MOL    C1748695   6.174   2.172   0.019 -0.3166 -0.6610 -0.6774
  400MOL    H1848696   6.161   2.157   8.261 -0.6517 -0.6964 -0.6352
  400MOL    H1948697   6.225   2.268   0.022 -1.2880 -0.1741  2.4665
  400MOL    C2048698   6.029   2.198   0.086 -1.0333  0.0597 -0.2256
  400MOL    F2148699   6.049   2.223   0.217  0.3609  0.0957  0.8408
  400MOL    F2248700   5.967   2.308   0.032 -0.7602 -0.3019  0.4346
  400MOL    C2348701   5.929   2.075   0.078 -0.4762  0.8335 -0.0665
  400MOL    H2448702   5.835   2.096   0.129 -0.5014 -1.4845  0.9043
  400MOL    H2548703   5.972   1.989   0.131 -1.7316  0.8291  0.9802
  400MOL    C2648704   5.887   2.020   8.286  0.8465  0.4165 -0.6512
  400MOL    F2748705   5.826   2.114   8.218 -0.4044 -0.3530 -0.7904
  400MOL    F2848706   5.992   1.975   8.219 -0.5958 -0.0520 -0.4609
  400MOL    C2948707   5.780   1.909   8.302  0.2157 -0.2192  0.3183
  400MOL    H3048708   5.761   1.887   8.197  1.5546 -2.2086  0.4749
  400MOL    H3148709   5.696   1.953   0.006 -1.1471 -2.1005 -0.2398
  400MOL    C3248710   5.820   1.778   0.025 -0.4281 -0.0165 -0.4297
  400MOL    F3348711   5.842   1.793   0.157  0.0020 -0.4202 -0.6002
  400MOL    F3448712   5.721   1.697   0.015 -0.3101 -0.1740  0.4899
  400MOL    C3548713   5.950   1.719   8.314 -0.3689 -0.4094  0.4683
  400MOL    H3648714   6.032   1.787   8.334  0.6361 -1.8258  1.2112
  400MOL    H3748715   5.953   1.705   8.206  0.5546 -3.8333  0.8868
  400MOL    C3848716   5.996   1.579   0.019  0.3373  0.2283 -0.0574
  400MOL    F3948717   6.001   1.598   0.155  0.2493  0.3513  0.3508
  400MOL    F4048718   5.903   1.492   8.338  0.1800  0.2386 -0.2414
  400MOL    C4148719   6.130   1.535   8.321 -1.1905 -0.1121  0.3667
  400MOL    H4248720   6.190   1.624   8.339 -0.5691 -0.6245  0.9025
  400MOL    H4348721   6.142   1.518   8.214 -0.8064  0.6632  0.2826
  400MOL    C4448722   6.202   1.414   0.030  1.0031  0.1067  0.9760
  400MOL    F4548723   6.295   1.379   8.292  0.0993  0.3836  0.1232
  400MOL    F4648724   6.259   1.443   0.144 -0.4206 -0.0545 -0.4745
  400MOL    C4748725   6.110   1.296   0.055 -0.2114  0.3262  0.3472
  400MOL    H4848726   6.037   1.277   8.326  2.6505 -0.6662 -2.1658
  400MOL    H4948727   6.039   1.308   0.137 -0.5055 -1.2328  0.3320
  400MOL    C5048728   6.190   1.162   0.097  0.0262 -0.0341 -0.8275
  400MOL    F5148729   6.267   1.116   8.341  0.5226  0.1328 -0.1818
  400MOL    F5248730   6.284   1.194   0.193  0.1496  0.2128  0.3848
  400MOL    C5348731   6.102   1.049   0.155 -0.3040 -0.2993  0.6186
  400MOL    H5448732   6.023   1.025   0.084 -0.4505  3.7676 -0.7636
  400MOL    H5548733   6.045   1.098   0.233  1.1877  1.8955  0.3837
  400MOL    C5648734   6.168   0.925   0.220 -0.3418 -0.1332 -1.1549
  400MOL    F5748735   6.240   0.863   0.128 -0.1535  0.5100  0.2266
  400MOL    F5848736   6.245   0.964   0.320  0.4211 -0.1054  0.1668
  400MOL    C5948737   6.054   0.839   0.276 -0.1743  0.0679  0.5155
  400MOL    H6048738   5.988   0.815   0.193  1.1854 -1.5673 -0.1196
  400MOL    H6148739   5.994   0.904   0.340 -3.8748 -2.0752 -0.6888
  400MOL    C6248740   6.095   0.705   0.346 -0.1040 -0.3921  0.4072
  400MOL    F6348741   6.192   0.657   0.270  0.0513  0.1235 -0.1815
  400MOL    F6448742   6.148   0.743   0.462  0.8489  0.1121 -0.7465
  400MOL    C6548743   5.984   0.589   0.362  0.5767  0.8257  0.7417
  400MOL    H6648744   5.981   0.546   0.262 -2.5517 -0.8480  1.4971
  400MOL    H6748745   5.889   0.626   0.399  1.4995  1.7247  2.2803
  400MOL    C6848746   6.021   0.477   0.459  0.5016 -0.1996  0.5990
  400MOL    F6948747   5.966   0.360   0.419 -0.0769 -0.2011  0.8214
  400MOL    F7048748   6.150   0.453   0.442  0.0880 -0.4047 -0.1075
  400MOL    C7148749   6.001   0.499   0.611 -0.1786 -0.2441 -0.8131
  400MOL    H7248750   5.894   0.508   0.631 -0.0340  3.6772 -1.4080
  400MOL    H7348751   6.033   0.600   0.639 -2.9260  0.6471 -0.7505
  400MOL    C7448752   6.064   0.395   0.705 -0.1001  0.3464 -0.3815
  400MOL    F7548753   6.009   0.280   0.669  0.4188 -0.0005 -0.5094
  400MOL    F7648754   6.196   0.398   0.679 -0.3853  0.1728 -0.0342
  400MOL    C7748755   6.040   0.410   0.858  0.3515 -0.0495  0.0455
  400MOL    H7848756   6.104   0.337   0.907 -0.6273 -0.0065  1.4229
  400MOL    H7948757   5.938   0.381   0.880 -0.1295 -0.1656 -2.2196
  400MOL    C8048758   6.077   0.546   0.923  0.5565  0.6675 -0.1535
  400MOL    F8148759   6.201   0.561   0.884 -0.1981 -0.0179  0.3180
  400MOL    F8248760   6.004   0.643   0.864  0.6596 -0.0258 -0.4058
  400MOL    C8348761   6.067   0.550   1.073 -0.6971 -0.2028  0.5683
  400MOL    H8448762   6.074   0.448   1.110  2.3313  0.2075  1.2434
  400MOL    H8548763   5.960   0.565   1.087 -0.6976  0.0231  0.3309
  400MOL    C8648764   6.156   0.650   1.149  0.5719  0.6918  0.0232
  400MOL    F8748765   6.111   0.651   1.273 -0.0473 -0.3216  0.4372
  400MOL    F8848766   6.281   0.598   1.141 -0.2332 -0.3200 -0.3494
  400MOL    C8948767   6.159   0.795   1.090 -0.3583 -0.6095 -1.0077
  400MOL    H9048768   6.071   0.854   1.114 -1.0319 -1.0784 -2.2795
  400MOL    H9148769   6.158   0.801   0.981  0.4620  0.4256 -0.9743
  400MOL    C9248770   6.292   0.875   1.119 -0.3453 -0.4614 -0.5724
  400MOL    F9348771   6.391   0.822   1.050  0.0637  0.1721 -0.0470
  400MOL    F9448772   6.271   0.999   1.084  0.1797  0.0061  0.1384
  400MOL    C9548773   6.330   0.880   1.272  0.0686  0.4592 -0.1284
  400MOL    H9648774   6.345   0.778   1.307 -1.0938  0.4752  0.4220
  400MOL    H9748775   6.250   0.917   1.335 -0.0064  1.8340 -1.0171
  400MOL    C9848776   6.453   0.959   1.310 -0.1577  0.0674 -0.2793
  400MOL    F9948777   6.426   1.087   1.291 -0.8250 -0.1599  0.1951
  400MOL   F10048778   6.474   0.937   1.444  0.0099 -0.1078 -0.2771
  400MOL   C10148779   6.585   0.917   1.233 -0.3973 -0.4766  0.2982
  400MOL   H10248780   6.574   0.970   1.138 -0.1370  1.9985  1.6085
  400MOL   H10348781   6.581   0.809   1.219 -0.1391 -0.8305  2.7317
  400MOL   C10448782   6.713   0.964   1.286  0.2432  0.3501 -0.6717
  400MOL   F10548783   6.726   0.903   1.399 -0.2606  0.1937  0.3821
  400MOL   F10648784   6.805   0.927   1.199 -0.5282 -0.2811  0.3080
  400MOL   C10748785   6.732   1.113   1.323 -0.9015  0.4036 -0.4946
  400MOL   H10848786   6.658   1.140   1.398 -0.9689 -0.5116 -0.2335
  400MOL   H10948787   6.709   1.174   1.235 -0.1428  2.9788  1.0286
  400MOL   C11048788   6.870   1.173   1.368 -0.0593 -0.1774 -0.0569
  400MOL   F11148789   6.897   1.126   1.491 -0.6371  0.0084  0.5250
  400MOL   F11248790   6.960   1.125   1.283 -0.0419  0.2946  0.1947
  400MOL   C11348791   6.877   1.327   1.379 -0.9923 -0.4693 -0.4136
  400MOL   H11448792   6.785   1.361   1.427 -0.3647  1.0609 -0.2553
  400MOL   H11548793   6.854   1.348   1.274  0.4484 -0.9727 -0.8424
  400MOL   C11648794   7.021   1.378   1.419 -0.0382  0.1589  0.1219
  400MOL   F11748795   7.113   1.326   1.337  0.4760  0.4318  0.2424
  400MOL   F11848796   7.004   1.514   1.397  0.0232  0.3240  0.1041
  400MOL   C11948797   7.070   1.359   1.566  0.1809  0.5639 -0.0577
  400MOL   H12048798   7.077   1.258   1.608 -1.3807  0.9173  1.1070
  400MOL   H12148799   6.999   1.414   1.627 -0.7331  1.8324 -2.1900
  400MOL   H12248800   7.161   1.414   1.590 -1.7606  4.2801 -0.9188
  401MOL     C148801   7.980   3.421   3.172  0.1433  0.1472 -0.5983
  401MOL     F248802   7.978   3.292   3.151 -0.2199 -0.2767  0.5510
  401MOL     F348803   7.923   3.466   3.064 -0.4182  0.1772  0.3845
  401MOL     C448804   8.127   3.466   3.194 -0.1245  0.0301 -0.1986
  401MOL     H548805   8.141   3.574   3.183 -0.8714  0.2340  0.7315
  401MOL     H648806   8.191   3.424   3.117  1.9703  0.6572  1.1818
  401MOL     H748807   7.913   3.430   3.257  0.1586 -2.0656 -0.3163
  401MOL     C848808   8.175   3.418   3.329 -0.0463 -0.1318  0.3625
  401MOL     F948809   8.089   3.471   3.419  0.4241 -0.0992  0.0781
  401MOL    F1048810   8.160   3.285   3.339  0.3336 -0.0391 -0.2719
  401MOL    C1148811   8.320   3.446   3.363 -0.2843  0.4378 -0.0195
  401MOL    H1248812   8.326   3.555   3.363 -1.0595  0.4877 -0.8968
  401MOL    H1348813   0.032   3.425   3.276  1.4501 -0.6147  1.4421
  401MOL    C1448814   0.041   3.368   3.477  0.1032 -0.3521  0.5568
  401MOL    F1548815   0.069   3.246   3.421 -0.0953 -0.0329  0.3371
  401MOL    F1648816   0.145   3.449   3.502  0.4007  0.2114  0.1281
  401MOL    C1748817   8.309   3.364   3.609 -0.7206 -0.4342  0.2156
  401MOL    H1848818   8.222   3.299   3.600 -1.4334  0.7372 -1.6893
  401MOL    H1948819   8.270   3.465   3.622 -0.8950  0.0342 -3.3057
  401MOL    C2048820   0.042   3.328   3.734 -0.1727 -0.3438  0.0695
  401MOL    F2148821   0.128   3.431   3.760 -0.2305  0.0999  0.4038
  401MOL    F2248822   8.299   3.317   3.833 -0.1625  0.2242 -0.2056
  401MOL    C2348823   0.116   3.191   3.707 -0.0999  0.0593  0.4358
  401MOL    H2448824   0.196   3.204   3.634  0.2543 -0.9645  0.6353
  401MOL    H2548825   0.051   3.119   3.656 -0.3224 -0.3740  1.3274
  401MOL    C2648826   0.182   3.133   3.831 -0.0649  0.2589 -1.2074
  401MOL    F2748827   0.239   3.233   3.902  0.1621  0.1445  0.5946
  401MOL    F2848828   0.086   3.094   3.908 -0.0226  0.2649 -0.0039
  401MOL    C2948829   0.293   3.020   3.814  0.5190 -0.1100  0.1140
  401MOL    H3048830   0.367   3.051   3.741 -0.6581  1.9148 -0.2417
  401MOL    H3148831   0.249   2.934   3.762  0.4018  0.5378 -0.8614
  401MOL    C3248832   0.345   2.963   3.951  0.0650 -0.0206 -0.1552
  401MOL    F3348833   0.245   2.908   4.020  0.3206  0.2337  0.1222
  401MOL    F3448834   0.423   2.867   3.913 -0.1843  0.0982 -0.3624
  401MOL    C3548835   0.420   3.063   4.033  0.2930 -0.4129 -0.4411
  401MOL    H3648836   0.341   3.119   4.084  0.6206  0.3123 -0.7270
  401MOL    H3748837   0.485   3.131   3.977 -2.4635  1.0921 -1.9123
  401MOL    C3848838   0.502   3.001   4.145  0.4307 -0.2147  0.0932
  401MOL    F3948839   0.423   2.923   4.219  0.0344  0.0498 -0.7136
  401MOL    F4048840   0.595   2.925   4.096 -0.5351 -0.5781 -0.5025
  401MOL    C4148841   0.558   3.110   4.232  0.5087  0.0925  0.1218
  401MOL    H4248842   0.477   3.178   4.259 -0.9529 -0.2894 -2.9763
  401MOL    H4348843   0.631   3.164   4.172 -0.8662 -1.1960 -2.8466
  401MOL    C4448844   0.626   3.066   4.364 -0.2274  0.5415 -0.9788
  401MOL    F4548845   0.722   2.983   4.325 -0.1917  0.3314 -0.4126
  401MOL    F4648846   0.693   3.173   4.412  0.4372  0.1275  0.1980
  401MOL    C4748847   0.536   2.995   4.478 -0.0836 -0.1933 -0.3307
  401MOL    H4848848   0.602   2.963   4.559 -1.3625  2.2698  1.7869
  401MOL    H4948849   0.506   2.897   4.441 -0.8749  0.4464 -1.3983
  401MOL    C5048850   0.426   3.079   4.544 -0.8528 -0.1771  0.8165
  401MOL    F5148851   0.327   3.110   4.462 -0.0744  0.0909  0.4867
  401MOL    F5248852   0.373   3.001   4.636 -0.0925  0.5131 -0.5314
  401MOL    C5348853   0.477   3.211   4.608  0.4540  0.1238  0.3736
  401MOL    H5448854   0.391   3.277   4.622  0.8317  0.6406  0.2557
  401MOL    H5548855   0.534   3.264   4.532 -0.7389  1.0526  0.0944
  401MOL    C5648856   0.552   3.209   4.740  0.3148 -1.0480  0.8410
  401MOL    F5748857   0.481   3.160   4.840  0.0550 -0.0607 -0.1498
  401MOL    F5848858   0.657   3.128   4.725 -0.0893 -0.3748 -0.6566
  401MOL    C5948859   0.593   3.353   4.770 -0.7082 -0.0015 -0.3158
  401MOL    H6048860   0.505   3.416   4.756  0.5976  1.4981 -2.0293
  401MOL    H6148861   0.656   3.387   4.688 -0.3657 -0.9809 -0.4616
  401MOL    C6248862   0.667   3.362   4.907 -0.6073 -0.6854 -0.5215
  401MOL    F6348863   0.576   3.353   5.000 -0.3151 -0.0455  0.2107
  401MOL    F6448864   0.761   3.264   4.909  0.3965 -0.5752 -0.4057
  401MOL    C6548865   0.740   3.498   4.920 -0.0444  0.0735 -0.5825
  401MOL    H6648866   0.690   3.587   4.882 -0.1610  0.2885  0.0717
  401MOL    H6748867   0.833   3.497   4.863  0.5825 -2.9641  0.4191
  401MOL    C6848868   0.776   3.537   5.061 -0.5029 -0.1372  0.5341
  401MOL    F6948869   0.824   3.430   5.116  0.4511 -0.1518 -0.4658
  401MOL    F7048870   0.876   3.623   5.072 -0.1502 -0.3362 -0.5335
  401MOL    C7148871   0.670   3.584   5.158 -0.3630 -0.1907 -0.1625
  401MOL    H7248872   0.701   3.601   5.261  1.0676 -1.6114 -0.3282
  401MOL    H7348873   0.584   3.517   5.161 -1.2052  0.8346 -1.0265
  401MOL    C7448874   0.587   3.706   5.129  0.2150  0.0103  0.4121
  401MOL    F7548875   0.508   3.703   5.020  0.0274 -0.5289 -0.0139
  401MOL    F7648876   0.507   3.709   5.234 -0.2793  0.4263 -0.1885
  401MOL    C7748877   0.676   3.831   5.128 -0.9062 -0.1209 -0.4809
  401MOL    H7848878   0.737   3.818   5.038  0.1421 -2.9163  0.6005
  401MOL    H7948879   0.735   3.832   5.219 -1.3669 -0.2183 -0.1841
  401MOL    C8048880   0.595   3.969   5.120 -0.1983  0.0750 -0.5538
  401MOL    F8148881   0.524   3.985   5.005 -0.1902 -0.0281 -0.1544
  401MOL    F8248882   0.501   3.955   5.216 -0.1355 -0.3754 -0.1998
  401MOL    C8348883   0.679   4.085   5.159  0.3093 -1.0353  0.1391
  401MOL    H8448884   0.706   4.076   5.264 -0.1203 -1.2293  0.2343
  401MOL    H8548885   0.614   4.173   5.156  0.0748 -1.2627 -1.7743
  401MOL    C8648886   0.814   4.100   5.082 -0.3537  0.2289  0.3050
  401MOL    F8748887   0.899   4.001   5.099  0.5590  0.0204 -0.1837
  401MOL    F8848888   0.787   4.118   4.950  0.0742 -0.7020 -0.0988
  401MOL    C8948889   0.896   4.215   5.149  0.2545 -0.7571  0.6014
  401MOL    H9048890   0.919   4.188   5.252  1.0995 -2.3276  0.0210
  401MOL    H9148891   0.831   4.302   5.158 -1.0328 -1.6643  0.1391
  401MOL    C9248892   1.021   4.271   5.078 -0.4629 -0.8918 -0.1196
  401MOL    F9348893   1.060   4.378   5.142 -0.0668  0.1860  0.0581
  401MOL    F9448894   1.123   4.184   5.091 -0.4481  0.0676  0.5303
  401MOL    C9548895   1.006   4.308   4.925 -0.4760 -0.3624 -0.2411
  401MOL    H9648896   0.988   4.215   4.871 -0.3794 -0.7545  0.3977
  401MOL    H9748897   1.100   4.355   4.895 -0.6619 -1.3347 -2.4262
  401MOL    C9848898   0.904   4.414   4.884  1.0371  0.4270  1.2460
  401MOL    F9948899   0.783   4.375   4.908  0.1038 -0.0793  0.0330
  401MOL   F10048900   0.924   4.520   4.958 -0.3316  0.0728  0.0296
  401MOL   C10148901   0.913   4.460   4.742  0.5527  0.1997 -0.1070
  401MOL   H10248902   0.811   4.492   4.721 -0.3379 -2.3275  0.1828
  401MOL   H10348903   0.931   4.372   4.680 -2.6032  0.9512 -2.2213
  401MOL   C10448904   1.022   4.562   4.693 -0.5011 -1.0609  0.1407
  401MOL   F10548905   1.005   4.669   4.767  0.0843 -0.0011  0.0323
  401MOL   F10648906   1.147   4.517   4.718 -0.4432  0.0356 -0.4710
  401MOL   C10748907   1.013   4.615   4.545 -0.3422  0.4897  0.2923
  401MOL   H10848908   1.084   4.697   4.536  0.1104  0.1483  0.6936
  401MOL   H10948909   0.914   4.657   4.526 -0.1236  0.4987 -0.8740
  401MOL   C11048910   1.040   4.511   4.438  0.2994 -0.0783  0.0565
  401MOL   F11148911   1.125   4.422   4.483 -0.4054  0.1916 -0.0330
  401MOL   F11248912   0.922   4.447   4.435  0.4250 -0.1281  0.1126
  401MOL   C11348913   1.076   4.575   4.305  0.0928 -0.2013 -0.1007
  401MOL   H11448914   1.155   4.649   4.317 -0.4322 -0.1073  3.2150
  401MOL   H11548915   0.985   4.626   4.273 -0.6675  0.2894  2.7252
  401MOL   C11648916   1.139   4.482   4.198 -0.1760 -0.7044 -0.3676
  401MOL   F11748917   1.252   4.444   4.246 -0.1750 -0.7347 -0.1667
  401MOL   F11848918   1.052   4.384   4.176 -0.1778 -0.1033 -0.7444
  401MOL   C11948919   1.160   4.550   4.059 -0.8559  0.5559 -0.3198
  401MOL   H12048920   1.069   4.602   4.031 -1.1200  0.7508  0.8624
  401MOL   H12148921   1.184   4.479   3.980  1.8008 -0.2387  1.1209
  401MOL   H12248922   1.243   4.620   4.063 -0.0972 -0.2460 -1.6138
  402MOL     C148923   4.608   3.974   2.223  0.2360 -0.5725  0.0351
  402MOL     F248924   4.514   4.052   2.261 -0.5364  0.3797  0.1732
  402MOL     F348925   4.701   3.984   2.318  0.0230 -0.6316  0.1690
  402MOL     C448926   4.653   4.011   2.082 -0.4445 -0.6387  0.3801
  402MOL     H548927   4.681   4.111   2.049 -0.4932 -0.2547  1.4780
  402MOL     H648928   4.566   3.996   2.018 -0.1945 -1.5102  0.2458
  402MOL     H748929   4.557   3.878   2.228 -0.4310 -0.2071  0.3643
  402MOL     C848930   4.772   3.912   2.041  0.0789 -0.1704  0.3372
  402MOL     F948931   4.885   3.940   2.101  0.3717 -0.5126 -0.2368
  402MOL    F1048932   4.743   3.796   2.085  0.2819  0.7365  0.1026
  402MOL    C1148933   4.792   3.902   1.886  1.0867  0.9443  0.2455
  402MOL    H1248934   4.703   3.857   1.840  0.9445  0.8217  0.6351
  402MOL    H1348935   4.867   3.824   1.871  0.5524  0.2157  1.3583
  402MOL    C1448936   4.806   4.025   1.791  0.5616  0.2921  0.3866
  402MOL    F1548937   4.833   3.975   1.668 -0.3910  0.0457  0.3548
  402MOL    F1648938   4.688   4.093   1.802 -0.3605  0.6445  0.3885
  402MOL    C1748939   4.926   4.104   1.838 -0.2736  0.1467  0.0616
  402MOL    H1848940   5.011   4.039   1.861  1.5634  2.0441 -1.1137
  402MOL    H1948941   4.902   4.154   1.932  0.4178  0.1156  0.2568
  402MOL    C2048942   4.973   4.226   1.746 -0.5555  0.0528 -0.4984
  402MOL    F2148943   4.875   4.315   1.716 -0.4007 -0.7062 -0.0819
  402MOL    F2248944   5.060   4.298   1.817  0.3271 -0.0873 -0.1965
  402MOL    C2348945   5.042   4.198   1.614  0.5196  0.0729 -0.4418
  402MOL    H2448946   5.066   4.296   1.571  0.2241 -0.4700 -1.8519
  402MOL    H2548947   4.968   4.161   1.543 -0.7614  2.4692 -0.4093
  402MOL    C2648948   5.162   4.107   1.602  0.3037  0.2909 -0.0435
  402MOL    F2748949   5.245   4.134   1.700  0.1735 -0.7380 -0.1613
  402MOL    F2848950   5.099   3.988   1.629  0.7927  0.0488 -0.2312
  402MOL    C2948951   5.226   4.094   1.463  0.0368  0.1738  0.0910
  402MOL    H3048952   5.295   4.010   1.476  2.3798  2.0566  0.0084
  402MOL    H3148953   5.283   4.184   1.442  2.5774 -0.9087  2.0109
  402MOL    C3248954   5.133   4.058   1.347  0.3383 -0.2998 -0.6574
  402MOL    F3348955   5.032   3.979   1.384  0.2878  0.3422 -0.3348
  402MOL    F3448956   5.078   4.168   1.302 -0.1406  0.0638 -0.0363
  402MOL    C3548957   5.211   4.000   1.228 -0.3602  0.0460 -0.2829
  402MOL    H3648958   5.299   4.064   1.233 -0.0682 -0.4545  1.1621
  402MOL    H3748959   5.158   4.019   1.135  1.3418  0.3294 -1.2248
  402MOL    C3848960   5.229   3.845   1.235 -1.0961 -0.4672  0.0335
  402MOL    F3948961   5.293   3.813   1.342  0.4107 -0.8338  0.2207
  402MOL    F4048962   5.117   3.783   1.240  0.2519 -0.2193  0.3154
  402MOL    C4148963   5.313   3.783   1.120  0.2051 -0.4219 -0.3557
  402MOL    H4248964   5.386   3.854   1.084  0.3197  0.5675  1.7619
  402MOL    H4348965   5.246   3.768   1.035  0.8150 -1.0246 -0.7355
  402MOL    C4448966   5.374   3.642   1.142 -0.1369 -0.1343  0.0161
  402MOL    F4548967   5.414   3.588   1.026  0.1455  0.2067  0.1311
  402MOL    F4648968   5.484   3.642   1.222  0.0324  0.4559 -0.2384
  402MOL    C4748969   5.274   3.542   1.204  1.0816 -0.5134 -0.5417
  402MOL    H4848970   5.184   3.534   1.145  1.0021  0.7827 -0.6133
  402MOL    H4948971   5.251   3.588   1.300  2.5903 -0.5558 -0.1469
  402MOL    C5048972   5.327   3.396   1.221  0.3241 -0.5076 -0.1309
  402MOL    F5148973   5.446   3.392   1.292  0.7740 -0.2680 -0.3028
  402MOL    F5248974   5.241   3.324   1.295 -0.1328 -0.0787 -0.4009
  402MOL    C5348975   5.355   3.323   1.088  0.2219 -0.2176 -0.1682
  402MOL    H5448976   5.397   3.227   1.119 -2.7932 -1.8915 -1.0048
  402MOL    H5548977   5.434   3.375   1.033 -1.7039  1.8538 -1.0801
  402MOL    C5648978   5.229   3.297   1.001 -0.6014 -0.3643 -0.3031
  402MOL    F5748979   5.128   3.251   1.071  0.2057 -0.3681  0.3423
  402MOL    F5848980   5.191   3.405   0.939 -0.2564  0.6378  0.1710
  402MOL    C5948981   5.248   3.194   0.890  0.8551 -1.0949 -0.1186
  402MOL    H6048982   5.149   3.175   0.849  0.1164 -0.5616  1.4077
  402MOL    H6148983   5.285   3.097   0.922 -1.6274 -1.1543  2.7114
  402MOL    C6248984   5.341   3.228   0.761 -0.0884 -0.0945 -0.2604
  402MOL    F6348985   5.287   3.321   0.679 -0.1238 -0.5402 -0.1595
  402MOL    F6448986   5.452   3.275   0.803  0.3291  0.7067 -0.1591
  402MOL    C6548987   5.362   3.100   0.662  0.3032 -0.8209  0.6869
  402MOL    H6648988   5.268   3.061   0.623 -0.5830 -0.6063  2.5666
  402MOL    H6748989   5.411   3.024   0.724  0.3163 -0.1155  1.5564
  402MOL    C6848990   5.467   3.118   0.546  0.5715 -0.5837  0.2415
  402MOL    F6948991   5.405   3.164   0.433  0.2036 -0.5275 -0.4493
  402MOL    F7048992   5.552   3.215   0.576  0.1624 -0.5134 -0.0016
  402MOL    C7148993   5.553   2.999   0.507  0.0820  0.4559  0.1652
  402MOL    H7248994   5.596   2.952   0.595 -0.0809 -1.0088 -0.5176
  402MOL    H7348995   5.634   3.026   0.439  0.3307 -0.6924 -0.0033
  402MOL    C7448996   5.465   2.885   0.448 -0.7059  0.0843 -0.0555
  402MOL    F7548997   5.545   2.783   0.425 -0.1246  0.5676  0.8103
  402MOL    F7648998   5.388   2.843   0.543  0.0398  0.1323  0.2211
  402MOL    C7748999   5.373   2.903   0.330  0.5223 -0.4944  0.0598
  402MOL    H7849000   5.440   2.923   0.246 -0.3488  1.2678 -0.2567
  402MOL    H7949001   5.304   2.987   0.338 -1.9775 -1.9407 -4.3022
  402MOL    C8049002   5.287   2.780   0.286  0.4763 -0.0015  0.1993
  402MOL    F8149003   5.368   2.679   0.253  0.2764  0.1822 -0.0220
  402MOL    F8249004   5.207   2.734   0.388  0.0630  0.3585 -0.5108
  402MOL    C8349005   5.196   2.813   0.162 -0.8534 -0.1050 -0.6646
  402MOL    H8449006   5.267   2.822   0.080 -0.2073 -0.0055 -0.1034
  402MOL    H8549007   5.139   2.903   0.183 -0.2812 -0.2548  1.6351
  402MOL    C8649008   5.094   2.707   0.136  0.1806 -0.4260  0.4367
  402MOL    F8749009   5.154   2.589   0.126  0.1324 -0.5080  0.4562
  402MOL    F8849010   4.999   2.696   0.236  0.0164 -0.2253 -0.2824
  402MOL    C8949011   5.017   2.721   0.001 -0.8197 -0.0847  0.1143
  402MOL    H9049012   4.949   2.637   0.005  0.0810 -0.8321 -0.1812
  402MOL    H9149013   5.093   2.706   8.274 -0.4580  0.2328  0.4083
  402MOL    C9249014   4.951   2.853   8.327  0.2709  0.1599  0.3720
  402MOL    F9349015   4.886   2.876   0.089  0.1225  0.2706  0.5735
  402MOL    F9449016   5.036   2.944   8.302  0.1499  0.8324  0.3624
  402MOL    C9549017   4.854   2.849   8.204 -0.4551  0.4824 -0.9418
  402MOL    H9649018   4.918   2.807   8.126  1.5415  1.5632  0.0763
  402MOL    H9749019   4.811   2.944   8.174 -1.2950 -0.2136 -2.0175
  402MOL    C9849020   4.716   2.766   8.215 -0.6670  0.3715 -0.0807
  402MOL    F9949021   4.658   2.798   8.097  0.0973  0.1817 -0.4176
  402MOL   F10049022   4.744   2.638   8.221 -0.4336  0.2304 -0.1325
  402MOL   C10149023   4.624   2.807   8.327  0.4577 -0.3039  0.1964
  402MOL   H10249024   4.606   2.914   8.314 -3.6410 -1.1327 -1.7888
  402MOL   H10349025   4.667   2.797   0.077  0.2532  0.8598  0.4091
  402MOL   C10449026   4.484   2.739   8.329  0.2541  0.5647  0.3590
  402MOL   F10549027   4.499   2.605   8.320 -0.5495 -0.1260  0.2741
  402MOL   F10649028   4.429   2.767   0.092 -0.1677 -0.0108 -0.6751
  402MOL   C10749029   4.388   2.788   8.210  0.1270 -0.6249 -0.3293
  402MOL   H10849030   4.426   2.771   8.109  0.2654 -1.6606 -0.1059
  402MOL   H10949031   4.383   2.896   8.226 -0.1611 -0.5779 -0.7236
  402MOL   C11049032   4.244   2.724   8.216  0.2664 -0.1950 -0.4135
  402MOL   F11149033   4.263   2.593   8.226 -0.1199 -0.0184 -0.3176
  402MOL   F11249034   4.173   2.761   8.320  0.4224 -0.0230 -0.7149
  402MOL   C11349035   4.159   2.746   8.090 -0.0426  0.5273 -0.2530
  402MOL   H11449036   4.158   2.852   8.063  2.3472  0.0320 -2.4611
  402MOL   H11549037   4.059   2.722   8.126  0.7952 -0.3466  1.5784
  402MOL   C11649038   4.197   2.664   7.962 -0.0329 -0.1937 -0.5499
  402MOL   F11749039   4.110   2.722   7.880  0.2646 -0.3382 -0.0682
  402MOL   F11849040   4.316   2.674   7.907  0.1442 -0.2594 -0.2233
  402MOL   C11949041   4.144   2.517   7.974 -0.4677  0.7797  0.4383
  402MOL   H12049042   4.213   2.445   8.019 -0.4442 -0.1127 -0.9899
  402MOL   H12149043   4.110   2.479   7.878  0.3889  0.3851  0.2809
  402MOL   H12249044   4.045   2.505   8.017 -0.5166 -1.2533 -0.1846
  403MOL     C149045   1.228   4.928   1.265 -0.6848 -1.1406 -0.1920
  403MOL     F249046   1.361   4.949   1.289  0.9675 -0.3235  0.1640
  403MOL     F349047   1.172   4.891   1.379 -0.3387  0.1044  0.2567
  403MOL     C449048   1.204   4.818   1.162  0.1689  0.3199  0.3199
  403MOL     H549049   1.242   4.843   1.063 -0.6463 -0.5250 -0.2165
  403MOL     H649050   1.099   4.815   1.135  0.4880  1.3866 -1.1049
  403MOL     H749051   1.190   5.024   1.231 -0.4021 -0.8955  0.1883
  403MOL     C849052   1.260   4.674   1.204  0.9067 -0.8262  0.4147
  403MOL     F949053   1.198   4.644   1.320 -0.1263  0.1169  0.0527
  403MOL    F1049054   1.201   4.603   1.111  0.3371 -0.1927  0.3940
  403MOL    C1149055   1.412   4.662   1.210 -0.2231  0.5290  0.1631
  403MOL    H1249056   1.459   4.732   1.279 -0.2585 -0.2058  0.9327
  403MOL    H1349057   1.455   4.682   1.112 -1.1727  0.2102 -0.3313
  403MOL    C1449058   1.450   4.518   1.262 -0.0940 -0.4711  0.0386
  403MOL    F1549059   1.381   4.481   1.374 -0.0384 -0.1116  0.5516
  403MOL    F1649060   1.407   4.425   1.175  0.3896  0.0381  0.2794
  403MOL    C1749061   1.596   4.496   1.283 -0.0381  0.2600  0.6615
  403MOL    H1849062   1.611   4.394   1.317 -0.8740  1.2358  4.1214
  403MOL    H1949063   1.629   4.557   1.366  1.5215  2.2800 -1.3931
  403MOL    C2049064   1.696   4.531   1.170  0.5957  0.2830  0.5063
  403MOL    F2149065   1.652   4.485   1.051 -0.6008 -0.3174 -0.0339
  403MOL    F2249066   1.701   4.667   1.165  0.2837 -0.1422 -0.0815
  403MOL    C2349067   1.836   4.463   1.188  0.3197 -0.2095  0.4050
  403MOL    H2449068   1.832   4.357   1.213  0.5521 -0.2547  0.2557
  403MOL    H2549069   1.883   4.503   1.277 -0.9266  1.7798  0.1932
  403MOL    C2649070   1.952   4.495   1.083  0.8118 -0.5031 -0.0453
  403MOL    F2749071   1.963   4.629   1.075  0.1730  0.0249  0.1937
  403MOL    F2849072   2.069   4.450   1.118 -0.2588 -0.0882 -0.2158
  403MOL    C2949073   1.930   4.442   0.942 -0.2413  0.2650  0.2972
  403MOL    H3049074   2.017   4.472   0.884  1.1372 -0.7306  1.8166
  403MOL    H3149075   1.848   4.495   0.893 -0.8754 -1.1222 -0.1938
  403MOL    C3249076   1.922   4.290   0.929  0.3203 -0.5090  1.1338
  403MOL    F3349077   2.017   4.221   0.989 -0.0793  0.3354  0.2215
  403MOL    F3449078   1.803   4.265   0.979 -0.3349  0.3457  0.3623
  403MOL    C3549079   1.923   4.254   0.783  0.4157  0.0223 -0.9976
  403MOL    H3649080   2.022   4.283   0.747  1.9157 -1.3125  1.8987
  403MOL    H3749081   1.845   4.310   0.731 -0.8734 -1.0543 -0.2654
  403MOL    C3849082   1.897   4.105   0.739  0.0655 -0.6197 -0.9501
  403MOL    F3949083   1.994   4.026   0.780 -0.0574  0.5692  0.6966
  403MOL    F4049084   1.790   4.063   0.803  0.1824  0.0883 -0.0634
  403MOL    C4149085   1.868   4.092   0.587 -0.0688  0.1003  0.3390
  403MOL    H4249086   1.952   4.133   0.531 -0.0695  0.6990  0.7720
  403MOL    H4349087   1.787   4.163   0.568  0.2854  0.4585  0.1611
  403MOL    C4449088   1.808   3.956   0.531  0.5563  0.5766  0.1008
  403MOL    F4549089   1.873   3.855   0.583 -0.2754  0.5366  0.4619
  403MOL    F4649090   1.682   3.947   0.569  0.2581  0.2905 -0.5786
  403MOL    C4749091   1.819   3.947   0.379 -0.0685 -0.3232 -0.1242
  403MOL    H4849092   1.780   3.852   0.342 -2.2817  1.1918 -1.8568
  403MOL    H4949093   1.924   3.957   0.352  0.2261 -0.5607  0.9212
  403MOL    C5049094   1.753   4.054   0.293 -0.3274  0.9946  0.6046
  403MOL    F5149095   1.808   4.178   0.317 -0.3860 -0.2282 -0.4827
  403MOL    F5249096   1.785   4.019   0.166 -0.5055  0.3765  0.0530
  403MOL    C5349097   1.597   4.051   0.302  0.3796 -0.3189  0.2072
  403MOL    H5449098   1.557   4.041   0.403 -2.3499  0.2110 -0.7893
  403MOL    H5549099   1.558   3.954   0.271 -0.8708 -0.2650  1.5567
  403MOL    C5649100   1.527   4.166   0.228  0.3329 -0.0337  0.6898
  403MOL    F5749101   1.395   4.134   0.235 -0.0018 -0.5770 -0.3394
  403MOL    F5849102   1.544   4.285   0.290 -0.0189  0.3992 -0.0238
  403MOL    C5949103   1.568   4.180   0.080 -1.0730  0.3189 -0.2083
  403MOL    H6049104   1.578   4.087   0.024 -0.7196 -0.2666  0.8306
  403MOL    H6149105   1.662   4.233   0.064  0.4860 -1.9916  1.0963
  403MOL    C6249106   1.464   4.256   0.004 -0.2563 -0.6898 -0.0737
  403MOL    F6349107   1.342   4.203   0.010 -0.0886 -0.2585 -0.0226
  403MOL    F6449108   1.451   4.374   0.070  0.3592  0.0397  0.0421
  403MOL    C6549109   1.494   4.287   8.204  0.5412 -0.3321 -0.1791
  403MOL    H6649110   1.582   4.351   8.192  0.7131  0.2646  3.5373
  403MOL    H6749111   1.402   4.341   8.181  0.0290 -0.8563  0.6066
  403MOL    C6849112   1.508   4.160   8.121  0.2583  0.2880 -0.1054
  403MOL    F6949113   1.630   4.106   8.143 -0.4526  0.2254  0.8365
  403MOL    F7049114   1.431   4.063   8.164 -0.0978  0.2349  0.2182
  403MOL    C7149115   1.463   4.172   7.975 -0.2789  0.5038 -0.3382
  403MOL    H7249116   1.360   4.208   7.972 -1.1988 -2.0238  0.0356
  403MOL    H7349117   1.460   4.072   7.932  0.9165  0.3989 -0.1797
  403MOL    C7449118   1.553   4.267   7.889  0.5148 -0.0036  0.2984
  403MOL    F7549119   1.545   4.394   7.924  0.0659  0.7509  0.1336
  403MOL    F7649120   1.675   4.214   7.909 -0.3996 -0.1367 -0.0712
  403MOL    C7749121   1.530   4.243   7.740 -0.7441  0.8391  0.1700
  403MOL    H7849122   1.520   4.135   7.734 -1.0285  0.6068  4.0660
  403MOL    H7949123   1.620   4.266   7.682 -0.2505  2.0108  1.3844
  403MOL    C8049124   1.409   4.305   7.672 -1.3120 -0.0087 -0.2040
  403MOL    F8149125   1.410   4.261   7.547 -0.1938 -0.2812  0.0430
  403MOL    F8249126   1.302   4.252   7.731 -0.1850  0.1784 -0.0494
  403MOL    C8349127   1.402   4.456   7.670  0.3457  0.0223  0.1201
  403MOL    H8449128   1.497   4.489   7.628 -0.4429  4.4260  1.5680
  403MOL    H8549129   1.392   4.503   7.768  2.7122 -2.3192  1.5176
  403MOL    C8649130   1.306   4.522   7.563 -0.0272  0.1612  0.7930
  403MOL    F8749131   1.324   4.477   7.444 -0.3817  0.0603  0.2872
  403MOL    F8849132   1.178   4.488   7.599  0.0043 -0.3144  0.2778
  403MOL    C8949133   1.328   4.677   7.557  0.2662  0.0376  0.0056
  403MOL    H9049134   1.427   4.696   7.517 -0.1081  3.9189  0.7946
  403MOL    H9149135   1.316   4.724   7.655 -0.8740 -1.5412  0.6523
  403MOL    C9249136   1.227   4.742   7.461 -0.9569 -0.2230 -0.8490
  403MOL    F9349137   1.236   4.686   7.344  0.2627 -0.1907 -0.1323
  403MOL    F9449138   1.100   4.723   7.510  0.0862  0.4392 -0.3598
  403MOL    C9549139   1.254   4.894   7.464 -0.1092  0.0671 -0.0264
  403MOL    H9649140   1.355   4.920   7.432  0.6693 -0.7655  1.7079
  403MOL    H9749141   1.245   4.928   7.567 -1.0246  1.1048 -0.4491
  403MOL    C9849142   1.159   4.970   7.368  0.6851 -0.6481 -0.9772
  403MOL    F9949143   1.170   4.905   7.256 -0.6903  0.4196  0.2824
  403MOL   F10049144   1.028   4.963   7.408  0.4840  0.0369  0.1602
  403MOL   C10149145   1.212   5.112   7.339  0.2884 -0.1374 -0.2331
  403MOL   H10249146   1.161   5.169   7.261 -1.0020  1.1572  1.5220
  403MOL   H10349147   1.309   5.104   7.289 -0.1074  1.7660 -1.3754
  403MOL   C10449148   1.226   5.207   7.464  0.3414  0.2988 -0.0606
  403MOL   F10549149   1.104   5.203   7.525  0.1233  0.3099 -0.2118
  403MOL   F10649150   1.322   5.166   7.544  0.2478  0.0832  0.5986
  403MOL   C10749151   1.237   5.361   7.442 -0.2357 -0.8673 -1.2039
  403MOL   H10849152   1.220   5.424   7.530 -0.0886 -0.3795 -1.5206
  403MOL   H10949153   1.151   5.384   7.379 -1.4102 -2.0098 -0.0269
  403MOL   C11049154   1.374   5.411   7.385  0.0922  0.5692  0.0632
  403MOL   F11149155   1.414   5.327   7.291  0.0798  0.3228  0.3136
  403MOL   F11249156   1.345   5.531   7.332 -0.5857  0.5578 -0.1083
  403MOL   C11349157   1.494   5.419   7.480  0.1003 -0.1141  0.5914
  403MOL   H11449158   1.507   5.318   7.518 -0.8647 -0.4549  0.0218
  403MOL   H11549159   1.469   5.483   7.565 -1.2930 -2.5101  2.0558
  403MOL   C11649160   1.635   5.453   7.416  0.5389 -0.0776  0.2600
  403MOL   F11749161   1.727   5.472   7.516 -0.1637 -0.1402 -0.2008
  403MOL   F11849162   1.682   5.363   7.339  0.1135 -0.2978  0.5420
  403MOL   C11949163   1.637   5.581   7.334 -0.4632  0.4594  0.1582
  403MOL   H12049164   1.604   5.554   7.233 -0.2850 -0.6284  0.3818
  403MOL   H12149165   1.735   5.627   7.331 -1.8874  3.7381  1.5271
  403MOL   H12249166   1.564   5.652   7.373 -1.8344 -0.4818 -0.6097
  404MOL     C149167   3.615   6.791   7.097  0.2475  0.2293  0.2038
  404MOL     F249168   3.679   6.782   7.208 -0.0090  0.2607 -0.5659
  404MOL     F349169   3.495   6.727   7.103  0.0808 -0.0916 -0.3468
  404MOL     C449170   3.706   6.749   6.978 -0.7343 -0.3474 -0.4533
  404MOL     H549171   3.738   6.647   6.996  1.4470 -0.0705 -2.4679
  404MOL     H649172   3.802   6.801   6.984 -0.4167 -0.6837 -2.2308
  404MOL     H749173   3.591   6.897   7.092 -0.0341  0.1654  0.1993
  404MOL     C849174   3.638   6.766   6.836  0.0537 -0.1770 -0.0240
  404MOL     F949175   3.529   6.694   6.847  0.1142  0.1469 -0.1934
  404MOL    F1049176   3.610   6.894   6.824  0.1465  0.2586  0.4829
  404MOL    C1149177   3.719   6.719   6.718 -0.2758 -0.5209  0.4353
  404MOL    H1249178   3.739   6.616   6.745  0.5081 -0.3246  0.6078
  404MOL    H1349179   3.814   6.770   6.729 -0.6591  0.5397 -0.9756
  404MOL    C1449180   3.667   6.736   6.577  0.3682  0.0646 -0.1904
  404MOL    F1549181   3.724   6.648   6.498  0.1766  0.1947 -0.1441
  404MOL    F1649182   3.536   6.709   6.578 -0.2558 -0.2139 -0.4216
  404MOL    C1749183   3.677   6.876   6.502 -0.9693 -0.6432  0.0741
  404MOL    H1849184   3.606   6.942   6.551 -1.3515 -1.3529  0.4905
  404MOL    H1949185   3.636   6.871   6.401  0.5481 -0.7165 -0.5484
  404MOL    C2049186   3.812   6.943   6.494  0.0071 -0.3236 -0.5379
  404MOL    F2149187   3.864   6.960   6.623  0.6396  0.4120 -0.0658
  404MOL    F2249188   3.899   6.876   6.424 -0.2048 -0.2740 -0.5443
  404MOL    C2349189   3.808   7.087   6.428  0.8233  0.4033  0.0679
  404MOL    H2449190   3.913   7.117   6.421  1.4158 -0.9174  2.7323
  404MOL    H2549191   3.760   7.153   6.500 -1.4053  0.1978 -1.1766
  404MOL    C2649192   3.744   7.087   6.298 -0.9270 -0.9410  0.6738
  404MOL    F2749193   3.797   7.000   6.215 -0.3586 -0.2572  0.0543
  404MOL    F2849194   3.614   7.075   6.305  0.0396  0.4927  0.0311
  404MOL    C2949195   3.769   7.232   6.245 -0.0611 -0.4671  0.3855
  404MOL    H3049196   3.873   7.263   6.233 -0.4557  1.4167  1.6663
  404MOL    H3149197   3.731   7.308   6.313 -0.2612  0.4465 -0.7248
  404MOL    C3249198   3.691   7.279   6.122 -0.2519  0.2023 -0.4960
  404MOL    F3349199   3.732   7.214   6.017  0.7754  0.1006 -0.0740
  404MOL    F3449200   3.562   7.273   6.136  0.4115  0.0884  0.1666
  404MOL    C3549201   3.700   7.433   6.088  0.0161  0.6430 -0.5464
  404MOL    H3649202   3.803   7.467   6.102 -0.2747  0.6236  1.8740
  404MOL    H3749203   3.640   7.482   6.164  0.2598 -2.1617  1.5438
  404MOL    C3849204   3.646   7.482   5.949  0.3117 -0.0188 -0.3723
  404MOL    F3949205   3.518   7.444   5.926 -0.2476 -0.6733  0.3450
  404MOL    F4049206   3.656   7.613   5.940 -0.0148 -0.7260 -0.3760
  404MOL    C4149207   3.729   7.426   5.826 -0.3923 -0.2266  0.2210
  404MOL    H4249208   3.678   7.468   5.739 -0.6918 -0.3476  0.3354
  404MOL    H4349209   3.708   7.320   5.811 -1.6951  0.5194 -4.0292
  404MOL    C4449210   3.882   7.447   5.818 -0.7277 -0.4527 -0.6835
  404MOL    F4549211   3.929   7.382   5.922  0.1836 -0.3060 -0.3821
  404MOL    F4649212   3.915   7.378   5.710 -0.2528 -0.4167  0.0782
  404MOL    C4749213   3.925   7.592   5.817  0.2389  0.0434  0.5122
  404MOL    H4849214   3.907   7.622   5.920 -1.0644  0.1136  0.2715
  404MOL    H4949215   3.857   7.656   5.761  0.0143  0.4807  1.2695
  404MOL    C5049216   4.075   7.617   5.798 -0.0227  0.6416 -0.1908
  404MOL    F5149217   4.084   7.745   5.829 -0.0495 -0.4768 -0.2076
  404MOL    F5249218   4.141   7.552   5.897 -0.0386  0.0860 -0.4892
  404MOL    C5349219   4.145   7.588   5.662 -0.0081  0.2015 -1.6660
  404MOL    H5449220   4.148   7.481   5.644 -2.0660 -0.4212  1.3233
  404MOL    H5549221   4.249   7.602   5.690 -0.2346  1.3947 -1.4128
  404MOL    C5649222   4.109   7.670   5.534 -0.1781 -0.1182 -0.0894
  404MOL    F5749223   3.988   7.651   5.487 -0.5151  0.2333  0.4898
  404MOL    F5849224   4.130   7.798   5.569 -0.4342  0.4935  0.0252
  404MOL    C5949225   4.196   7.637   5.416  0.6890  0.5469  0.1389
  404MOL    H6049226   4.166   7.534   5.402 -0.8110  1.2613 -2.1712
  404MOL    H6149227   4.300   7.650   5.448  0.3896  1.8873  0.6029
  404MOL    C6249228   4.176   7.715   5.284  0.3938 -0.0012  0.0646
  404MOL    F6349229   4.046   7.694   5.252 -0.4155 -0.1054 -0.5195
  404MOL    F6449230   4.183   7.842   5.311 -0.4017  0.0463  0.3035
  404MOL    C6549231   4.263   7.682   5.165  0.5325 -0.2471 -0.0598
  404MOL    H6649232   4.221   7.708   5.068  0.9659  1.0512  0.0850
  404MOL    H6749233   4.282   7.575   5.169  1.9873  0.0371  1.0538
  404MOL    C6849234   4.405   7.749   5.164  0.5130 -0.1954 -0.1564
  404MOL    F6949235   4.464   7.732   5.282  0.2117 -0.7640  0.2243
  404MOL    F7049236   4.476   7.684   5.073 -0.3373 -0.2738  0.1334
  404MOL    C7149237   4.402   7.895   5.113 -0.9558 -0.4018  0.2944
  404MOL    H7249238   4.339   7.949   5.183 -2.0067  0.4931 -1.2903
  404MOL    H7349239   4.362   7.889   5.011 -0.4857 -0.4361  0.1102
  404MOL    C7449240   4.543   7.962   5.110  0.1744  0.0050 -0.4016
  404MOL    F7549241   4.591   7.977   5.233 -0.0912  0.2062  0.7641
  404MOL    F7649242   4.620   7.888   5.033 -0.5094 -0.1487  0.4069
  404MOL    C7749243   4.536   8.094   5.028  0.2820 -0.2460  0.3266
  404MOL    H7849244   4.507   8.066   4.927  2.0675  0.4009 -0.3880
  404MOL    H7949245   4.639   8.131   5.032  0.4201 -0.7103  1.2865
  404MOL    C8049246   4.440   8.199   5.078 -0.1895  0.2704  0.2856
  404MOL    F8149247   4.320   8.143   5.062 -0.2289 -0.2164  0.2668
  404MOL    F8249248   4.465   8.223   5.210 -0.4645  0.2369 -0.2172
  404MOL    C8349249   4.452   8.338   4.996  0.1529  0.6017 -0.6242
  404MOL    H8449250   4.393   8.344   4.905 -0.4542 -0.1007 -0.2858
  404MOL    H8549251   4.554   0.004   4.961 -0.2098  1.2260 -1.3975
  404MOL    C8649252   4.410   0.116   5.070 -1.3615  0.1030  0.4173
  404MOL    F8749253   4.503   0.130   5.166 -0.0651 -0.4885 -0.1651
  404MOL    F8849254   4.415   0.219   4.991 -0.1832 -0.2423  0.6439
  404MOL    C8949255   4.273   0.097   5.139  0.4278  0.0583 -0.8767
  404MOL    H9049256   4.270   0.017   5.213 -1.6659  1.3613  0.5133
  404MOL    H9149257   4.216   0.055   5.056  1.7521 -1.9980 -0.7723
  404MOL    C9249258   4.215   0.221   5.210  0.3472 -0.2349 -0.0131
  404MOL    F9349259   4.213   0.336   5.136  0.3293 -0.4570  0.4376
  404MOL    F9449260   4.085   0.182   5.241 -0.1434  0.4693 -0.0197
  404MOL    C9549261   4.287   0.260   5.340 -0.5036 -0.1501 -1.1708
  404MOL    H9649262   4.381   0.310   5.318 -0.8870  0.8941 -0.4819
  404MOL    H9749263   4.314   0.170   5.396  0.5931 -0.2922 -1.9121
  404MOL    C9849264   4.212   0.366   5.426 -0.4365 -0.2541  0.3046
  404MOL    F9949265   4.216   0.486   5.363 -0.0151 -0.0372  0.3384
  404MOL   F10049266   4.087   0.329   5.445  0.6109  0.3194 -0.0575
  404MOL   C10149267   4.272   0.384   5.566  0.0958 -0.0143  0.0793
  404MOL   H10249268   4.241   0.295   5.621 -0.9995 -0.8762 -1.9028
  404MOL   H10349269   4.210   0.468   5.599  0.5156  1.0342 -1.7468
  404MOL   C10449270   4.422   0.417   5.572  0.3459 -0.8841  0.3668
  404MOL   F10549271   4.480   0.298   5.547 -0.9769  0.1526 -0.8359
  404MOL   F10649272   4.454   0.507   5.484 -0.6131 -0.4761 -0.5292
  404MOL   C10749273   4.477   0.480   5.704  0.5184 -0.3125 -0.2149
  404MOL   H10849274   4.465   0.588   5.709  3.4363  0.1007 -1.0788
  404MOL   H10949275   4.585   0.464   5.700  0.6271  0.4918 -0.7423
  404MOL   C11049276   4.421   0.426   5.842 -0.6566  0.6609 -0.0113
  404MOL   F11149277   4.291   0.419   5.842  0.4232 -0.5695 -0.5363
  404MOL   F11249278   4.462   0.305   5.866  0.3772  0.4607 -0.5400
  404MOL   C11349279   4.458   0.511   5.971  0.4311  0.6881 -0.0086
  404MOL   H11449280   4.408   0.455   6.051  1.7424  0.3226  0.5781
  404MOL   H11549281   4.419   0.613   5.968  1.6633  1.1624  0.0551
  404MOL   C11649282   4.604   0.526   6.012 -0.3077  0.0800  0.3227
  404MOL   F11749283   4.656   0.404   6.033 -0.3782 -0.1619  0.4401
  404MOL   F11849284   4.670   0.588   5.918  0.4497 -0.0312 -0.2964
  404MOL   C11949285   4.619   0.595   6.144 -0.9224 -0.4037  0.6326
  404MOL   H12049286   4.572   0.692   6.159  1.2086  0.9446 -1.1158
  404MOL   H12149287   4.722   0.617   6.172 -0.6794 -0.0785 -0.4913
  404MOL   H12249288   4.569   0.543   6.225 -0.6192 -1.9373 -0.1343
  405MOL     C149289   1.684   7.857   3.063 -0.1334 -0.1399  0.5286
  405MOL     F249290   1.782   7.827   2.974 -0.1243  0.4340 -0.2715
  405MOL     F349291   1.728   7.911   3.173  0.2392 -0.4667 -0.3302
  405MOL     C449292   1.606   7.733   3.112  0.0826  0.4805 -0.1468
  405MOL     H549293   1.537   7.758   3.193  0.8472  0.9899  0.3405
  405MOL     H649294   1.677   7.662   3.153  0.1607  1.7415  1.9381
  405MOL     H749295   1.620   7.933   3.016  0.2333 -0.6154 -0.7616
  405MOL     C849296   1.517   7.672   3.006  0.5360 -0.1545  0.1533
  405MOL     F949297   1.427   7.766   2.960 -0.3270  0.1225 -0.2038
  405MOL    F1049298   1.593   7.643   2.897  0.3066  0.3663  0.0719
  405MOL    C1149299   1.436   7.549   3.054 -0.8210  0.3100 -0.1785
  405MOL    H1249300   1.501   7.462   3.066 -0.9503  0.1871 -0.3841
  405MOL    H1349301   1.375   7.540   2.965 -1.4969  2.7388  0.0203
  405MOL    C1449302   1.335   7.569   3.173 -0.4004 -0.0464  0.2942
  405MOL    F1549303   1.260   7.458   3.162 -0.1216 -0.4546  0.3221
  405MOL    F1649304   1.399   7.565   3.287  0.1503 -0.6666  0.4555
  405MOL    C1749305   1.247   7.699   3.167  1.0525  0.4202  0.5152
  405MOL    H1849306   1.187   7.683   3.077 -0.5287 -0.1216  1.6220
  405MOL    H1949307   1.300   7.794   3.168 -0.8926  1.5603  3.1473
  405MOL    C2049308   1.150   7.716   3.280  0.0180 -0.4859 -0.4089
  405MOL    F2149309   1.210   7.756   3.392 -0.4179  0.0089  0.7467
  405MOL    F2249310   1.067   7.813   3.240  0.0690  0.5090 -0.5910
  405MOL    C2349311   1.059   7.597   3.298 -0.1253  0.3865 -0.3067
  405MOL    H2449312   1.110   7.516   3.350 -2.8251  0.1022  2.0491
  405MOL    H2549313   1.008   7.564   3.208  1.8324 -1.8931 -0.6217
  405MOL    C2649314   0.938   7.615   3.397 -0.0602  0.3664 -0.3178
  405MOL    F2749315   0.839   7.683   3.335 -0.5278 -0.0865 -0.0626
  405MOL    F2849316   0.896   7.499   3.435  0.0885  0.1724  0.0626
  405MOL    C2949317   0.972   7.691   3.525 -0.2011 -0.0748  0.0233
  405MOL    H3049318   0.974   7.794   3.489  1.6865 -0.4296 -0.9098
  405MOL    H3149319   1.074   7.664   3.554 -0.4301 -1.5473 -0.4862
  405MOL    C3249320   0.874   7.687   3.642 -0.1483  0.4461 -0.0351
  405MOL    F3349321   0.912   7.787   3.724  0.1830 -0.2632  0.2132
  405MOL    F3449322   0.751   7.708   3.600  0.0739  0.7747  0.1272
  405MOL    C3549323   0.870   7.545   3.711 -0.4526  0.5456 -0.2055
  405MOL    H3649324   0.967   7.495   3.714 -0.6945 -0.0173 -1.4536
  405MOL    H3749325   0.814   7.471   3.654 -0.1900  0.0860  0.1367
  405MOL    C3849326   0.794   7.554   3.843 -0.2679  0.4142  0.5490
  405MOL    F3949327   0.801   7.432   3.895 -0.2299  0.3297 -0.3089
  405MOL    F4049328   0.866   7.638   3.922 -0.2866  0.0428  0.1870
  405MOL    C4149329   0.646   7.612   3.848 -0.8885  0.9379 -0.5293
  405MOL    H4249330   0.591   7.540   3.788 -0.1772 -1.6907  1.8552
  405MOL    H4349331   0.647   7.710   3.800  0.9702  2.3660  2.2458
  405MOL    C4449332   0.584   7.623   3.990  0.2179 -0.4003  0.6823
  405MOL    F4549333   0.525   7.511   4.032 -0.1081 -0.0921 -0.6432
  405MOL    F4649334   0.673   7.656   4.077  0.0356 -0.1174  0.4510
  405MOL    C4749335   0.469   7.727   3.977  0.8307 -0.9659  0.6889
  405MOL    H4849336   0.393   7.673   3.921  1.2255  0.7386 -1.5432
  405MOL    H4949337   0.501   7.815   3.921  0.2049 -0.6920  0.7530
  405MOL    C5049338   0.406   7.765   4.113 -0.6898 -0.0091  1.3333
  405MOL    F5149339   0.346   7.662   4.173  0.0532  0.4076  0.6237
  405MOL    F5249340   0.511   7.798   4.187  0.1616 -0.1378  0.1145
  405MOL    C5349341   0.306   7.869   4.109  0.4096 -0.1099 -0.4041
  405MOL    H5449342   0.277   7.878   4.214  0.5032 -0.0363 -0.3841
  405MOL    H5549343   0.221   7.841   4.047  0.6495 -0.4830 -0.5633
  405MOL    C5649344   0.358   8.016   4.069 -0.1716 -0.1555 -0.6159
  405MOL    F5749345   0.468   8.043   4.131 -0.5708 -0.6246 -0.0409
  405MOL    F5849346   0.375   8.036   3.936 -0.1774 -0.0033  0.0770
  405MOL    C5949347   0.260   8.125   4.127  0.3076 -0.1024 -0.6539
  405MOL    H6049348   0.307   8.222   4.109 -1.4978  0.5176 -2.1020
  405MOL    H6149349   0.264   8.130   4.236 -1.1084 -0.3706 -0.5767
  405MOL    C6249350   0.118   8.123   4.077  0.6945 -0.3895 -0.2010
  405MOL    F6349351   0.108   8.123   3.942  0.4703 -0.0270  0.1482
  405MOL    F6449352   0.063   8.013   4.132 -0.2021 -0.0684 -0.1583
  405MOL    C6549353   0.039   8.245   4.127 -0.3937 -0.6390 -0.3764
  405MOL    H6649354   0.068   8.334   4.073 -0.8699  0.0961  0.5687
  405MOL    H6749355   0.072   8.283   4.224 -0.9649 -0.3020 -0.3065
  405MOL    C6849356   8.233   8.227   4.128 -0.0338  0.2431  0.2154
  405MOL    F6949357   8.201   8.101   4.168  0.2110  0.0624 -0.2724
  405MOL    F7049358   8.175   8.300   4.220  0.1413  0.2912 -0.0347
  405MOL    C7149359   8.186   8.256   3.985 -0.1254 -0.6363  0.0379
  405MOL    H7249360   8.256   8.212   3.914 -0.3268 -0.1330 -0.4748
  405MOL    H7349361   8.195   0.011   3.960 -2.3476 -0.8723 -1.8943
  405MOL    C7449362   8.036   8.220   3.949  0.3175  0.3408  0.3010
  405MOL    F7549363   8.013   8.239   3.819  0.8703 -0.5632  0.2680
  405MOL    F7649364   8.016   8.092   3.971 -0.3680  0.5520  0.0305
  405MOL    C7749365   7.930   8.303   4.027 -0.3098  0.3070  0.4559
  405MOL    H7849366   7.960   8.297   4.131  2.8159  3.8994 -0.1355
  405MOL    H7949367   7.839   8.244   4.018 -0.6933  0.7277  1.5524
  405MOL    C8049368   7.911   0.099   3.987  0.1851 -0.2035  0.2706
  405MOL    F8149369   8.025   0.154   4.013  0.3143  0.2425 -0.3428
  405MOL    F8249370   7.876   0.114   3.857  0.2184  0.3176 -0.2226
  405MOL    C8349371   7.798   0.160   4.079 -0.1044 -0.2879 -0.1238
  405MOL    H8449372   7.828   0.121   4.177  0.2479 -1.6310 -0.7582
  405MOL    H8549373   7.706   0.106   4.058  0.6540 -0.6542 -2.6967
  405MOL    C8649374   7.776   0.312   4.074  0.7131  0.3751 -0.1874
  405MOL    F8749375   7.690   0.347   4.172  0.6186  0.6692 -0.0873
  405MOL    F8849376   7.895   0.364   4.103 -0.0580 -0.2966 -0.5815
  405MOL    C8949377   7.718   0.372   3.939  0.1100 -0.1169  0.2009
  405MOL    H9049378   7.631   0.315   3.906 -1.6529  2.7428 -0.3276
  405MOL    H9149379   7.790   0.368   3.858 -0.7630  0.8348 -0.6513
  405MOL    C9249380   7.675   0.520   3.934  0.0994  0.0552 -0.0659
  405MOL    F9349381   7.606   0.568   4.045 -0.5295  0.3957  0.2298
  405MOL    F9449382   7.777   0.597   3.907  0.3021  0.0058  0.0654
  405MOL    C9549383   7.567   0.550   3.826 -0.9398  0.0905  0.1450
  405MOL    H9649384   7.549   0.657   3.821  0.4700  0.3128 -0.5000
  405MOL    H9749385   7.468   0.507   3.843 -1.3785  0.9875 -0.1281
  405MOL    C9849386   7.615   0.522   3.674 -0.1571 -0.2076  0.9121
  405MOL    F9949387   7.695   0.626   3.637  0.0996  0.0606 -1.0094
  405MOL   F10049388   7.681   0.404   3.670 -0.2961 -0.1130  0.0943
  405MOL   C10149389   7.487   0.510   3.587  0.2069 -0.0669  0.4082
  405MOL   H10249390   7.430   0.602   3.592  0.5780  0.3531 -2.1824
  405MOL   H10349391   7.427   0.433   3.635 -1.3581  1.7064  1.3293
  405MOL   C10449392   7.507   0.484   3.434  0.3311 -0.4955 -0.1999
  405MOL   F10549393   7.536   0.603   3.378 -0.2472 -0.4233 -0.6371
  405MOL   F10649394   7.621   0.419   3.407 -0.3538 -0.4877 -0.1900
  405MOL   C10749395   7.382   0.413   3.366 -0.1957 -0.2635  0.0624
  405MOL   H10849396   7.282   0.453   3.380  0.5621  1.3413  1.0183
  405MOL   H10949397   7.358   0.319   3.417 -3.1937  0.8924  0.8564
  405MOL   C11049398   7.401   0.395   3.214 -0.3526  0.2584  0.1557
  405MOL   F11149399   7.417   0.512   3.157 -0.1231  0.4139  0.0606
  405MOL   F11249400   7.508   0.321   3.188 -0.0547 -0.3997 -0.2630
  405MOL   C11349401   7.283   0.323   3.147  0.2676 -0.1090  0.1451
  405MOL   H11449402   7.191   0.373   3.178  0.4902 -0.3790  1.2864
  405MOL   H11549403   7.284   0.219   3.180 -2.5267 -0.1853  0.0738
  405MOL   C11649404   7.276   0.315   2.987 -0.1453 -0.4916 -0.0145
  405MOL   F11749405   7.165   0.251   2.942 -0.1778  0.5425  0.0302
  405MOL   F11849406   7.279   0.432   2.934  0.3977 -0.6265 -0.3054
  405MOL   C11949407   7.388   0.232   2.918 -0.0785  0.0255 -0.4437
  405MOL   H12049408   7.357   0.209   2.816 -0.9792 -1.3396  0.1281
  405MOL   H12149409   7.409   0.134   2.960 -0.8369  0.0883  0.0978
  405MOL   H12249410   7.482   0.287   2.917 -1.0681  1.7476 -1.4027
  406MOL     C149411   5.177   1.867   4.740 -0.3635  0.1912  0.6405
  406MOL     F249412   5.281   1.781   4.754 -0.3269  0.4285  0.4148
  406MOL     F349413   5.081   1.821   4.810  0.3048  0.1400  0.0320
  406MOL     C449414   5.139   1.863   4.592  0.1034  0.6412 -0.5227
  406MOL     H549415   5.091   1.768   4.566 -1.3669  1.3685 -0.5195
  406MOL     H649416   5.230   1.873   4.533 -0.4651  0.4866 -1.4356
  406MOL     H749417   5.186   1.971   4.770  1.6693  0.8069 -1.9095
  406MOL     C849418   5.033   1.969   4.550  0.4168  0.1334  0.5004
  406MOL     F949419   4.924   1.928   4.607 -0.0940  0.3022  0.0437
  406MOL    F1049420   5.059   2.095   4.595  0.2574  0.4678  0.1378
  406MOL    C1149421   5.008   1.969   4.398  1.0738  0.5480 -0.0077
  406MOL    H1249422   4.933   2.046   4.377  2.4634  1.9453  0.0637
  406MOL    H1349423   4.975   1.870   4.365 -1.0336  1.6452 -1.3073
  406MOL    C1449424   5.126   2.010   4.313 -0.7201 -0.2890 -0.4864
  406MOL    F1549425   5.196   2.107   4.375  0.1362 -0.0373 -0.1837
  406MOL    F1649426   5.202   1.904   4.305 -0.4746 -0.3208 -0.2658
  406MOL    C1749427   5.083   2.065   4.175 -0.5155  0.0099  0.2289
  406MOL    H1849428   5.014   2.147   4.193  1.1112  2.2388 -3.2211
  406MOL    H1949429   5.013   1.992   4.134 -0.8011  0.8291 -0.7480
  406MOL    C2049430   5.176   2.092   4.065 -0.5504  0.0277  0.1462
  406MOL    F2149431   5.101   2.122   3.949  0.2835 -0.4189  0.0152
  406MOL    F2249432   5.262   2.189   4.104  0.1211  0.1277  0.0457
  406MOL    C2349433   5.272   1.972   4.027  0.3094  0.1255  0.8429
  406MOL    H2449434   5.209   1.884   4.017 -2.2547  1.9301  0.6267
  406MOL    H2549435   5.342   1.970   4.110  0.2535  1.4148  0.9367
  406MOL    C2649436   5.354   1.985   3.902  0.0909 -0.0011 -0.4724
  406MOL    F2749437   5.270   1.991   3.801  0.6341 -0.4045 -0.0615
  406MOL    F2849438   5.416   2.105   3.915  0.1574 -0.2728 -0.0338
  406MOL    C2949439   5.455   1.867   3.893 -0.3277  0.0386 -0.1379
  406MOL    H3049440   5.402   1.782   3.848 -2.0526 -0.1889  2.2439
  406MOL    H3149441   5.491   1.838   3.991 -0.0058 -0.7768 -0.4914
  406MOL    C3249442   5.579   1.897   3.801  0.1900 -0.3512 -0.6896
  406MOL    F3349443   5.533   1.902   3.672  0.2897  0.1410 -0.4146
  406MOL    F3449444   5.635   2.009   3.843 -0.2210  0.1705  0.2690
  406MOL    C3549445   5.668   1.767   3.806  0.7355 -0.5840  0.7252
  406MOL    H3649446   5.609   1.683   3.772  3.3800 -1.9366 -0.7067
  406MOL    H3749447   5.693   1.749   3.911  0.8515 -1.4347  0.5538
  406MOL    C3849448   5.799   1.790   3.742 -0.1641 -0.2326  0.6616
  406MOL    F3949449   5.870   1.865   3.829  0.3529 -0.2182 -0.6050
  406MOL    F4049450   5.850   1.664   3.730  0.4813 -0.2370  0.2853
  406MOL    C4149451   5.798   1.858   3.605 -0.2740  0.7667 -0.1097
  406MOL    H4249452   5.761   1.958   3.629  1.5098  0.9705  1.9655
  406MOL    H4349453   5.730   1.809   3.535  1.2729 -0.3985 -0.8234
  406MOL    C4449454   5.941   1.877   3.549 -0.0665  0.1259  0.3088
  406MOL    F4549455   6.003   1.963   3.625 -0.1810 -0.6654 -0.2683
  406MOL    F4649456   6.004   1.759   3.547  0.1807  0.0996  0.6004
  406MOL    C4749457   5.923   1.936   3.409  0.0816 -0.0665  0.2851
  406MOL    H4849458   5.866   2.029   3.418  0.7268  0.4254 -0.6536
  406MOL    H4949459   5.872   1.868   3.341  1.1401 -2.9817  2.2947
  406MOL    C5049460   6.050   1.971   3.329 -0.1709  0.4499 -0.5456
  406MOL    F5149461   6.114   1.867   3.296 -0.2988 -0.2202 -0.1461
  406MOL    F5249462   6.013   2.030   3.220 -0.3665 -0.0309  0.0070
  406MOL    C5349463   6.131   2.067   3.411  0.1255  1.0500  0.1277
  406MOL    H5449464   6.169   2.015   3.499  1.9579  0.8926 -0.7377
  406MOL    H5549465   6.062   2.139   3.456 -1.0946  0.9338 -1.5211
  406MOL    C5649466   6.244   2.133   3.328 -0.6323 -0.2039 -0.3378
  406MOL    F5749467   6.316   2.027   3.286 -0.1145  0.2806  0.0972
  406MOL    F5849468   6.197   2.207   3.230  0.6103  0.0025  0.2476
  406MOL    C5949469   6.341   2.226   3.409  0.0012 -0.2182 -1.0224
  406MOL    H6049470   6.376   2.180   3.502  1.5761  2.7810 -0.0816
  406MOL    H6149471   6.292   2.319   3.434 -1.0413 -0.6572 -1.4102
  406MOL    C6249472   6.481   2.246   3.335  0.0627  0.0222 -0.2081
  406MOL    F6349473   6.455   2.270   3.204 -0.1197 -0.5374 -0.1737
  406MOL    F6449474   6.540   2.355   3.373 -0.6136 -0.1156  0.1209
  406MOL    C6549475   6.582   2.132   3.339 -0.6658 -0.5229 -0.0566
  406MOL    H6649476   6.668   2.170   3.284 -0.5119 -0.5675  0.1517
  406MOL    H6749477   6.538   2.057   3.274 -1.6799 -0.4192  0.4908
  406MOL    C6849478   6.617   2.080   3.488 -0.1789  0.0741  0.0172
  406MOL    F6949479   6.611   2.187   3.574  0.0424  0.4933  0.1569
  406MOL    F7049480   6.532   1.987   3.525  0.6555  0.5477 -0.7332
  406MOL    C7149481   6.760   2.020   3.492 -0.0281  0.6274  0.3719
  406MOL    H7249482   6.827   2.092   3.446  1.5093 -0.7462  0.4418
  406MOL    H7349483   6.771   1.939   3.420 -0.8748  0.7813  0.0572
  406MOL    C7449484   6.812   1.972   3.630 -0.8833  0.2442 -0.3241
  406MOL    F7549485   6.941   1.949   3.619  0.0234 -0.0533 -0.0551
  406MOL    F7649486   6.802   2.073   3.721  0.0022 -0.0297 -0.4569
  406MOL    C7749487   6.743   1.839   3.680  0.4527  0.0960 -0.2068
  406MOL    H7849488   6.745   1.770   3.595 -2.7410  0.5477 -0.7000
  406MOL    H7949489   6.636   1.853   3.692  0.5977  0.6399  0.4677
  406MOL    C8049490   6.797   1.763   3.805  0.3600 -0.9333  0.4710
  406MOL    F8149491   6.927   1.761   3.803 -0.1604 -0.1222  0.5761
  406MOL    F8249492   6.764   1.833   3.912  0.3967  0.5247  0.4215
  406MOL    C8349493   6.748   1.616   3.798 -0.4641  0.0877 -0.8213
  406MOL    H8449494   6.787   1.570   3.707  0.0944 -2.1019  0.5045
  406MOL    H8549495   6.639   1.609   3.785 -0.3754 -0.4115 -1.3382
  406MOL    C8649496   6.803   1.529   3.914  0.9904  0.0563  0.5442
  406MOL    F8749497   6.792   1.402   3.870  0.8214 -0.2457 -0.4079
  406MOL    F8849498   6.936   1.543   3.932 -0.4663 -0.4662  0.3922
  406MOL    C8949499   6.726   1.553   4.044  0.1083  0.3741 -0.4010
  406MOL    H9049500   6.625   1.521   4.015  1.1122 -3.3967  0.1211
  406MOL    H9149501   6.715   1.661   4.057 -1.2845 -0.0825  2.4328
  406MOL    C9249502   6.777   1.487   4.172 -0.4694 -0.3587 -0.1585
  406MOL    F9349503   6.891   1.549   4.196  0.7755  0.2726 -0.5122
  406MOL    F9449504   6.685   1.525   4.261 -0.0759 -0.3686 -0.0900
  406MOL    C9549505   6.780   1.333   4.148  0.7426 -0.0522 -0.5165
  406MOL    H9649506   6.868   1.307   4.090  2.9583  1.1308  2.1910
  406MOL    H9749507   6.699   1.297   4.084  0.0432  1.0774 -0.2956
  406MOL    C9849508   6.771   1.255   4.279 -0.1137 -0.2697 -0.2174
  406MOL    F9949509   6.657   1.285   4.348 -0.4022 -0.0283  0.4417
  406MOL   F10049510   6.772   1.123   4.241 -0.0236  0.1380 -0.1782
  406MOL   C10149511   6.891   1.275   4.379 -0.0215 -0.3730  0.0904
  406MOL   H10249512   6.893   1.377   4.417 -0.8320 -0.8404  1.4437
  406MOL   H10349513   6.982   1.256   4.323  0.6974  0.4918  0.9393
  406MOL   C10449514   6.897   1.180   4.498  0.6861  0.2238  0.2832
  406MOL   F10549515   6.777   1.191   4.556 -0.5734  0.3395  0.5877
  406MOL   F10649516   6.910   1.053   4.457 -0.0705  0.3706  0.7229
  406MOL   C10749517   6.997   1.237   4.597  0.5073  0.0806 -1.2182
  406MOL   H10849518   6.984   1.339   4.635 -0.7951 -0.8477  0.9194
  406MOL   H10949519   7.093   1.252   4.548  0.2619  1.5016 -1.2911
  406MOL   C11049520   7.027   1.152   4.720  0.3507  0.3333 -0.3357
  406MOL   F11149521   6.917   1.119   4.782 -0.2683 -0.5653  0.0778
  406MOL   F11249522   7.079   1.032   4.680  0.6265 -0.5640 -0.1894
  406MOL   C11349523   7.111   1.233   4.822 -0.0494  0.6440 -0.0796
  406MOL   H11449524   7.047   1.314   4.858  0.0146  0.4869  0.3931
  406MOL   H11549525   7.182   1.303   4.779 -1.9392  2.0783 -0.8995
  406MOL   C11649526   7.176   1.149   4.932 -0.3090 -0.1890  0.0550
  406MOL   F11749527   7.269   1.073   4.881  0.0059 -0.0862  0.1448
  406MOL   F11849528   7.227   1.236   5.023  0.1145  0.1575 -0.4865
  406MOL   C11949529   7.083   1.065   5.013 -0.6056  0.4137 -0.0995
  406MOL   H12049530   7.120   1.029   5.108 -1.7669 -1.0661 -0.1833
  406MOL   H12149531   7.060   0.981   4.947  0.1005 -2.3407  3.0675
  406MOL   H12249532   6.994   1.126   5.028 -1.3782 -0.6674 -0.1869
  407MOL     C149533   7.461   2.651   4.716 -0.4683 -0.5411  0.3454
  407MOL     F249534   7.494   2.528   4.748  0.1903 -0.1148  0.0784
  407MOL     F349535   7.536   2.738   4.786  0.0858 -0.1260 -0.9059
  407MOL     C449536   7.312   2.672   4.764  0.5201  0.1957 -0.2050
  407MOL     H549537   7.277   2.769   4.729  0.8798  0.1912 -0.5767
  407MOL     H649538   7.300   2.679   4.872 -2.4238  1.2486 -0.5358
  407MOL     H749539   7.479   2.672   4.610  1.0107 -2.0258  0.2627
  407MOL     C849540   7.212   2.580   4.690  0.4224  0.0427  0.3363
  407MOL     F949541   7.088   2.619   4.723  0.1665  0.0059  0.3989
  407MOL    F1049542   7.223   2.603   4.565  0.1042 -0.0586 -0.4944
  407MOL    C1149543   7.237   2.436   4.729 -0.0792  0.0792 -0.1279
  407MOL    H1249544   7.264   2.432   4.835 -0.9781 -1.1787  0.0619
  407MOL    H1349545   7.322   2.401   4.671 -2.3899 -2.7857 -1.9351
  407MOL    C1449546   7.120   2.342   4.680 -0.6312  0.6469  0.0652
  407MOL    F1549547   7.003   2.362   4.742 -0.0335 -0.0535 -0.5510
  407MOL    F1649548   7.098   2.345   4.553 -0.1119  0.0555 -0.2580
  407MOL    C1749549   7.150   2.191   4.706 -0.1620 -0.0993 -0.4340
  407MOL    H1849550   7.220   2.155   4.631 -0.5310 -0.8996 -0.4051
  407MOL    H1949551   7.057   2.134   4.697  1.4245 -2.7585 -0.4778
  407MOL    C2049552   7.211   2.145   4.837  0.1834  0.1665 -0.4036
  407MOL    F2149553   7.343   2.181   4.827  0.1227  0.2624 -0.0077
  407MOL    F2249554   7.156   2.217   4.938  0.1016 -0.3047 -0.3952
  407MOL    C2349555   7.195   1.989   4.851  0.4167 -0.4126 -0.1406
  407MOL    H2449556   7.224   1.934   4.761  0.0413 -1.8698  0.6055
  407MOL    H2549557   7.090   1.964   4.864  0.3316  0.9536  2.0859
  407MOL    C2649558   7.271   1.934   4.971  0.6183  0.0236  0.3605
  407MOL    F2749559   7.404   1.958   4.957 -0.0352  0.1323 -0.1659
  407MOL    F2849560   7.233   1.999   5.082 -0.1848 -0.4876  0.0766
  407MOL    C2949561   7.240   1.782   4.993 -0.4740  0.1935  0.5462
  407MOL    H3049562   7.288   1.739   4.905  2.3628 -0.0055  2.1422
  407MOL    H3149563   7.132   1.765   4.990 -0.1419 -1.9586 -3.6206
  407MOL    C3249564   7.292   1.715   5.128  0.1349  0.4480 -0.2751
  407MOL    F3349565   7.213   1.770   5.216  0.2020  0.4619 -0.0984
  407MOL    F3449566   7.266   1.588   5.123 -0.1841 -0.4126 -0.1869
  407MOL    C3549567   7.437   1.733   5.153 -0.0580  0.2639  0.5384
  407MOL    H3649568   7.448   1.831   5.201  1.9349  0.2086  0.1962
  407MOL    H3749569   7.493   1.731   5.060 -1.1698  0.5790 -0.1576
  407MOL    C3849570   7.497   1.620   5.233  0.7377  1.3967 -0.3939
  407MOL    F3949571   7.423   1.598   5.345  0.4048 -0.0107 -0.2242
  407MOL    F4049572   7.496   1.510   5.155 -0.2929 -0.5448 -0.0362
  407MOL    C4149573   7.639   1.649   5.282 -0.3715 -0.0786  0.0630
  407MOL    H4249574   7.651   1.742   5.337 -0.3479 -0.1885  0.2446
  407MOL    H4349575   7.696   1.667   5.191  0.9837 -0.6986  0.7940
  407MOL    C4449576   7.702   1.543   5.365 -0.4830 -0.1579 -0.0203
  407MOL    F4549577   7.625   1.520   5.468 -0.3178  0.0143 -0.2045
  407MOL    F4649578   7.722   1.431   5.287 -0.2885 -0.0777 -0.1220
  407MOL    C4749579   7.836   1.589   5.415 -0.0579 -0.0637 -0.2926
  407MOL    H4849580   7.878   1.498   5.458  0.5026 -0.7825 -2.2984
  407MOL    H4949581   7.827   1.660   5.497  1.0274  1.5746 -1.5623
  407MOL    C5049582   7.936   1.650   5.310  0.0811 -0.3171  0.3921
  407MOL    F5149583   7.946   1.584   5.188  0.7284  0.4746  0.0766
  407MOL    F5249584   7.901   1.779   5.287 -0.1507 -0.3682  0.1594
  407MOL    C5349585   8.077   1.652   5.378  0.1631  0.8860  0.5870
  407MOL    H5449586   8.122   1.553   5.386 -0.0148  0.7727  0.2277
  407MOL    H5549587   8.061   1.674   5.483  1.0428 -0.0150  0.9149
  407MOL    C5649588   8.182   1.753   5.325 -0.8789  0.7539  0.3825
  407MOL    F5749589   8.131   1.878   5.349 -0.1331 -0.2948 -0.5264
  407MOL    F5849590   8.299   1.730   5.393 -0.7232  0.7797 -0.1676
  407MOL    C5949591   8.207   1.744   5.168 -0.3525  0.7265 -0.4332
  407MOL    H6049592   8.126   1.770   5.100 -1.0480  0.3537  0.2375
  407MOL    H6149593   8.218   1.640   5.136 -1.4910  0.2626  0.6166
  407MOL    C6249594   8.331   1.824   5.120  0.7503  0.0217 -0.3544
  407MOL    F6349595   0.091   1.772   5.181  1.1534 -0.0661  0.2923
  407MOL    F6449596   8.338   1.803   4.987 -0.5491  0.3418 -0.2335
  407MOL    C6549597   8.330   1.973   5.145 -0.3263 -0.5527  0.1426
  407MOL    H6649598   8.316   1.984   5.252 -1.9834  1.6166 -0.2573
  407MOL    H6749599   8.244   2.016   5.093 -0.5711 -2.1824 -0.8208
  407MOL    C6849600   0.110   2.040   5.087  0.0680 -0.1806  0.7435
  407MOL    F6949601   0.216   1.993   5.151 -0.8717  0.3804 -0.3306
  407MOL    F7049602   0.118   2.010   4.950  0.6167  0.4578 -0.5121
  407MOL    C7149603   0.113   2.190   5.091  0.1046  0.0848 -0.1988
  407MOL    H7249604   0.060   2.243   5.012  0.1511 -1.2524 -1.1617
  407MOL    H7349605   0.220   2.209   5.082 -0.2353  2.5847  0.7449
  407MOL    C7449606   0.076   2.255   5.222  0.4249  0.2034  0.0424
  407MOL    F7549607   8.301   2.221   5.256  0.5537 -0.5507 -0.0805
  407MOL    F7649608   0.166   2.207   5.309  0.1133 -0.2323  0.3983
  407MOL    C7749609   0.101   2.401   5.219  0.4647  0.3814  0.3968
  407MOL    H7849610   0.042   2.434   5.133 -0.3339  0.5141  0.9884
  407MOL    H7949611   0.205   2.427   5.198  0.9730 -1.7424  0.1703
  407MOL    C8049612   0.051   2.471   5.348  0.0109 -0.1253 -0.1714
  407MOL    F8149613   8.274   2.436   5.371  0.3465 -0.6970  0.3320
  407MOL    F8249614   0.116   2.421   5.450  0.5718 -0.1304  0.1739
  407MOL    C8349615   0.067   2.633   5.350 -0.2198  1.1008  0.0071
  407MOL    H8449616   0.005   2.679   5.273 -3.9023 -1.4793  1.2776
  407MOL    H8549617   0.167   2.671   5.328 -0.1005  0.3972 -0.6881
  407MOL    C8649618   0.042   2.695   5.487 -0.4526 -0.3280 -0.0264
  407MOL    F8749619   8.270   2.672   5.536 -0.1718 -0.2174  0.3510
  407MOL    F8849620   0.134   2.651   5.576  0.0973  1.0077  0.7236
  407MOL    C8949621   0.047   2.852   5.476  0.0943 -0.3293  0.2227
  407MOL    H9049622   8.324   2.885   5.401  1.1868  1.1703 -0.1972
  407MOL    H9149623   0.144   2.877   5.433  0.1469 -1.3510 -0.2662
  407MOL    C9249624   0.027   2.927   5.613  0.4635  0.4690  0.4644
  407MOL    F9349625   0.105   2.876   5.708  0.1482 -0.1423 -0.1568
  407MOL    F9449626   0.069   3.054   5.609  0.0731  0.3220 -0.5561
  407MOL    C9549627   8.230   2.940   5.664  0.4962 -0.4658  0.7711
  407MOL    H9649628   8.230   3.003   5.753 -0.7999 -0.9469  1.1235
  407MOL    H9749629   8.185   2.849   5.702  0.8793 -0.9690  0.0236
  407MOL    C9849630   8.119   3.011   5.572  0.2764  0.0316  0.7782
  407MOL    F9949631   8.098   2.928   5.470  0.3149  0.4180  0.2684
  407MOL   F10049632   8.026   3.016   5.657 -0.0649  0.1686 -0.4637
  407MOL   C10149633   8.157   3.150   5.539  0.2860 -1.1307 -0.1485
  407MOL   H10249634   8.251   3.147   5.485  0.4936  2.4498 -0.1319
  407MOL   H10349635   8.195   3.201   5.628  0.4915 -0.0505 -0.8463
  407MOL   C10449636   8.063   3.245   5.452 -0.3672  0.6062  0.0451
  407MOL   F10549637   8.011   3.177   5.353  0.2290 -0.2606  0.0227
  407MOL   F10649638   7.953   3.258   5.524 -0.0757  0.3389 -0.6894
  407MOL   C10749639   8.117   3.378   5.404  0.2142  0.7239  0.1555
  407MOL   H10849640   8.041   3.430   5.346  0.8958  0.4702 -0.9876
  407MOL   H10949641   8.190   3.355   5.327 -0.2993  1.1688 -0.4707
  407MOL   C11049642   8.172   3.476   5.511 -0.1373  0.2413  0.0517
  407MOL   F11149643   8.085   3.478   5.617 -0.1191  0.8227  0.3574
  407MOL   F11249644   8.285   3.424   5.556  0.7389 -0.1103 -0.2933
  407MOL   C11349645   8.182   3.615   5.448  0.0059 -0.2759  0.2717
  407MOL   H11449646   8.084   3.633   5.404  0.4770  0.7757 -0.3670
  407MOL   H11549647   8.257   3.602   5.371 -1.6598 -0.4463 -1.3616
  407MOL   C11649648   8.220   3.730   5.542  0.7970  0.4654 -0.0456
  407MOL   F11749649   8.122   3.765   5.623  0.0334 -0.1701 -0.1933
  407MOL   F11849650   8.320   3.693   5.624  0.3665  0.2114  0.3993
  407MOL   C11949651   8.247   3.846   5.452  0.0512 -0.7254  0.1221
  407MOL   H12049652   8.165   3.858   5.382  1.4732 -0.6974 -1.5518
  407MOL   H12149653   8.335   3.829   5.390 -1.6214  2.2209 -3.2488
  407MOL   H12249654   8.255   3.942   5.503 -0.2131 -0.5890 -0.0930
  408MOL     C149655   2.914   8.095   3.878  0.1864 -0.6187  0.0111
  408MOL     F249656   2.920   7.988   3.806  0.3129  0.5280  0.2274
  408MOL     F349657   2.830   8.181   3.820 -0.0555  0.2855 -0.0327
  408MOL     C449658   3.058   8.146   3.896 -0.4101 -0.3871 -0.0433
  408MOL     H549659   3.111   8.056   3.927 -0.6259 -1.1554 -1.8667
  408MOL     H649660   3.058   8.217   3.979 -2.1136 -2.6116  1.9277
  408MOL     H749661   2.877   8.081   3.979 -1.0257  1.0173 -0.1838
  408MOL     C849662   3.125   8.205   3.778 -0.2833 -0.4389 -0.0591
  408MOL     F949663   3.255   8.204   3.819 -0.6178  0.1698  0.1132
  408MOL    F1049664   3.121   8.122   3.672  0.0162  0.0949 -0.1305
  408MOL    C1149665   3.079   8.349   3.746  0.0303 -0.0085  0.6067
  408MOL    H1249666   3.111   0.056   3.834  2.0078  1.0510 -0.7641
  408MOL    H1349667   2.971   0.010   3.743 -0.0285 -0.7536  0.0759
  408MOL    C1449668   3.141   0.069   3.622  0.5034 -0.4131  0.5163
  408MOL    F1549669   3.082   0.010   3.518  0.1386  0.2743 -0.4692
  408MOL    F1649670   3.109   0.197   3.631 -0.2439  0.2333 -0.4034
  408MOL    C1749671   3.293   0.050   3.595 -0.0743 -0.3490  0.3232
  408MOL    H1849672   3.330   8.300   3.618 -1.4139 -0.3220  2.7533
  408MOL    H1949673   3.333   0.118   3.670 -1.2210  0.0557  0.5723
  408MOL    C2049674   3.342   0.095   3.454  0.6277 -0.3813  0.6882
  408MOL    F2149675   3.312   0.005   3.356  0.3464 -0.0741  0.0135
  408MOL    F2249676   3.288   0.212   3.432 -0.4435  0.1233 -0.4196
  408MOL    C2349677   3.494   0.121   3.446 -0.2645  0.0827  0.6695
  408MOL    H2449678   3.519   0.215   3.494 -1.4919  0.3300  0.8615
  408MOL    H2549679   3.521   0.137   3.342 -1.3072  0.3933  0.4339
  408MOL    C2649680   3.584   0.009   3.487 -0.7055 -0.0478 -0.4924
  408MOL    F2749681   3.577   0.024   3.617  0.0363  0.4804 -0.4087
  408MOL    F2849682   3.547   8.241   3.445  0.0227 -0.3194  0.2852
  408MOL    C2949683   3.733   0.021   3.443 -1.0035 -0.0770  0.3096
  408MOL    H3049684   3.756   0.127   3.439  0.5517 -0.3739  0.7862
  408MOL    H3149685   3.743   8.344   3.338 -0.0667  0.1361  0.3422
  408MOL    C3249686   3.847   8.314   3.535  0.3568  0.3769 -1.2524
  408MOL    F3349687   3.962   8.345   3.473 -0.6562 -0.6418 -0.0090
  408MOL    F3449688   3.846   0.046   3.637 -0.1594  0.0172  0.2966
  408MOL    C3549689   3.844   8.157   3.568  0.5355 -0.1788 -0.4065
  408MOL    H3649690   3.869   8.096   3.482  1.9996  0.2127 -0.2699
  408MOL    H3749691   3.746   8.131   3.609  0.3382 -1.1266 -1.4709
  408MOL    C3849692   3.943   8.115   3.680 -0.5095 -0.1313 -0.5713
  408MOL    F3949693   4.061   8.097   3.620  0.5479  0.3253 -0.6136
  408MOL    F4049694   3.962   8.206   3.782  0.1048  0.0677  0.6554
  408MOL    C4149695   3.895   7.987   3.755 -0.0147  0.3770  0.4031
  408MOL    H4249696   3.889   7.904   3.685  0.7396  0.7971 -0.1611
  408MOL    H4349697   3.797   8.006   3.799 -0.9182  0.0058 -1.3942
  408MOL    C4449698   3.994   7.929   3.856 -0.1975 -0.1338  0.7774
  408MOL    F4549699   4.109   7.899   3.798  0.1489 -0.3049  0.0427
  408MOL    F4649700   4.013   8.024   3.944  0.2130  0.6861  0.1446
  408MOL    C4749701   3.928   7.809   3.935 -0.6170  1.1634 -0.6813
  408MOL    H4849702   3.901   7.734   3.861  0.1166  0.1709  0.0392
  408MOL    H4949703   3.837   7.853   3.977 -1.0288 -1.4264  1.3379
  408MOL    C5049704   4.015   7.735   4.039 -0.3950 -0.0690 -0.2555
  408MOL    F5149705   4.131   7.707   3.985  0.4444 -0.0300  0.5228
  408MOL    F5249706   4.043   7.828   4.133  0.2998 -0.3998 -0.1332
  408MOL    C5349707   3.963   7.615   4.113 -0.3007 -0.3671  0.2178
  408MOL    H5449708   4.002   7.610   4.215 -1.3628  1.1016  0.7133
  408MOL    H5549709   3.981   7.523   4.056 -0.4681 -0.6132  0.5573
  408MOL    C5649710   3.809   7.615   4.128  0.1669  0.3278 -0.3960
  408MOL    F5749711   3.750   7.733   4.166 -0.6693  0.1233 -0.1052
  408MOL    F5849712   3.746   7.572   4.019 -0.2817 -0.1049  0.2703
  408MOL    C5949713   3.768   7.512   4.242 -0.7228  0.0653 -0.2974
  408MOL    H6049714   3.660   7.509   4.246 -0.6180 -2.7430  1.6133
  408MOL    H6149715   3.790   7.565   4.335 -0.4450 -0.1494 -0.2391
  408MOL    C6249716   3.815   7.369   4.232  0.1432 -0.0340  0.6085
  408MOL    F6349717   3.787   7.338   4.103  0.3714 -0.4867  0.0060
  408MOL    F6449718   3.950   7.384   4.247  0.0868 -0.4547  0.2352
  408MOL    C6549719   3.750   7.260   4.325 -0.0747  0.0275  0.0340
  408MOL    H6649720   3.771   7.159   4.290  1.9066  0.8908 -1.3914
  408MOL    H6749721   3.641   7.260   4.321 -0.1459 -0.5025  1.4057
  408MOL    C6849722   3.789   7.268   4.474  0.4099  0.0118 -0.1597
  408MOL    F6949723   3.921   7.262   4.480 -0.0296 -0.0549 -0.6873
  408MOL    F7049724   3.744   7.387   4.512 -0.3137 -0.1378 -0.1033
  408MOL    C7149725   3.732   7.151   4.558 -0.5110 -0.1034 -0.7666
  408MOL    H7249726   3.779   7.062   4.517 -1.7317 -0.7016 -0.8957
  408MOL    H7349727   3.628   7.124   4.540 -0.2283 -1.9757  0.2697
  408MOL    C7449728   3.764   7.153   4.707 -0.7545  0.1006 -0.2648
  408MOL    F7549729   3.722   7.045   4.761 -0.0236 -0.3175  0.0856
  408MOL    F7649730   3.896   7.160   4.732 -0.3352 -0.2994 -0.6168
  408MOL    C7749731   3.709   7.274   4.791  0.4295 -0.3222 -0.3094
  408MOL    H7849732   3.741   7.366   4.743 -1.9939  0.1276 -1.0959
  408MOL    H7949733   3.744   7.277   4.894  0.9867 -0.9090 -0.4829
  408MOL    C8049734   3.555   7.298   4.807  0.0275  0.3278  0.7126
  408MOL    F8149735   3.543   7.413   4.884 -0.6516 -0.0365  0.2116
  408MOL    F8249736   3.498   7.321   4.685 -0.1143  0.0950  0.0520
  408MOL    C8349737   3.493   7.169   4.874 -0.3716  0.7761  0.2036
  408MOL    H8449738   3.536   7.144   4.971 -0.5161 -0.0246  0.0691
  408MOL    H8549739   3.511   7.085   4.806 -1.0780  0.0674  0.8889
  408MOL    C8649740   3.337   7.187   4.903  0.4718 -0.0522  0.7511
  408MOL    F8749741   3.325   7.304   4.968  0.6984 -0.0467  0.3216
  408MOL    F8849742   3.275   7.191   4.786 -0.5781 -0.1482  0.3067
  408MOL    C8949743   3.276   7.073   4.988  0.4332  0.2812 -0.0771
  408MOL    H9049744   3.350   7.049   5.063  1.5937  0.4427 -1.1491
  408MOL    H9149745   3.259   6.984   4.928  0.7004  0.7143 -0.8110
  408MOL    C9249746   3.154   7.109   5.063 -0.1839 -0.5221 -0.0767
  408MOL    F9349747   3.083   7.188   4.978  0.3976  0.1405  0.1286
  408MOL    F9449748   3.086   6.998   5.087  0.5021 -0.0789 -0.6547
  408MOL    C9549749   3.173   7.188   5.198 -1.2882  0.0024  0.4556
  408MOL    H9649750   3.072   7.216   5.231 -1.7898 -1.7295  0.4092
  408MOL    H9749751   3.221   7.284   5.176 -1.4399 -0.3359 -1.5185
  408MOL    C9849752   3.243   7.118   5.316  0.2277 -0.0533  0.0003
  408MOL    F9949753   3.180   7.005   5.344  0.3650 -0.4338 -0.4444
  408MOL   F10049754   3.372   7.087   5.291 -0.1141 -0.5938 -0.0199
  408MOL   C10149755   3.233   7.215   5.432  0.1962  0.0785 -0.2893
  408MOL   H10249756   3.127   7.223   5.454  0.4287 -0.5660  1.0974
  408MOL   H10349757   3.277   7.312   5.406  0.5407  0.5718  2.0080
  408MOL   C10449758   3.314   7.178   5.564 -0.4877  0.2780  0.6424
  408MOL   F10549759   3.441   7.183   5.532 -0.2813 -0.0366  0.2581
  408MOL   F10649760   3.295   7.274   5.651  0.7643  0.4351  0.1326
  408MOL   C10749761   3.286   7.034   5.628 -0.0997  0.2862 -0.1226
  408MOL   H10849762   3.295   6.954   5.554  1.4185  2.4030 -2.2637
  408MOL   H10949763   3.179   7.032   5.651 -0.2282  1.7396 -0.5638
  408MOL   C11049764   3.380   7.003   5.746 -0.2344 -0.4472 -0.2367
  408MOL   F11149765   3.507   7.010   5.715  0.3477 -0.2337  0.3204
  408MOL   F11249766   3.359   7.087   5.849  0.2245  0.4954  0.1118
  408MOL   C11349767   3.349   6.865   5.816 -0.1170 -1.0583 -0.0593
  408MOL   H11449768   3.258   6.875   5.874  0.1460  2.1323 -0.1175
  408MOL   H11549769   3.427   6.863   5.892 -0.1770 -0.4793  0.0197
  408MOL   C11649770   3.353   6.738   5.734  0.5056  0.8809 -0.4118
  408MOL   F11749771   3.261   6.732   5.641  0.1731 -0.4228  0.0586
  408MOL   F11849772   3.474   6.729   5.680  0.3811 -0.1154  0.1074
  408MOL   C11949773   3.341   6.593   5.806 -0.7042 -0.3551  0.2829
  408MOL   H12049774   3.322   6.504   5.746  0.5587  0.6932 -1.6972
  408MOL   H12149775   3.262   6.604   5.881 -0.5406  0.0320  0.4003
  408MOL   H12249776   3.435   6.563   5.853  0.2935 -0.5681 -1.8320
  409MOL     C149777   2.776   3.527   2.315 -0.0650  0.7076  0.3829
  409MOL     F249778   2.798   3.440   2.413 -0.1814 -0.0643 -0.1953
  409MOL     F349779   2.646   3.564   2.334 -0.0176 -0.0834 -0.0598
  409MOL     C449780   2.794   3.458   2.170 -0.0090 -0.3029 -0.2306
  409MOL     H549781   2.766   3.536   2.099 -1.4867 -0.2073  0.4343
  409MOL     H649782   2.716   3.382   2.165 -0.4607  0.0975  0.6115
  409MOL     H749783   2.846   3.609   2.327  1.0917 -0.1208 -0.5292
  409MOL     C849784   2.920   3.389   2.138 -0.7011  0.1505  0.2203
  409MOL     F949785   3.027   3.468   2.166 -0.4715 -0.1349 -0.0506
  409MOL    F1049786   2.930   3.273   2.212 -0.0351 -0.4832 -0.0200
  409MOL    C1149787   2.931   3.344   1.990 -0.3323 -0.2574  0.0490
  409MOL    H1249788   2.919   3.437   1.934 -0.0314 -0.7485 -0.8387
  409MOL    H1349789   2.843   3.290   1.958 -0.3118 -0.3472  0.1439
  409MOL    C1449790   3.056   3.267   1.949 -0.1832 -0.2231 -0.2583
  409MOL    F1549791   3.035   3.229   1.824 -0.2002 -0.2747  0.2759
  409MOL    F1649792   3.161   3.349   1.957 -0.0097  0.8508  0.3486
  409MOL    C1749793   3.115   3.155   2.040 -0.1987 -0.1914 -0.2486
  409MOL    H1849794   3.027   3.100   2.073 -0.7751  0.2115 -1.1101
  409MOL    H1949795   3.155   3.203   2.130  1.9167 -1.0470 -0.7202
  409MOL    C2049796   3.233   3.061   2.001  0.8781 -0.2814  0.0949
  409MOL    F2149797   3.191   2.998   1.886 -0.1396 -0.3509  0.0618
  409MOL    F2249798   3.348   3.128   1.975  0.2790  0.1116 -0.2257
  409MOL    C2349799   3.261   2.962   2.112 -0.8241  0.4557  0.4672
  409MOL    H2449800   3.163   2.921   2.136  0.3457 -2.2169  0.8562
  409MOL    H2549801   3.304   3.016   2.196  1.5615  0.2101 -0.5532
  409MOL    C2649802   3.345   2.829   2.077 -0.8408 -0.3039 -0.0128
  409MOL    F2749803   3.270   2.760   1.987 -0.2267 -0.0403 -0.3941
  409MOL    F2849804   3.456   2.864   2.020  0.1640 -0.1174  0.0379
  409MOL    C2949805   3.371   2.741   2.202  0.7279 -0.0578 -0.4121
  409MOL    H3049806   3.420   2.801   2.279 -0.6984 -0.4344  0.7955
  409MOL    H3149807   3.449   2.668   2.181 -0.6273 -1.4132 -0.7964
  409MOL    C3249808   3.250   2.667   2.261  0.5243 -0.3125  0.1301
  409MOL    F3349809   3.162   2.763   2.297 -0.0028 -0.2545  0.3003
  409MOL    F3449810   3.190   2.592   2.170 -0.4416 -0.5567 -0.7628
  409MOL    C3549811   3.282   2.573   2.382  0.5332  0.2035  0.2493
  409MOL    H3649812   3.333   2.627   2.462  0.0297 -0.3191  0.9304
  409MOL    H3749813   3.359   2.498   2.360  2.1185  1.7970  0.2418
  409MOL    C3849814   3.150   2.501   2.446 -0.0137  0.1357  0.0915
  409MOL    F3949815   3.094   2.432   2.350  0.1095  0.9587 -0.1050
  409MOL    F4049816   3.208   2.406   2.514  0.0449  0.1628 -0.0084
  409MOL    C4149817   3.046   2.593   2.524 -0.6104  0.3809 -0.1976
  409MOL    H4249818   2.976   2.522   2.568 -1.4291  0.8728 -0.6960
  409MOL    H4349819   2.988   2.655   2.455 -1.3301  0.3493  0.3759
  409MOL    C4449820   3.107   2.692   2.642  0.3593  0.4843 -0.0736
  409MOL    F4549821   3.175   2.799   2.588 -0.1552  0.5929  0.1318
  409MOL    F4649822   3.000   2.738   2.706  0.5928  0.4554  0.2760
  409MOL    C4749823   3.187   2.617   2.738 -0.4913 -0.1887  0.4399
  409MOL    H4849824   3.277   2.578   2.692 -1.2758 -1.3435 -0.1475
  409MOL    H4949825   3.135   2.524   2.760 -1.1290 -0.0852 -0.6348
  409MOL    C5049826   3.238   2.683   2.866  0.5617  0.3631 -1.0402
  409MOL    F5149827   3.325   2.785   2.834  0.2589 -0.5833  0.3413
  409MOL    F5249828   3.143   2.727   2.947 -0.4399 -0.3280 -0.3055
  409MOL    C5349829   3.329   2.584   2.937 -0.2841  0.2618  0.7327
  409MOL    H5449830   3.357   2.643   3.025 -0.5221 -2.7445  2.9128
  409MOL    H5549831   3.419   2.580   2.876  1.0473  0.6275  2.6252
  409MOL    C5649832   3.272   2.445   2.986 -0.0669  0.0081  0.3640
  409MOL    F5749833   3.247   2.371   2.881  0.4616  0.1714 -0.4857
  409MOL    F5849834   3.367   2.385   3.050  0.2993  0.0376 -0.6080
  409MOL    C5949835   3.154   2.448   3.082  0.3592  0.7366 -0.3338
  409MOL    H6049836   3.072   2.511   3.045  0.4545  0.4562 -1.0270
  409MOL    H6149837   3.192   2.490   3.175 -1.6600 -0.0170  0.8590
  409MOL    C6249838   3.093   2.310   3.117 -1.4562 -0.6314 -0.3942
  409MOL    F6349839   3.029   2.275   3.009 -0.7792 -0.1106  0.1742
  409MOL    F6449840   3.185   2.219   3.152 -0.0967 -0.1991 -0.4570
  409MOL    C6549841   2.987   2.326   3.220  0.0637  0.2888 -0.4948
  409MOL    H6649842   2.919   2.405   3.189  1.7009  1.7062 -0.5333
  409MOL    H6749843   3.038   2.366   3.308 -0.8244 -2.4954  1.3807
  409MOL    C6849844   2.904   2.209   3.255 -0.0740 -0.1775  0.5316
  409MOL    F6949845   2.844   2.165   3.140  0.1463  0.5719 -0.1514
  409MOL    F7049846   2.976   2.117   3.321 -0.5450  0.2027  0.5470
  409MOL    C7149847   2.783   2.260   3.333  0.4360 -0.1257 -0.1089
  409MOL    H7249848   2.729   2.341   3.284 -2.8180 -0.6011  2.5258
  409MOL    H7349849   2.816   2.310   3.424  0.3570  0.4345 -0.3829
  409MOL    C7449850   2.691   2.142   3.378  0.1696  1.0627  0.6920
  409MOL    F7549851   2.649   2.080   3.276 -0.4296 -0.3328 -0.1012
  409MOL    F7649852   2.759   2.050   3.450  0.0911 -0.4699  0.2606
  409MOL    C7749853   2.559   2.187   3.447 -1.1640  0.3219 -0.3770
  409MOL    H7849854   2.504   2.242   3.371 -0.8774 -0.5381 -1.2198
  409MOL    H7949855   2.585   2.249   3.533  0.0866  0.6814 -0.9994
  409MOL    C8049856   2.466   2.069   3.507  0.3803  0.2692 -0.5276
  409MOL    F8149857   2.537   1.994   3.597  0.0785  0.2165 -0.1537
  409MOL    F8249858   2.364   2.120   3.578  0.9516  0.0063  0.0814
  409MOL    C8349859   2.410   1.974   3.397 -0.2485 -0.4630 -0.0181
  409MOL    H8449860   2.496   1.924   3.351  0.1386  0.0187  0.1720
  409MOL    H8549861   2.373   2.037   3.317 -4.2219 -0.1310  1.9725
  409MOL    C8649862   2.298   1.876   3.436 -0.4584  0.3087  0.0586
  409MOL    F8749863   2.217   1.943   3.522  0.3879 -0.1639  0.0026
  409MOL    F8849864   2.231   1.843   3.326 -0.0641 -0.1417  0.4185
  409MOL    C8949865   2.342   1.746   3.504 -0.3290 -0.3556  0.1071
  409MOL    H9049866   2.367   1.769   3.608  0.9369 -0.2757 -0.2058
  409MOL    H9149867   2.429   1.707   3.452 -0.1137 -1.1814  1.0823
  409MOL    C9249868   2.236   1.632   3.515 -0.5098 -0.2074 -0.2892
  409MOL    F9349869   2.176   1.612   3.395 -0.0050 -0.3977 -0.0524
  409MOL    F9449870   2.299   1.524   3.557 -0.2532  0.1273  0.5563
  409MOL    C9549871   2.130   1.661   3.621  0.7610  0.4406  0.1303
  409MOL    H9649872   2.083   1.751   3.581  2.1362  2.0746  2.0372
  409MOL    H9749873   2.179   1.695   3.713 -0.9327  1.7067  0.5946
  409MOL    C9849874   2.026   1.553   3.652  0.7211 -0.0833 -0.3118
  409MOL    F9949875   1.923   1.627   3.694  0.2638  0.3127  0.2074
  409MOL   F10049876   1.989   1.492   3.539  0.4823 -0.0261  0.2619
  409MOL   C10149877   2.063   1.453   3.764 -0.6423  0.1652 -0.0867
  409MOL   H10249878   2.102   1.509   3.850 -2.5058 -0.2897  1.0814
  409MOL   H10349879   2.146   1.393   3.727 -0.2318  0.5156  0.2522
  409MOL   C10449880   1.949   1.363   3.814 -0.4821 -0.2163 -0.2321
  409MOL   F10549881   1.850   1.442   3.858  0.2209  0.2345 -0.1651
  409MOL   F10649882   1.904   1.294   3.710 -0.3812  0.1882  0.5580
  409MOL   C10749883   1.995   1.256   3.921 -0.1285 -0.5114  0.2613
  409MOL   H10849884   2.066   1.308   3.985  0.2335 -0.7242  0.0332
  409MOL   H10949885   2.047   1.176   3.868 -1.2268 -0.8946 -0.2622
  409MOL   C11049886   1.879   1.186   4.001 -0.2706  0.0382  0.7494
  409MOL   F11149887   1.938   1.102   4.089  0.0650 -0.4274 -0.1888
  409MOL   F11249888   1.801   1.277   4.068 -0.4660  0.1944 -0.4144
  409MOL   C11349889   1.783   1.103   3.914  0.2088 -0.1597  0.6376
  409MOL   H11449890   1.843   1.055   3.838 -0.9488  0.9500 -1.0086
  409MOL   H11549891   1.715   1.173   3.866 -1.0413 -0.3949  2.0206
  409MOL   C11649892   1.688   1.013   3.996 -0.6549 -0.2165  0.4801
  409MOL   F11749893   1.637   1.080   4.103  0.1920  0.0465 -0.5464
  409MOL   F11849894   1.588   0.983   3.916 -0.1088  0.1526  0.0561
  409MOL   C11949895   1.748   0.886   4.054  0.3458  0.5846 -0.6364
  409MOL   H12049896   1.812   0.913   4.138  2.3929 -1.3692 -1.4997
  409MOL   H12149897   1.807   0.824   3.986  0.5571 -1.0649  1.0116
  409MOL   H12249898   1.663   0.830   4.094 -0.8444  1.9427 -1.2294
   8.34973   8.34973   8.34973
