Control file title. For DL_FIELD 4.10
49830
    1MOL     C1    1   3.927   4.316   6.672  0.3547  0.0757 -0.1730
    1MOL     C2    2   3.845   4.321   6.802 -0.6887  0.1230  0.7284
    1MOL     C3    3   3.912   4.418   6.901  0.0449 -0.2222 -0.2138
    1MOL     C4    4   3.950   4.371   7.024 -0.2974  0.7091 -0.4436
    1MOL     C5    5   3.982   4.465   7.122  0.0516 -0.8050 -0.3773
    1MOL     C6    6   3.972   4.603   7.093  0.8551 -0.2192 -0.8101
    1MOL     C7    7   3.938   4.640   6.962  1.3154 -0.3177  0.2178
    1MOL     N8    8   3.907   4.549   6.866  0.4331  0.0650 -0.7376
    1MOL     H9    9   3.907   4.240   6.597  3.8422 -0.8481 -0.2490
    1MOL    H10   10   3.907   4.405   6.612  1.7315  1.5500  1.5118
    1MOL    H11   11   3.848   4.221   6.844 -1.0866  1.3041  3.6901
    1MOL    H12   12   3.965   4.266   7.048  1.2896  1.0764  0.1933
    1MOL    H13   13   4.008   4.426   7.220  1.3784  0.4037 -0.2317
    1MOL    H14   14   4.001   4.683   7.159  0.1654 -1.0116  0.4786
    1MOL    H15   15   3.963   4.741   6.936  1.3190  0.1350  1.9155
    1MOL    H16   16   4.034   4.309   6.693  0.2845  0.5541  0.3619
    1MOL    C17   17   3.697   4.350   6.783 -0.6345 -0.0626 -0.8327
    1MOL    C18   18   3.611   4.326   6.913  0.0218 -0.7260  0.2549
    1MOL    C19   19   3.483   4.410   6.907  0.1910  0.1105  0.3715
    1MOL    C20   20   3.460   4.514   7.003  0.5869  0.9229  0.2892
    1MOL    C21   21   3.337   4.583   7.002 -0.8318  0.1598  0.1784
    1MOL    C22   22   3.242   4.550   6.906 -0.4808 -0.6944  0.9011
    1MOL    C23   23   3.275   4.452   6.812  0.2309 -0.8172  0.3277
    1MOL    N24   24   3.389   4.382   6.809  0.4699 -0.5537 -0.1470
    1MOL    H25   25   3.653   4.305   6.694 -0.2248 -0.3387 -0.8936
    1MOL    H26   26   3.697   4.453   6.747  0.4076  0.5584  0.8909
    1MOL    H27   27   3.677   4.363   6.990  0.7141 -0.3258 -0.5232
    1MOL    H28   28   3.534   4.548   7.073  0.9853  4.1082 -1.5538
    1MOL    H29   29   3.315   4.668   7.064  1.0810  0.9113 -0.1091
    1MOL    H30   30   3.151   4.606   6.894  1.5517  2.9098  1.5784
    1MOL    H31   31   3.203   4.427   6.735 -0.5444  1.5681  0.2494
    1MOL    C32   32   3.580   4.180   6.948  0.0998  0.1938 -0.1861
    1MOL    C33   33   3.615   4.147   7.087  0.3949 -0.4674 -0.2535
    1MOL    C34   34   3.537   4.235   7.186  0.8162 -0.4580  0.2041
    1MOL    C35   35   3.606   4.325   7.277  0.5041  0.0188 -0.1660
    1MOL    C36   36   3.526   4.422   7.352 -0.0472 -0.0937  0.5647
    1MOL    C37   37   3.389   4.415   7.341 -0.2865  0.4057 -0.0032
    1MOL    C38   38   3.336   4.322   7.256 -0.5590 -0.6542  0.4956
    1MOL    N39   39   3.400   4.230   7.181 -0.1068 -0.3305  0.1341
    1MOL    H40   40   3.643   4.120   6.883  0.1121  1.3132 -1.2266
    1MOL    H41   41   3.479   4.154   6.917 -0.9285  1.8662  1.6374
    1MOL    H42   42   3.719   4.168   7.111  0.3336  0.6705 -0.9316
    1MOL    H43   43   3.714   4.327   7.275  0.5276  0.0410  0.7816
    1MOL    H44   44   3.563   4.489   7.428 -2.5866  2.3571 -0.2689
    1MOL    H45   45   3.328   4.489   7.390 -0.0851  0.7846 -0.3243
    1MOL    H46   46   3.230   4.320   7.235 -0.8539  0.2904  1.8229
    1MOL    C47   47   3.601   4.004   7.130  0.2263 -0.0937 -0.2897
    1MOL    C48   48   3.706   3.910   7.070  0.7636  0.0945  0.3514
    1MOL    C49   49   3.852   3.952   7.106 -0.0514 -0.7057 -0.6866
    1MOL    C50   50   3.946   3.951   7.007 -0.4077  0.0841  0.1678
    1MOL    C51   51   4.086   3.958   7.041  0.2365 -0.0020 -0.9529
    1MOL    C52   52   4.113   3.974   7.180 -0.3083 -0.2168 -0.1304
    1MOL    C53   53   4.014   3.991   7.269  0.2646 -0.4651  0.0320
    1MOL    N54   54   3.887   3.967   7.236 -0.1241  0.2334  0.6197
    1MOL    H55   55   3.498   3.973   7.113  0.2086 -1.8273  2.6505
    1MOL    H56   56   3.608   3.991   7.238 -3.4136 -0.4978 -0.0557
    1MOL    H57   57   3.699   3.919   6.962  0.4112 -1.7579  0.1913
    1MOL    H58   58   3.920   3.942   6.902  1.3724  1.4921 -0.4299
    1MOL    H59   59   4.170   3.935   6.977  0.2478 -1.9706 -0.2832
    1MOL    H60   60   4.218   3.983   7.206 -0.2719  3.0623 -1.2375
    1MOL    H61   61   4.032   4.026   7.369 -1.1804 -2.0395  0.8878
    1MOL    C62   62   3.682   3.763   7.112 -0.1731  0.2549  0.1310
    1MOL    C63   63   3.552   3.694   7.062 -0.7083  0.6177 -0.1427
    1MOL    C64   64   3.583   3.599   6.938 -0.3316  0.0524 -0.6554
    1MOL    C65   65   3.530   3.621   6.810  0.4171  0.0845 -0.0875
    1MOL    C66   66   3.588   3.539   6.708  0.3307 -0.1368 -0.8903
    1MOL    C67   67   3.661   3.427   6.744 -0.2288  0.1436 -0.1001
    1MOL    C68   68   3.686   3.400   6.880  0.0146 -0.0852 -0.2912
    1MOL    N69   69   3.667   3.498   6.977 -0.1123  0.1369 -0.1185
    1MOL    H70   70   3.685   3.771   7.221  2.1932  0.7545  0.0565
    1MOL    H71   71   3.776   3.714   7.087  0.1106  1.1279 -0.5541
    1MOL    H72   72   3.477   3.769   7.035 -0.3149  1.5678  1.3405
    1MOL    H73   73   3.457   3.697   6.787  0.8299  1.5474  3.1209
    1MOL    H74   74   3.544   3.548   6.609 -0.2174  3.6102 -0.3847
    1MOL    H75   75   3.700   3.357   6.672 -2.2404 -1.7573  0.6190
    1MOL    H76   76   3.759   3.324   6.905 -0.2451  0.0495  0.9224
    1MOL    C77   77   3.489   3.625   7.187 -0.4513 -0.0094 -0.4747
    1MOL    C78   78   3.367   3.694   7.254  0.8253  0.8651 -0.3817
    1MOL    C79   79   3.256   3.740   7.153 -0.7392 -0.1676 -0.1226
    1MOL    C80   80   3.208   3.875   7.150 -0.1205 -0.0258  0.4792
    1MOL    C81   81   3.085   3.894   7.081  0.5857 -0.4932  0.5739
    1MOL    C82   82   3.034   3.797   7.002  0.5876  0.0432  1.1179
    1MOL    C83   83   3.104   3.675   6.999 -0.4924  0.5502  0.2951
    1MOL    N84   84   3.212   3.644   7.071  0.2133  0.6474 -0.2375
    1MOL    H85   85   3.568   3.594   7.255 -0.3935 -0.8768 -0.9331
    1MOL    H86   86   3.447   3.531   7.149  0.5041 -0.2633 -0.9077
    1MOL    H87   87   3.402   3.793   7.283 -1.1687  1.6443 -0.4958
    1MOL    H88   88   3.242   3.960   7.208 -1.3336 -0.0302  1.2099
    1MOL    H89   89   3.033   3.989   7.086 -0.0245 -0.8412  1.0458
    1MOL    H90   90   2.951   3.815   6.935  0.8228 -2.4292  0.1216
    1MOL    H91   91   3.084   3.598   6.926 -1.2896  0.4927  0.5636
    1MOL    C92   92   3.317   3.615   7.377  0.3330  0.2522  0.0288
    1MOL    C93   93   3.283   3.461   7.369  0.7696  0.3860 -0.0463
    1MOL    C94   94   3.321   3.396   7.498 -0.3165  0.2390  0.3550
    1MOL    C95   95   3.420   3.292   7.505  0.8270 -0.1565  0.6953
    1MOL    C96   96   3.447   3.240   7.632  0.0099 -0.4672  0.0369
    1MOL    C97   97   3.390   3.295   7.744 -0.2594 -0.6268 -0.1047
    1MOL    C98   98   3.298   3.400   7.732  0.0013  0.5886  0.4944
    1MOL    N99   99   3.268   3.447   7.609 -0.3654 -0.5897 -0.3370
    1MOL   H100  100   3.234   3.666   7.427  0.4588  0.8717 -0.3975
    1MOL   H101  101   3.395   3.621   7.453 -0.4104 -1.3545  0.9472
    1MOL   H102  102   3.348   3.424   7.290  2.0300  0.7876  0.7911
    1MOL   H103  103   3.473   3.250   7.421 -0.2331 -1.5352  0.7016
    1MOL   H104  104   3.512   3.153   7.636 -0.6339 -1.1113 -2.5808
    1MOL   H105  105   3.409   3.238   7.834 -0.2527 -3.5102 -1.8824
    1MOL   H106  106   3.244   3.445   7.814  0.6086  1.8212  0.2210
    1MOL   C107  107   3.135   3.431   7.323 -0.3882 -0.3476 -0.1982
    1MOL   C108  108   3.093   3.290   7.272 -0.3185 -0.6343  0.2117
    1MOL   C109  109   2.950   3.283   7.221 -0.9562  0.1905 -1.1565
    1MOL   C110  110   2.857   3.203   7.291 -0.4804  0.1269  0.4668
    1MOL   C111  111   2.723   3.213   7.256 -0.1501 -0.1642  0.6373
    1MOL   C112  112   2.690   3.285   7.139  0.2965 -0.1800 -0.3880
    1MOL   C113  113   2.789   3.367   7.078 -0.2919 -0.3579 -0.2826
    1MOL   N114  114   2.917   3.362   7.116  0.0077  0.5137 -0.0310
    1MOL   H115  115   3.113   3.498   7.239  0.1326  0.3657  0.2257
    1MOL   H116  116   3.067   3.473   7.398 -0.5816  0.0669 -0.6001
    1MOL   H117  117   3.093   3.214   7.350  0.5467 -1.4150 -0.5365
    1MOL   H118  118   2.884   3.159   7.386 -0.5560  0.6765  0.7445
    1MOL   H119  119   2.645   3.163   7.312 -0.0795 -0.7829  0.1853
    1MOL   H120  120   2.588   3.307   7.112  0.9124  2.7269 -0.5484
    1MOL   H121  121   2.772   3.419   6.985  1.1579 -0.9714 -0.9086
    1MOL   C122  122   3.197   3.249   7.157  0.2638 -0.2925 -0.2151
    1MOL   C123  123   3.172   3.116   7.079  0.1584  0.5927  0.8338
    1MOL   C124  124   3.271   3.101   6.961 -0.2503  0.9343 -1.2250
    1MOL   C125  125   3.218   3.102   6.827 -0.1544 -0.5347 -0.8944
    1MOL   C126  126   3.310   3.080   6.723 -0.0899 -0.9144  0.1921
    1MOL   C127  127   3.448   3.063   6.749  0.0628 -0.9324  0.2409
    1MOL   C128  128   3.486   3.046   6.885  0.5409 -0.1096  0.1823
    1MOL   N129  129   3.404   3.074   6.991  0.3324 -0.4578 -0.1224
    1MOL   H130  130   3.286   3.232   7.216  0.3865 -1.7891 -0.8059
    1MOL   H131  131   3.211   3.338   7.095  0.2966 -0.7595 -0.8919
    1MOL   H132  132   3.073   3.118   7.034  0.4172  2.7765  0.2785
    1MOL   H133  133   3.114   3.116   6.802 -0.0904 -0.9284 -1.3889
    1MOL   H134  134   3.279   3.105   6.623  2.9291  1.2361 -0.2578
    1MOL   H135  135   3.528   3.069   6.677  0.6575  0.1084  0.9815
    1MOL   H136  136   3.589   3.022   6.907  0.1248 -2.2271 -0.0842
    1MOL   C137  137   3.189   2.998   7.178  0.6806  0.1385  0.5664
    1MOL   C138  138   3.059   2.918   7.202 -0.4784  0.0981  0.1465
    1MOL   C139  139   2.996   2.880   7.068 -0.4812  0.0700 -0.4242
    1MOL   C140  140   2.859   2.909   7.036  0.4769 -0.3898  0.0283
    1MOL   C141  141   2.801   2.863   6.919 -0.6534 -0.5682  0.0019
    1MOL   C142  142   2.881   2.782   6.838  0.2391  0.1847 -0.3269
    1MOL   C143  143   3.006   2.744   6.877  0.8829 -0.4042 -0.8282
    1MOL   N144  144   3.064   2.798   6.989  0.3068  0.0957 -0.2729
    1MOL   H145  145   3.235   3.021   7.274  3.9713 -1.1490 -0.6211
    1MOL   H146  146   3.262   2.931   7.132  0.5201 -0.6272  1.4002
    1MOL   H147  147   2.979   2.985   7.236 -0.1973  0.3534  0.3107
    1MOL   H148  148   2.806   2.975   7.103 -1.2111 -1.5003 -0.2115
    1MOL   H149  149   2.711   2.913   6.887 -0.0407  1.7556  1.7030
    1MOL   H150  150   2.848   2.744   6.742 -0.0192  0.8414 -0.4961
    1MOL   H151  151   3.075   2.681   6.822  0.0228 -1.1224 -1.1034
    1MOL   C152  152   3.062   2.803   7.300  0.9259  0.5914  0.6377
    1MOL   C153  153   3.115   2.832   7.444 -0.2161  0.0382 -0.4527
    1MOL   C154  154   3.043   2.945   7.515 -0.1944 -0.2397  0.9706
    1MOL   C155  155   3.114   3.050   7.564 -0.2868 -0.1805 -0.6914
    1MOL   C156  156   3.038   3.157   7.621 -0.5582 -0.9973 -0.1131
    1MOL   C157  157   2.905   3.135   7.644  0.0056 -0.2082 -0.2531
    1MOL   C158  158   2.841   3.016   7.601 -0.3500  0.3449 -0.6703
    1MOL   N159  159   2.909   2.926   7.524  0.0703  0.6904  0.2488
    1MOL   H160  160   3.131   2.731   7.256 -1.2233 -1.3947  0.3794
    1MOL   H161  161   2.969   2.746   7.304  2.1597 -1.5146 -0.1147
    1MOL   H162  162   3.219   2.861   7.430  0.0949 -0.9828 -0.3613
    1MOL   H163  163   3.220   3.066   7.556 -0.4016  0.7040 -0.5890
    1MOL   H164  164   3.079   3.253   7.647 -0.5540 -0.8706 -0.6003
    1MOL   H165  165   2.840   3.207   7.691  0.4051 -0.5239  0.7929
    1MOL   H166  166   2.734   3.005   7.612 -0.4290  1.1143 -0.6542
    1MOL   C167  167   3.118   2.704   7.526  0.0634  0.2782  0.0868
    1MOL   C168  168   3.191   2.711   7.664 -0.5799 -0.1272 -0.1136
    1MOL   C169  169   3.163   2.589   7.747  0.1513  0.4489  0.3173
    1MOL   C170  170   3.092   2.598   7.867  0.3759  0.0377  0.2459
    1MOL   C171  171   3.093   2.488   7.951 -0.1842 -0.2780 -0.2529
    1MOL   C172  172   3.158   2.374   7.914  0.1386 -0.0726  0.1913
    1MOL   C173  173   3.226   2.374   7.798 -1.0813  0.3119  0.3003
    1MOL   N174  174   3.220   2.474   7.703 -0.1947  0.2940  0.4315
    1MOL   H175  175   3.164   2.620   7.473 -0.6065  0.7958 -1.3467
    1MOL   H176  176   3.018   2.667   7.547 -0.2092  1.2398  0.5087
    1MOL   H177  177   3.138   2.791   7.715 -0.8471 -1.0519  1.0688
    1MOL   H178  178   3.042   2.687   7.902  1.9354  0.8482  0.4632
    1MOL   H179  179   3.037   2.492   8.043 -1.6252 -0.4866 -1.1141
    1MOL   H180  180   3.157   2.285   7.974  0.7276  0.4641  1.0151
    1MOL   H181  181   3.269   2.280   7.766 -0.8103  0.7231 -0.5577
    1MOL   C182  182   3.339   2.739   7.639 -0.2177 -0.4965  0.2334
    1MOL   C183  183   3.437   2.740   7.761 -0.1959  0.3852  0.2919
    1MOL   C184  184   3.582   2.725   7.713 -0.6966 -0.0011  0.0451
    1MOL   C185  185   3.671   2.631   7.762  0.3064 -0.1789  0.4605
    1MOL   C186  186   3.797   2.619   7.704 -0.1441 -0.0847 -0.2758
    1MOL   C187  187   3.835   2.704   7.598 -0.0110  0.1757  0.2423
    1MOL   C188  188   3.744   2.800   7.566  0.2477  0.1168  0.0620
    1MOL   N189  189   3.618   2.808   7.614 -0.1371 -0.0373  0.3502
    1MOL   H190  190   3.359   2.835   7.590  2.8052 -0.3189  1.7290
    1MOL   H191  191   3.380   2.664   7.571  2.4570 -0.6791  1.9813
    1MOL   H192  192   3.416   2.668   7.839 -2.0939  0.7379  0.1365
    1MOL   H193  193   3.654   2.564   7.845  0.5036 -1.6531 -0.6599
    1MOL   H194  194   3.866   2.546   7.744  0.2809  1.1853  1.3396
    1MOL   H195  195   3.931   2.691   7.550 -1.0065 -1.5052 -1.3713
    1MOL   H196  196   3.783   2.870   7.494 -0.2210  0.3382  0.0172
    1MOL   C197  197   3.419   2.876   7.835  0.1298  0.2980 -0.2341
    1MOL   C198  198   3.519   2.905   7.952 -0.5989  0.1728 -0.4738
    1MOL   C199  199   3.519   3.047   7.995  0.0966 -0.1007 -0.3341
    1MOL   C200  200   3.632   3.126   7.985  0.4949 -0.3106 -0.2154
    1MOL   C201  201   3.635   3.254   8.040  0.0945  0.4397 -0.0644
    1MOL   C202  202   3.516   3.307   8.095  0.4949  0.2526 -0.4269
    1MOL   C203  203   3.405   3.221   8.098 -0.7305  0.8498 -0.0537
    1MOL   N204  204   3.403   3.098   8.045 -0.4842  0.2602  0.3639
    1MOL   H205  205   3.320   2.898   7.874  0.3922  1.9342 -0.4234
    1MOL   H206  206   3.446   2.948   7.757  0.1775  0.5138 -0.0187
    1MOL   H207  207   3.619   2.884   7.915 -0.4060  0.1866  0.0283
    1MOL   H208  208   3.721   3.097   7.930  0.2727 -1.5526  0.0564
    1MOL   H209  209   3.723   3.314   8.023 -0.4889  1.8489  1.7144
    1MOL   H210  210   3.510   3.401   8.148  0.7354 -0.4294  0.8205
    1MOL   H211  211   3.312   3.257   8.140 -0.6526 -0.5925  1.4119
    1MOL   C212  212   3.495   2.806   8.072  0.8357 -0.3137  0.3693
    1MOL   C213  213   3.605   2.812   0.027 -0.0238 -0.3754  1.1200
    1MOL   C214  214   3.554   2.763   0.159 -0.9724  0.8102 -0.4727
    1MOL   C215  215   3.504   2.854   0.253  0.3971 -0.4481 -0.3380
    1MOL   C216  216   3.435   2.806   0.366  0.0628  0.0856 -0.0003
    1MOL   C217  217   3.439   2.666   0.382 -0.3547 -0.2148  0.3255
    1MOL   C218  218   3.500   2.580   0.287  0.2110  0.1204 -0.4973
    1MOL   N219  219   3.545   2.621   0.172  0.0533 -0.3165  0.3598
    1MOL   H220  220   3.476   2.706   8.034 -3.2009  0.1571  0.9248
    1MOL   H221  221   3.400   2.837   8.115  2.0436  1.1488  2.0382
    1MOL   H222  222   3.624   2.918   0.045  1.7348 -0.5241  0.2263
    1MOL   H223  223   3.517   2.959   0.230  0.5784 -0.6588 -1.1929
    1MOL   H224  224   3.387   2.870   0.438 -2.0863 -1.2690 -0.1936
    1MOL   H225  225   3.384   2.617   0.462  0.7997 -1.0881  0.5954
    1MOL   H226  226   3.481   2.473   0.293 -0.6152  0.2240 -1.2009
    1MOL   C227  227   3.739   2.741   8.144 -0.0510  0.2888 -0.3919
    1MOL   C228  228   3.850   2.737   0.092 -0.0967 -0.6351 -0.2996
    1MOL   C229  229   3.963   2.646   0.058 -0.5287  0.4499  0.2377
    1MOL   C230  230   3.972   2.525   0.123 -0.2739 -0.1524 -0.1666
    1MOL   C231  231   4.078   2.433   0.093  0.4784  0.5763 -0.7763
    1MOL   C232  232   4.161   2.469   8.140  0.0023  0.0554  0.4489
    1MOL   C233  233   4.142   2.586   8.071 -0.6549  0.1512 -0.2270
    1MOL   N234  234   4.049   2.677   8.106  0.9494  0.3815 -0.2448
    1MOL   H235  235   3.775   2.785   8.051  0.2655 -0.0444 -0.4257
    1MOL   H236  236   3.719   2.639   8.113 -0.6147 -0.1376  1.3458
    1MOL   H237  237   3.813   2.685   0.181 -3.5206  0.3335 -1.0603
    1MOL   H238  238   3.902   2.499   0.201 -1.8435  1.5448 -0.9804
    1MOL   H239  239   4.084   2.338   0.145  2.3450  1.4925  0.7516
    1MOL   H240  240   4.245   2.412   8.103 -0.8485  1.2699 -3.5934
    1MOL   H241  241   4.205   2.602   7.985  1.5807  0.6322  1.4544
    1MOL   C242  242   3.903   2.880   0.137 -0.2464  0.3039  0.1599
    1MOL   C243  243   3.967   2.892   0.282  0.1602 -0.1164  0.3728
    1MOL   C244  244   3.863   2.889   0.397 -0.2492  0.0167  0.0619
    1MOL   C245  245   3.819   3.010   0.456 -0.3774 -0.6578 -0.3327
    1MOL   C246  246   3.726   3.012   0.561  0.4890 -0.0876  0.3123
    1MOL   C247  247   3.681   2.885   0.600 -0.0104 -0.2876  0.0886
    1MOL   C248  248   3.722   2.770   0.533 -0.5564 -0.2100 -0.3397
    1MOL   N249  249   3.814   2.767   0.433  0.3037  0.1737  0.2079
    1MOL   H250  250   3.812   2.941   0.132 -1.7574 -1.9355 -0.1267
    1MOL   H251  251   3.973   2.913   0.061 -2.4089  0.2559 -1.9395
    1MOL   H252  252   3.992   2.998   0.288  1.0503 -0.3588  0.9321
    1MOL   H253  253   3.863   3.092   0.402  0.2193 -1.7849 -1.5884
    1MOL   H254  254   3.678   3.098   0.604 -1.1742 -0.7156 -0.2659
    1MOL   H255  255   3.589   2.873   0.655  0.7848  1.6816  1.8810
    1MOL   H256  256   3.673   2.674   0.538  1.2028 -1.1008  0.1938
    1MOL   C257  257   4.096   2.812   0.308  0.9855  0.7437 -0.0615
    1MOL   C258  258   4.220   2.830   0.222 -0.7879  0.5632  0.2828
    1MOL   C259  259   4.238   2.981   0.187  0.2417 -0.0775  0.8246
    1MOL   C260  260   4.218   3.031   0.058  0.2817  0.5688 -0.3595
    1MOL   C261  261   4.230   3.167   0.028 -0.3572  0.8663  0.4602
    1MOL   C262  262   4.263   3.249   0.134  0.2299  1.0323 -0.4958
    1MOL   C263  263   4.279   3.198   0.268 -0.5803 -0.0596  0.1026
    1MOL   N264  264   4.274   3.063   0.289  0.1766 -0.0422 -0.0298
    1MOL   H265  265   4.068   2.707   0.323 -1.6059  1.4350  0.0539
    1MOL   H266  266   4.116   2.835   0.413  0.0204  1.8262 -0.1129
    1MOL   H267  267   4.210   2.781   0.125  1.0257 -1.7875  1.2230
    1MOL   H268  268   4.197   2.962   8.129 -1.7461  1.3448 -0.5252
    1MOL   H269  269   4.222   3.203   8.078 -3.5953  0.9740  0.7003
    1MOL   H270  270   4.281   3.351   0.104  0.9886  1.1725  0.3952
    1MOL   H271  271   4.298   3.269   0.347 -0.2741  0.8940 -0.8154
    1MOL   C272  272   4.348   2.760   0.273  0.4406 -0.1356  0.3484
    1MOL   C273  273   4.476   2.788   0.194  0.1375 -0.7950 -0.4317
    1MOL   C274  274   4.590   2.701   0.258  0.5624  0.2281  0.0273
    1MOL   C275  275   4.693   2.765   0.317 -0.1363  0.1751 -0.1400
    1MOL   C276  276   4.797   2.696   0.385  0.5511  0.5453 -0.4344
    1MOL   C277  277   4.784   2.557   0.387  0.3174  0.1498 -0.0631
    1MOL   C278  278   4.674   2.494   0.325 -0.5272  0.2002  0.8238
    1MOL   N279  279   4.581   2.566   0.259  0.7086 -0.5730  0.9842
    1MOL   H280  280   4.332   2.652   0.271  2.6952 -0.6018  3.3918
    1MOL   H281  281   4.366   2.794   0.374  1.7105 -0.0395  0.0920
    1MOL   H282  282   4.512   2.890   0.206  1.8614 -1.5291  0.9425
    1MOL   H283  283   4.688   2.873   0.324 -0.7913  0.1495 -0.2080
    1MOL   H284  284   4.875   2.744   0.443  0.0055 -1.0029  1.6435
    1MOL   H285  285   4.848   2.496   0.449 -0.7166  2.6613  3.6076
    1MOL   H286  286   4.662   2.387   0.332 -0.5080  0.1801  0.5290
    1MOL   C287  287   4.459   2.752   0.036  0.3151 -0.5796  0.2578
    1MOL   C288  288   4.589   2.794   8.111 -0.6065  0.6201  0.9393
    1MOL   C289  289   4.576   2.784   7.960  0.8256  0.2200 -0.0620
    1MOL   C290  290   4.556   2.902   7.886  0.1462  0.3360  0.5075
    1MOL   C291  291   4.536   2.885   7.746  0.3943  0.0926 -0.4988
    1MOL   C292  292   4.500   2.756   7.696  0.2146 -0.2831  0.3506
    1MOL   C293  293   4.506   2.651   7.788  0.2642 -0.2711 -0.7017
    1MOL   N294  294   4.551   2.665   7.914 -0.0748  0.2020  0.1741
    1MOL   H295  295   4.379   2.805   8.136 -0.2631 -1.8455 -0.1556
    1MOL   H296  296   4.447   2.646   0.015  0.7289 -0.6560  0.4110
    1MOL   H297  297   4.672   2.738   0.002  0.2924  2.0028  1.0297
    1MOL   H298  298   4.567   3.000   7.930  3.1059  0.4788 -0.4148
    1MOL   H299  299   4.531   2.974   7.685  2.0637  0.5683  0.0295
    1MOL   H300  300   4.466   2.733   7.596  1.8299  0.9964 -0.5247
    1MOL   H301  301   4.472   2.552   7.759 -1.1472 -0.3017  0.9645
    1MOL   H302  302   4.614   2.897   8.136  1.7858  1.0027 -2.6853
    2MOL     C1  303   4.160   7.710   1.918  0.2671 -0.7153 -0.1066
    2MOL     C2  304   4.188   7.609   1.807 -0.2435 -0.7237 -0.0338
    2MOL     C3  305   4.171   7.468   1.854 -0.1934  0.2854  0.1244
    2MOL     C4  306   4.253   7.366   1.807  0.4959 -0.5194 -0.1517
    2MOL     C5  307   4.231   7.236   1.852 -0.8536 -0.3774 -0.1549
    2MOL     C6  308   4.116   7.211   1.933  0.3711  0.4343  0.5674
    2MOL     C7  309   4.032   7.318   1.964 -0.0783  0.0545  0.0681
    2MOL     N8  310   4.062   7.442   1.927  0.0237  1.1121 -0.1209
    2MOL     H9  311   4.198   7.811   1.907 -0.5722 -0.2446  1.1605
    2MOL    H10  312   4.053   7.723   1.937  0.4894  1.3620 -0.1975
    2MOL    H11  313   4.292   7.622   1.777 -0.3710 -0.4009 -0.3392
    2MOL    H12  314   4.333   7.376   1.735 -0.9043 -0.6992 -1.7556
    2MOL    H13  315   4.302   7.157   1.831  0.1029  0.3680  0.2212
    2MOL    H14  316   4.082   7.115   1.968 -0.6521  0.0818 -1.3204
    2MOL    H15  317   3.943   7.291   2.017  0.3641 -1.4333  0.0565
    2MOL    H16  318   4.201   7.670   2.011  1.5770 -2.3395 -1.3650
    2MOL    C17  319   4.096   7.631   1.685 -0.5376  0.2995 -0.6208
    2MOL    C18  320   4.127   7.763   1.615  0.3119  0.0354  0.2050
    2MOL    C19  321   4.269   7.761   1.561 -0.0402 -0.1201 -0.0313
    2MOL    C20  322   4.357   7.864   1.594  0.3359  0.6456  1.1826
    2MOL    C21  323   4.484   7.867   1.537 -0.7904  0.3081  0.1992
    2MOL    C22  324   4.525   7.765   1.451  0.6671 -0.3851  0.8040
    2MOL    C23  325   4.431   7.667   1.428  0.1422 -0.1515  0.2512
    2MOL    N24  326   4.307   7.656   1.483 -0.3159 -0.1855 -0.0762
    2MOL    H25  327   3.993   7.645   1.718 -0.0188  2.2907  0.2484
    2MOL    H26  328   4.100   7.546   1.616 -0.9034  0.5322 -0.9304
    2MOL    H27  329   4.134   7.848   1.683  1.6432  0.9279 -1.0209
    2MOL    H28  330   4.318   7.948   1.650 -2.0290  0.0692  0.4680
    2MOL    H29  331   4.561   7.938   1.564 -1.7193 -0.2912  4.8414
    2MOL    H30  332   4.624   7.754   1.410  0.2103  1.5814 -0.9428
    2MOL    H31  333   4.462   7.580   1.372  1.8277  0.3302  0.4112
    2MOL    C32  334   4.030   7.790   1.496  0.1085  0.0123 -0.3939
    2MOL    C33  335   3.885   7.821   1.526  0.4865 -0.6312 -0.8127
    2MOL    C34  336   3.881   7.943   1.621  0.4493 -0.3801 -0.2580
    2MOL    C35  337   3.833   7.924   1.752  0.4219 -0.1744 -0.4176
    2MOL    C36  338   3.821   8.038   1.835 -0.1656 -0.3636  0.2505
    2MOL    C37  339   3.860   0.009   1.778 -0.4945 -0.2586 -0.8978
    2MOL    C38  340   3.906   0.019   1.646  0.0136  0.2396 -0.4908
    2MOL    N39  341   3.920   8.064   1.571 -0.1739  0.3305  0.0245
    2MOL    H40  342   4.033   7.710   1.422  0.8219  0.6191 -1.0402
    2MOL    H41  343   4.060   7.876   1.436 -0.6590  0.9761  0.5804
    2MOL    H42  344   3.827   7.742   1.574  0.0294  0.3684  0.2842
    2MOL    H43  345   3.804   7.827   1.791 -2.8101  0.4888 -1.0310
    2MOL    H44  346   3.775   8.034   1.933  0.9973  0.6866  0.8615
    2MOL    H45  347   3.866   0.090   1.849  1.8360 -1.1703 -0.0026
    2MOL    H46  348   3.924   0.118   1.607 -1.3382  0.2244 -1.1869
    2MOL    C47  349   3.808   7.848   1.397 -0.1712  0.0295 -0.3530
    2MOL    C48  350   3.794   7.739   1.291  0.6583  1.0780  0.1493
    2MOL    C49  351   3.717   7.623   1.359 -0.3650 -0.4661  0.0967
    2MOL    C50  352   3.791   7.523   1.417  0.6071  0.3581  0.5630
    2MOL    C51  353   3.718   7.420   1.492 -0.3806 -0.5139 -0.9307
    2MOL    C52  354   3.580   7.435   1.495  0.1076  0.0091 -0.5256
    2MOL    C53  355   3.517   7.538   1.427 -0.0347  0.1945  0.1575
    2MOL    N54  356   3.583   7.637   1.372 -0.7970  0.3952  0.2972
    2MOL    H55  357   3.855   7.932   1.346  2.2258 -0.3786  1.1330
    2MOL    H56  358   3.707   7.882   1.419 -0.9941 -2.1268 -0.6087
    2MOL    H57  359   3.892   7.704   1.260  0.6858  1.1005  0.2114
    2MOL    H58  360   3.898   7.519   1.404  0.4071  2.3872 -1.9588
    2MOL    H59  361   3.769   7.331   1.526  4.1875  2.0410 -0.6555
    2MOL    H60  362   3.524   7.354   1.539  0.5555 -0.2702 -0.4607
    2MOL    H61  363   3.410   7.547   1.431 -0.4721 -4.1274  0.9510
    2MOL    C62  364   3.723   7.782   1.158 -0.3666 -0.0599  0.1772
    2MOL    C63  365   3.806   7.882   1.076  0.3909  0.2039 -0.3237
    2MOL    C64  366   3.917   7.816   1.000 -0.1875  0.6972 -0.6909
    2MOL    C65  367   4.052   7.822   1.047  0.2252  0.0185 -0.3315
    2MOL    C66  368   4.151   7.751   0.981  0.3381 -0.7548  0.0624
    2MOL    C67  369   4.120   7.678   0.868 -0.0821  0.1390  0.1776
    2MOL    C68  370   3.990   7.681   0.823 -0.6025 -0.5264 -0.8102
    2MOL    N69  371   3.891   7.747   0.888 -0.1956 -0.6928  0.3567
    2MOL    H70  372   3.637   7.836   1.199  0.5822  1.5913  0.0594
    2MOL    H71  373   3.696   7.692   1.103 -0.7793  0.5167 -0.5671
    2MOL    H72  374   3.869   7.944   1.140  0.4603  0.2362 -0.4230
    2MOL    H73  375   4.086   7.874   1.135 -1.7298 -0.7757  0.9214
    2MOL    H74  376   4.251   7.749   1.022 -0.0709  0.4643  1.1333
    2MOL    H75  377   4.192   7.622   0.809 -2.1015 -1.5269 -0.7747
    2MOL    H76  378   3.950   7.628   0.738 -1.0019 -1.8486  0.1865
    2MOL    C77  379   3.722   7.971   0.980  0.2629 -0.2422 -0.5045
    2MOL    C78  380   3.600   8.038   1.033  0.1058  0.5742  0.6350
    2MOL    C79  381   3.617   8.119   1.163  0.7194  0.7875 -1.0610
    2MOL    C80  382   3.514   8.105   1.263  0.0744 -0.3100  0.0302
    2MOL    C81  383   3.518   0.028   1.379 -0.0550 -0.1534 -0.0850
    2MOL    C82  384   3.638   0.090   1.409  0.1508  0.1714 -0.2312
    2MOL    C83  385   3.743   0.090   1.310  0.8709 -0.2517 -0.3679
    2MOL    N84  386   3.722   0.042   1.187  0.0190  0.0014  0.2398
    2MOL    H85  387   3.697   7.927   0.883 -1.6000  1.9310 -1.0313
    2MOL    H86  388   3.801   8.044   0.965  0.4973 -0.5941 -1.0241
    2MOL    H87  389   3.533   7.956   1.057 -0.6614  0.9091 -0.3568
    2MOL    H88  390   3.434   8.037   1.239 -0.4863  0.1397  0.6482
    2MOL    H89  391   3.438   0.030   1.451 -0.1941 -0.0701 -0.2396
    2MOL    H90  392   3.656   0.143   1.501 -1.3953  0.8020 -0.2878
    2MOL    H91  393   3.834   0.143   1.336 -0.3046  0.7348  1.8524
    2MOL    C92  394   3.547   8.120   0.915  0.3527 -0.2672 -0.0968
    2MOL    C93  395   3.402   0.017   0.921  0.1990  0.1737 -0.2905
    2MOL    C94  396   3.387   0.130   0.824 -0.6386  1.0977  0.3416
    2MOL    C95  397   3.361   0.262   0.868  0.2542 -0.3993 -0.1510
    2MOL    C96  398   3.339   0.359   0.768  0.0783  0.2762 -0.6866
    2MOL    C97  399   3.352   0.321   0.634  0.0111 -0.1848 -0.4510
    2MOL    C98  400   3.388   0.188   0.600  0.1649 -0.7190 -0.6542
    2MOL    N99  401   3.407   0.095   0.692  0.0202 -0.6974  0.2640
    2MOL   H100  402   3.548   8.068   0.819  1.5691  0.4874 -0.5116
    2MOL   H101  403   3.606   0.060   0.917 -1.3021  0.8182 -0.6139
    2MOL   H102  404   3.385   0.061   1.019  1.8855 -1.8886  0.9774
    2MOL   H103  405   3.358   0.281   0.974  0.1689 -0.4429 -0.1454
    2MOL   H104  406   3.315   0.462   0.792 -2.3452 -0.8651  2.0405
    2MOL   H105  407   3.321   0.395   0.561 -1.4195  0.4420  0.7460
    2MOL   H106  408   3.396   0.156   0.497  0.9332  4.2035 -2.2106
    2MOL   C107  409   3.296   8.063   0.895  0.4169  0.4628  0.0440
    2MOL   C108  410   3.192   8.049   1.012 -0.0122  0.1736  0.2334
    2MOL   C109  411   3.104   0.021   1.012  0.3426 -0.0557 -0.3180
    2MOL   C110  412   2.991   0.049   0.933 -0.8974  0.2685  0.4141
    2MOL   C111  413   2.919   0.169   0.956 -0.6748 -0.0680  0.1268
    2MOL   C112  414   2.963   0.261   1.051 -0.2343 -0.7539 -0.0970
    2MOL   C113  415   3.075   0.229   1.126  0.2827 -0.6549  0.0759
    2MOL   N114  416   3.146   0.113   1.102  0.1516 -0.0419  0.1271
    2MOL   H115  417   3.345   7.966   0.890 -1.4641 -0.4465 -1.0710
    2MOL   H116  418   3.239   8.078   0.803 -0.4999  1.3985  0.7561
    2MOL   H117  419   3.244   8.050   1.107  1.7368  0.5061 -0.7037
    2MOL   H118  420   2.958   8.108   0.888  0.0198 -1.0770  2.4448
    2MOL   H119  421   2.828   0.185   0.902 -1.7035  0.2666  1.9136
    2MOL   H120  422   2.905   0.348   1.080  1.1790 -0.2649  1.2994
    2MOL   H121  423   3.096   0.290   1.213 -1.0531  0.2366 -0.2096
    2MOL   C122  424   3.103   7.931   0.986  0.5528  0.0978  0.4038
    2MOL   C123  425   3.164   7.799   1.044 -0.2683  0.4544 -0.2403
    2MOL   C124  426   3.147   7.803   1.193 -0.1940 -0.6622  0.1174
    2MOL   C125  427   3.260   7.790   1.279  0.2302  0.1158  0.2256
    2MOL   C126  428   3.253   7.792   1.418 -0.8114 -0.0065  0.0509
    2MOL   C127  429   3.126   7.804   1.469  0.1364  0.4279  0.0926
    2MOL   C128  430   3.018   7.824   1.387  0.3148  0.3393 -0.0454
    2MOL   N129  431   3.025   7.825   1.255 -0.5414  0.0922 -0.7650
    2MOL   H130  432   3.100   7.918   0.877 -2.2907 -1.5640  0.6287
    2MOL   H131  433   2.997   7.932   1.014  0.5331  0.1981  0.3239
    2MOL   H132  434   3.272   7.797   1.024 -0.2784 -0.5742 -0.2193
    2MOL   H133  435   3.358   7.770   1.238  0.3888 -1.5195  1.3912
    2MOL   H134  436   3.341   7.786   1.481 -0.4008  1.9746 -0.2921
    2MOL   H135  437   3.112   7.807   1.576  2.1053 -0.1417  0.3869
    2MOL   H136  438   2.918   7.843   1.423  0.7673  1.2301  0.7815
    2MOL   C137  439   3.104   7.668   0.989 -0.0545 -0.0529  0.4080
    2MOL   C138  440   3.157   7.618   0.849  0.1261 -0.3231  0.3928
    2MOL   C139  441   3.307   7.607   0.841 -0.2976 -0.1681 -0.6725
    2MOL   C140  442   3.393   7.682   0.754 -0.0342 -0.3521  0.2799
    2MOL   C141  443   3.534   7.676   0.774 -0.2809  0.3490  0.1313
    2MOL   C142  444   3.579   7.583   0.873 -0.0731  0.2200 -0.9260
    2MOL   C143  445   3.490   7.507   0.948 -0.4740  0.6463  0.1585
    2MOL   N144  446   3.360   7.523   0.928 -0.3355 -0.3424  0.4035
    2MOL   H145  447   2.995   7.657   0.987 -0.2233  1.8319 -1.0165
    2MOL   H146  448   3.132   7.593   1.064 -0.9505 -0.0179  0.7802
    2MOL   H147  449   3.117   7.698   0.786 -1.6493 -1.5094 -0.0214
    2MOL   H148  450   3.349   7.755   0.688  0.0405  0.5975  1.2526
    2MOL   H149  451   3.597   7.742   0.716 -1.1635  1.0300 -0.0681
    2MOL   H150  452   3.685   7.563   0.881  0.1146  1.3522 -0.4937
    2MOL   H151  453   3.521   7.433   1.020 -0.2774 -0.4527 -1.0194
    2MOL   C152  454   3.083   7.493   0.803  0.0222  0.3845 -0.4062
    2MOL   C153  455   2.933   7.503   0.771  0.6563  0.4389  0.6511
    2MOL   C154  456   2.890   7.429   0.648  0.2213 -0.6366  0.1699
    2MOL   C155  457   2.844   7.492   0.527  0.1234 -0.3379 -0.6820
    2MOL   C156  458   2.812   7.422   0.410 -0.0642  0.4603 -0.0738
    2MOL   C157  459   2.826   7.282   0.420  0.2594 -0.4859 -0.5032
    2MOL   C158  460   2.881   7.224   0.535  0.0818  0.0362 -0.2555
    2MOL   N159  461   2.913   7.294   0.644 -0.1077  0.3627 -1.0272
    2MOL   H160  462   3.106   7.404   0.862  0.9467 -0.6065 -2.2184
    2MOL   H161  463   3.125   7.450   0.712 -2.0007  0.1252 -1.2333
    2MOL   H162  464   2.904   7.605   0.745  1.6917  0.6698  0.3705
    2MOL   H163  465   2.833   7.599   0.529  0.7263 -0.2769 -0.6722
    2MOL   H164  466   2.769   7.464   0.320 -2.8021 -0.8084  0.6121
    2MOL   H165  467   2.793   7.226   0.334 -0.0536 -0.4277 -0.4242
    2MOL   H166  468   2.894   7.118   0.546 -0.8343 -0.1493 -0.9086
    2MOL   C167  469   2.843   7.456   0.887  0.0668  0.1932  0.6868
    2MOL   C168  470   2.697   7.530   0.897 -0.2737 -0.6837  0.0204
    2MOL   C169  471   2.610   7.523   0.779 -0.0667 -0.4916 -0.1465
    2MOL   C170  472   2.553   7.397   0.734 -0.5664 -0.8119 -0.4253
    2MOL   C171  473   2.463   7.400   0.629 -0.7117  0.1432 -0.1585
    2MOL   C172  474   2.442   7.521   0.561 -0.1684  0.0023  0.3967
    2MOL   C173  475   2.494   7.637   0.612 -0.0542  0.6394 -0.3649
    2MOL   N174  476   2.577   7.644   0.721  0.0693 -0.8492  0.2583
    2MOL   H175  477   2.896   7.466   0.982  2.3967 -0.4363 -0.5151
    2MOL   H176  478   2.811   7.351   0.891 -1.0727  0.5820  2.4679
    2MOL   H177  479   2.728   7.634   0.910  0.9938 -0.7265 -2.3096
    2MOL   H178  480   2.587   7.306   0.781  0.9649  0.2552  0.6094
    2MOL   H179  481   2.433   7.307   0.583  0.0747 -0.6987  0.9909
    2MOL   H180  482   2.385   7.525   0.469  0.6144  0.3637 -0.0693
    2MOL   H181  483   2.466   7.736   0.581 -0.9048  0.2491 -0.8447
    2MOL   C182  484   2.618   7.501   1.020  0.0653 -0.4702 -0.6640
    2MOL   C183  485   2.651   7.592   1.136  0.3348 -0.5151 -0.2772
    2MOL   C184  486   2.597   7.731   1.116 -0.4258 -0.3012  0.9412
    2MOL   C185  487   2.682   7.842   1.119 -0.0876 -0.3732  0.2452
    2MOL   C186  488   2.627   7.968   1.085 -0.1637  0.0835  0.2133
    2MOL   C187  489   2.483   7.978   1.067 -0.1412  0.4453 -0.2581
    2MOL   C188  490   2.410   7.860   1.082  0.3061 -0.2366 -0.4096
    2MOL   N189  491   2.465   7.737   1.101  0.0670  0.2881  0.3536
    2MOL   H190  492   2.632   7.396   1.047  2.0851 -0.3658 -1.2056
    2MOL   H191  493   2.513   7.512   0.994  0.5758  2.4287 -1.6975
    2MOL   H192  494   2.760   7.600   1.136  0.2177  1.4450 -1.3843
    2MOL   H193  495   2.790   7.834   1.126 -0.0676  0.2687  0.6849
    2MOL   H194  496   2.683   8.060   1.076  0.2709 -0.0864  1.1512
    2MOL   H195  497   2.430   8.070   1.048  0.6785  0.8843 -0.4627
    2MOL   H196  498   2.302   7.865   1.072  0.2869  0.4593  0.0617
    2MOL   C197  499   2.604   7.538   1.275  0.7002 -0.3765 -0.3944
    2MOL   C198  500   2.675   7.407   1.324  0.4281 -0.1187 -0.1726
    2MOL   C199  501   2.820   7.393   1.281 -0.6359 -0.1962 -0.2145
    2MOL   C200  502   2.858   7.277   1.215 -0.4575  0.0942  0.2515
    2MOL   C201  503   2.990   7.268   1.172  0.3506 -0.0864  0.1600
    2MOL   C202  504   3.079   7.376   1.199  0.3103 -0.4290  0.2193
    2MOL   C203  505   3.029   7.486   1.270 -0.1465  0.0886 -0.3452
    2MOL   N204  506   2.901   7.494   1.310 -0.0593 -0.3761  0.3408
    2MOL   H205  507   2.496   7.525   1.277  0.4345  1.8393  1.9723
    2MOL   H206  508   2.630   7.616   1.346 -0.3869  0.7292 -1.1802
    2MOL   H207  509   2.613   7.331   1.277 -0.4046 -1.7319  3.3414
    2MOL   H208  510   2.787   7.198   1.194 -0.2523 -0.3467  1.1755
    2MOL   H209  511   3.021   7.182   1.115 -0.0930  0.1336 -0.4290
    2MOL   H210  512   3.184   7.373   1.174  0.0310 -1.0264 -0.8673
    2MOL   H211  513   3.097   7.569   1.283 -0.6987  0.9857 -2.8818
    2MOL   C212  514   2.671   7.384   1.475  0.3647 -0.4322  0.1009
    2MOL   C213  515   2.530   7.356   1.547  0.4041 -0.5655 -0.5745
    2MOL   C214  516   2.440   7.265   1.466  0.4236  0.4631  0.6216
    2MOL   C215  517   2.320   7.316   1.424 -0.1783 -0.0455  0.1831
    2MOL   C216  518   2.246   7.235   1.339 -0.3162  0.2223  0.2898
    2MOL   C217  519   2.285   7.105   1.308 -0.3336 -0.1950 -0.8655
    2MOL   C218  520   2.410   7.062   1.354 -0.8073  0.1989  0.1815
    2MOL   N219  521   2.492   7.139   1.434 -1.0815 -0.1742 -0.3347
    2MOL   H220  522   2.712   7.471   1.525 -2.7797  1.0880  0.1788
    2MOL   H221  523   2.731   7.297   1.499 -2.9005 -3.3844 -1.9032
    2MOL   H222  524   2.483   7.454   1.553  1.3612 -0.1877  0.9000
    2MOL   H223  525   2.295   7.414   1.460  0.9046 -0.0041  0.8549
    2MOL   H224  526   2.162   7.286   1.293 -0.5628 -0.4491 -0.0185
    2MOL   H225  527   2.228   7.040   1.244 -1.7850 -2.7709  2.8491
    2MOL   H226  528   2.457   6.975   1.312  0.7045  0.6634  0.8875
    2MOL   C227  529   2.534   7.296   1.689  0.9255  0.0965  0.4773
    2MOL   C228  530   2.514   7.384   1.824  0.4401  0.2778 -0.8253
    2MOL   C229  531   2.647   7.459   1.847 -0.7958  0.2256  0.4558
    2MOL   C230  532   2.712   7.440   1.969 -0.3208  0.4457 -0.4579
    2MOL   C231  533   2.833   7.517   1.987  0.5326 -0.0909 -0.3181
    2MOL   C232  534   2.876   7.607   1.887 -0.1010  0.4360  0.3373
    2MOL   C233  535   2.801   7.622   1.771  0.5645 -0.3214 -0.1956
    2MOL   N234  536   2.689   7.550   1.751 -0.1915  0.1743 -0.4262
    2MOL   H235  537   2.631   7.249   1.705  0.9076 -0.6894 -1.6404
    2MOL   H236  538   2.444   7.236   1.696 -0.6771  2.4664  0.8569
    2MOL   H237  539   2.506   7.316   1.908 -1.1340  2.0413  0.4909
    2MOL   H238  540   2.678   7.369   2.043  0.9530 -0.7508 -0.9853
    2MOL   H239  541   2.893   7.504   2.076  0.1108 -3.3501 -0.4637
    2MOL   H240  542   2.962   7.669   1.903  0.3734  0.1641 -1.0615
    2MOL   H241  543   2.830   7.690   1.693  0.7360  0.1325  0.2612
    2MOL   C242  544   2.403   7.489   1.820 -0.1750 -0.6081  0.1480
    2MOL   C243  545   2.260   7.447   1.796  0.0586 -0.1173 -0.5137
    2MOL   C244  546   2.217   7.325   1.873  0.1521 -0.3942 -0.3788
    2MOL   C245  547   2.156   7.215   1.804  0.1313  0.2326  0.3152
    2MOL   C246  548   2.117   7.102   1.885  0.2834 -0.3245 -0.2948
    2MOL   C247  549   2.135   7.108   2.020 -0.0763  0.7414 -0.5379
    2MOL   C248  550   2.184   7.225   2.082  0.1193  0.3280 -0.6110
    2MOL   N249  551   2.224   7.330   2.009  0.2605  0.6674 -0.1262
    2MOL   H250  552   2.429   7.567   1.748  0.3389 -1.8850 -1.0672
    2MOL   H251  553   2.398   7.536   1.918 -0.8669  1.0150 -0.6364
    2MOL   H252  554   2.255   7.417   1.691  1.3085 -0.8737 -0.3607
    2MOL   H253  555   2.160   7.216   1.696  1.6560  0.0020  0.3540
    2MOL   H254  556   2.093   7.006   1.843 -0.9805  0.4499 -1.4340
    2MOL   H255  557   2.121   7.023   2.086  0.2459 -0.3182 -1.8176
    2MOL   H256  558   2.191   7.234   2.189 -0.3896 -0.3544 -0.5146
    2MOL   C257  559   2.161   7.556   1.832 -0.1173  0.2285  0.9192
    2MOL   C258  560   2.179   7.697   1.772 -0.7010  0.5163 -0.9777
    2MOL   C259  561   2.196   7.691   1.621 -0.2856  0.1710  0.1479
    2MOL   C260  562   2.307   7.741   1.552  0.0956  0.0622 -0.9133
    2MOL   C261  563   2.318   7.719   1.412  0.3341  0.1537  0.0782
    2MOL   C262  564   2.215   7.659   1.347  0.7748  0.6538  0.0056
    2MOL   C263  565   2.106   7.612   1.424  0.4801  0.5456  0.3611
    2MOL   N264  566   2.094   7.635   1.554 -0.4632  0.1739 -0.1761
    2MOL   H265  567   2.172   7.571   1.940 -1.3187  2.3795  0.7770
    2MOL   H266  568   2.067   7.504   1.810  0.3739 -0.2814  0.0182
    2MOL   H267  569   2.270   7.742   1.810 -0.0190 -2.1242  0.6369
    2MOL   H268  570   2.377   7.792   1.616 -2.3124 -1.7213  3.3551
    2MOL   H269  571   2.408   7.749   1.361  1.6242 -0.2852  2.0270
    2MOL   H270  572   2.220   7.638   1.241 -1.5455  1.0624 -0.2302
    2MOL   H271  573   2.019   7.559   1.387  0.2413 -0.7553  2.6180
    2MOL   C272  574   2.063   7.789   1.803  0.4339  0.0008 -0.2321
    2MOL   C273  575   2.000   7.802   1.944  0.2308  1.0465 -0.5965
    2MOL   C274  576   2.107   7.846   2.044  0.2470 -0.4793  0.0913
    2MOL   C275  577   2.153   7.753   2.138  0.2473 -0.4163  0.4866
    2MOL   C276  578   2.250   7.789   2.223  0.1453 -0.3842  0.3098
    2MOL   C277  579   2.294   7.924   2.223  0.2570  0.0719 -0.2478
    2MOL   C278  580   2.238   8.013   2.129 -0.3519 -0.0377 -0.7754
    2MOL   N279  581   2.141   7.978   2.043 -0.3575  0.1232  0.5317
    2MOL   H280  582   1.975   7.772   1.741  0.1072  1.0432 -0.0614
    2MOL   H281  583   2.099   7.886   1.768  1.4910 -0.0143  0.7898
    2MOL   H282  584   1.976   7.702   1.980  0.3212  0.7783 -1.2756
    2MOL   H283  585   2.115   7.652   2.139  1.0862 -0.8275 -2.4763
    2MOL   H284  586   2.284   7.720   2.298  2.4383 -1.7330 -1.8636
    2MOL   H285  587   2.361   7.959   2.300 -0.6438 -1.4243  1.2616
    2MOL   H286  588   2.272   8.115   2.122  1.2203 -0.2728  2.5604
    2MOL   C287  589   1.876   7.890   1.928  0.4620  0.8784  0.3935
    2MOL   C288  590   1.744   7.813   1.886  0.2104 -0.7636  0.4505
    2MOL   C289  591   1.621   7.906   1.884  0.4808 -0.3715 -0.2253
    2MOL   C290  592   1.544   7.932   1.998  0.2805  0.6211 -0.4551
    2MOL   C291  593   1.427   8.001   1.991 -0.0616  0.3481  0.7433
    2MOL   C292  594   1.377   8.035   1.861 -0.6050  0.0041 -1.1970
    2MOL   C293  595   1.454   7.996   1.751  0.6295 -0.3705 -0.0543
    2MOL   N294  596   1.572   7.934   1.760  0.0825 -0.1370  0.3220
    2MOL   H295  597   1.893   7.964   1.850 -0.6721  0.1272 -0.5898
    2MOL   H296  598   1.858   7.952   2.015 -0.5185  1.2884 -0.1038
    2MOL   H297  599   1.723   7.731   1.954  0.6130 -1.1637  0.0918
    2MOL   H298  600   1.586   7.898   2.092  0.9202  2.4415 -0.0749
    2MOL   H299  601   1.371   8.024   2.080  1.0258  1.9790  1.0439
    2MOL   H300  602   1.281   8.083   1.846 -0.9867 -0.2806  0.2824
    2MOL   H301  603   1.427   8.023   1.650 -0.1926 -1.3677 -0.1092
    2MOL   H302  604   1.771   7.771   1.789  1.9620 -0.7851  0.9320
    3MOL     C1  605   4.264   7.723   2.823  0.3503  0.1023 -0.7886
    3MOL     C2  606   4.223   7.618   2.719  0.1284 -0.0520  0.0267
    3MOL     C3  607   4.070   7.624   2.685 -0.5376 -0.6562 -0.0233
    3MOL     C4  608   3.999   7.505   2.662 -0.2444 -0.0817 -0.0341
    3MOL     C5  609   3.861   7.516   2.638  0.1440  0.7144 -0.1600
    3MOL     C6  610   3.798   7.643   2.648 -0.0817  0.3274 -0.4118
    3MOL     C7  611   3.882   7.757   2.664  0.1001  0.1010  0.3001
    3MOL     N8  612   4.015   7.743   2.678  0.3558 -0.3649  0.4968
    3MOL     H9  613   4.245   7.820   2.778 -0.7485  0.0472 -0.4583
    3MOL    H10  614   4.210   7.722   2.917  0.4892  0.7491 -0.7006
    3MOL    H11  615   4.247   7.521   2.762 -3.7367 -0.5022  1.3011
    3MOL    H12  616   4.049   7.409   2.658 -0.9451 -0.5168  1.2448
    3MOL    H13  617   3.803   7.433   2.601  1.2426 -1.4004  2.6864
    3MOL    H14  618   3.694   7.656   2.625  0.6593 -0.7236 -4.8773
    3MOL    H15  619   3.835   7.853   2.645 -2.2438 -0.6724  1.9110
    3MOL    H16  620   4.372   7.740   2.828  0.2644  0.5777 -0.5496
    3MOL    C17  621   4.305   7.632   2.588 -0.1644  0.6685  0.4462
    3MOL    C18  622   4.458   7.599   2.595  0.3705 -0.4021  0.3642
    3MOL    C19  623   4.497   7.459   2.654 -0.4185  0.2425  0.4492
    3MOL    C20  624   4.558   7.457   2.787 -0.1511 -0.7678 -0.7589
    3MOL    C21  625   4.593   7.338   2.847 -0.1946  0.2087  0.0065
    3MOL    C22  626   4.552   7.224   2.765  0.0673 -0.5659  0.1847
    3MOL    C23  627   4.489   7.240   2.640 -0.1826 -0.4897 -0.2330
    3MOL    N24  628   4.463   7.354   2.580  0.9422  0.2964  0.1154
    3MOL    H25  629   4.281   7.733   2.555 -0.5114 -0.2443 -2.2394
    3MOL    H26  630   4.255   7.565   2.517  0.4975  0.6861 -0.0390
    3MOL    H27  631   4.501   7.665   2.670 -0.4836  1.4627 -0.7428
    3MOL    H28  632   4.588   7.545   2.841  0.2881 -1.8227  0.7473
    3MOL    H29  633   4.624   7.333   2.950  3.5932  0.1195 -1.0562
    3MOL    H30  634   4.580   7.128   2.805  1.4611 -0.6160 -0.8916
    3MOL    H31  635   4.465   7.152   2.583 -0.6854 -1.3358  1.2775
    3MOL    C32  636   4.528   7.635   2.459  0.2273 -0.1170  0.4271
    3MOL    C33  637   4.684   7.610   2.458  0.3183 -0.4309  0.0781
    3MOL    C34  638   4.745   7.644   2.317  0.5739  0.6268  0.2647
    3MOL    C35  639   4.715   7.765   2.253 -0.5054 -0.3124  0.4328
    3MOL    C36  640   4.798   7.805   2.148 -0.3295  0.2711 -0.3118
    3MOL    C37  641   4.899   7.718   2.108 -0.0853 -0.0075  0.1783
    3MOL    C38  642   4.918   7.593   2.173  0.8452 -0.3741  0.1430
    3MOL    N39  643   4.845   7.556   2.275 -0.1509 -0.0755  0.3837
    3MOL    H40  644   4.498   7.736   2.435  0.3595 -0.6375 -1.9839
    3MOL    H41  645   4.485   7.575   2.379  0.6571  1.2331 -0.8397
    3MOL    H42  646   4.700   7.506   2.485 -2.9967 -0.7405  1.0245
    3MOL    H43  647   4.654   7.842   2.297 -0.4576  0.0617 -0.1513
    3MOL    H44  648   4.779   7.899   2.099  2.4656  0.2182 -1.5991
    3MOL    H45  649   4.963   7.751   2.028 -0.4939  0.2277 -0.0497
    3MOL    H46  650   5.000   7.529   2.144  2.1272  0.5799  1.5872
    3MOL    C47  651   4.758   7.693   2.565  0.2183 -0.5514 -0.5616
    3MOL    C48  652   4.904   7.653   2.598 -0.6385 -0.5079 -0.1209
    3MOL    C49  653   4.989   7.778   2.631 -0.4373  0.3508 -0.0724
    3MOL    C50  654   5.104   7.809   2.549  0.4358  0.4843 -0.2574
    3MOL    C51  655   5.162   7.934   2.575  0.4885 -0.3451  0.2007
    3MOL    C52  656   5.119   8.004   2.688  0.0213 -0.0928 -0.0992
    3MOL    C53  657   5.011   7.965   2.759 -0.3551 -0.2236  0.0204
    3MOL    N54  658   4.946   7.856   2.733  0.4572  0.3171  0.1207
    3MOL    H55  659   4.694   7.689   2.654  1.4525  0.0673  0.3742
    3MOL    H56  660   4.763   7.798   2.534  2.3254 -0.8051 -1.1629
    3MOL    H57  661   4.947   7.631   2.501  1.0505 -0.1766  0.5266
    3MOL    H58  662   5.142   7.756   2.464  3.9453  1.2726  0.7498
    3MOL    H59  663   5.247   7.969   2.518 -0.0994  1.8819  0.6439
    3MOL    H60  664   5.170   8.093   2.720 -1.2583  0.5450  0.2075
    3MOL    H61  665   4.991   8.030   2.843  1.4112 -0.0121  0.2846
    3MOL    C62  666   4.932   7.536   2.699  0.4926  0.7689 -0.5781
    3MOL    C63  667   5.071   7.479   2.693  0.4198 -0.1298 -0.3366
    3MOL    C64  668   5.181   7.568   2.750  0.3997  0.2413  0.8180
    3MOL    C65  669   5.296   7.596   2.671  0.3590 -0.7410 -0.3728
    3MOL    C66  670   5.403   7.668   2.720  0.1705  0.8786  0.3577
    3MOL    C67  671   5.387   7.716   2.850 -0.3585 -0.0161 -0.0470
    3MOL    C68  672   5.275   7.685   2.927 -0.5542 -0.4859 -0.3918
    3MOL    N69  673   5.174   7.612   2.874 -0.3192  0.3130 -0.0511
    3MOL    H70  674   4.863   7.452   2.689  0.1475  0.9469  0.2792
    3MOL    H71  675   4.909   7.569   2.800 -0.3295  1.4167 -0.9565
    3MOL    H72  676   5.097   7.473   2.587  1.2300  0.3727 -0.1755
    3MOL    H73  677   5.314   7.558   2.571  3.0443  0.2203 -0.2725
    3MOL    H74  678   5.497   7.685   2.669 -0.5552 -2.0943 -2.0968
    3MOL    H75  679   5.463   7.777   2.896 -1.1328  1.4575 -0.6950
    3MOL    H76  680   5.269   7.716   3.030  0.3811 -0.2496 -0.4036
    3MOL    C77  681   5.097   7.340   2.762  0.4316  0.7405 -0.5607
    3MOL    C78  682   5.003   7.222   2.726 -0.0498  0.1110  0.3664
    3MOL    C79  683   4.990   7.209   2.571  0.1888 -0.0024  0.5532
    3MOL    C80  684   4.868   7.227   2.502 -0.0101 -0.6416 -0.9853
    3MOL    C81  685   4.867   7.200   2.364 -0.0782 -0.4092  1.2556
    3MOL    C82  686   4.980   7.146   2.301 -0.5305  0.6167  0.0791
    3MOL    C83  687   5.096   7.124   2.378 -0.1362  0.5140 -0.4464
    3MOL    N84  688   5.100   7.152   2.514  0.7138 -0.5753 -0.1479
    3MOL    H85  689   5.087   7.342   2.870 -0.8876 -0.9638 -0.6259
    3MOL    H86  690   5.190   7.292   2.731 -1.2984 -2.2067 -1.4023
    3MOL    H87  691   4.899   7.246   2.747  0.2097  0.1307  1.6122
    3MOL    H88  692   4.780   7.271   2.544  0.6308 -0.1249 -0.1767
    3MOL    H89  693   4.783   7.205   2.296  0.5719 -1.1409  0.3598
    3MOL    H90  694   4.982   7.125   2.195 -1.1900 -1.2462  0.4017
    3MOL    H91  695   5.187   7.080   2.340  0.7514  0.5728  1.5315
    3MOL    C92  696   5.034   7.085   2.801  0.3111 -0.0773 -0.0452
    3MOL    C93  697   4.980   6.952   2.740  0.4133  0.5637 -0.3345
    3MOL    C94  698   5.039   6.821   2.806  0.0810  0.3306 -0.2574
    3MOL    C95  699   5.122   6.741   2.731 -0.9424  0.3803 -0.4334
    3MOL    C96  700   5.160   6.614   2.782 -0.0342 -0.3390 -0.1298
    3MOL    C97  701   5.130   6.587   2.914  0.3470 -0.0208 -0.6870
    3MOL    C98  702   5.045   6.677   2.980 -0.3254 -0.1227  0.1347
    3MOL    N99  703   5.002   6.796   2.929  0.3290 -0.5672 -0.1773
    3MOL   H100  704   5.018   7.097   2.908  0.4558  0.0317 -0.0354
    3MOL   H101  705   5.139   7.059   2.786  0.2835  0.5131 -1.3442
    3MOL   H102  706   5.002   6.954   2.633  1.3809  1.2650 -0.1265
    3MOL   H103  707   5.148   6.763   2.628  0.8301 -2.2522 -0.5819
    3MOL   H104  708   5.227   6.555   2.720 -1.8519 -0.1129 -2.3660
    3MOL   H105  709   5.161   6.504   2.976  1.1691 -0.4846 -1.7077
    3MOL   H106  710   5.020   6.666   3.085  0.6841  2.3896  0.6793
    3MOL   C107  711   4.829   6.945   2.738 -0.2396 -0.0784 -0.4730
    3MOL   C108  712   4.772   6.824   2.661  0.6408  1.1392  0.2260
    3MOL   C109  713   4.628   6.789   2.702 -0.1907 -0.7777  0.9077
    3MOL   C110  714   4.595   6.669   2.763  0.0524 -0.1737  0.2830
    3MOL   C111  715   4.473   6.648   2.819  0.2520 -0.0718 -0.4369
    3MOL   C112  716   4.376   6.747   2.797  0.1060  0.0435  0.0800
    3MOL   C113  717   4.410   6.858   2.716 -0.4362 -0.3453 -0.2013
    3MOL   N114  718   4.537   6.887   2.674 -0.5561  0.4031 -0.2115
    3MOL   H115  719   4.794   7.032   2.683  1.0302 -0.5452 -2.0567
    3MOL   H116  720   4.792   6.944   2.841  0.6509  0.2559 -0.1394
    3MOL   H117  721   4.818   6.733   2.699 -2.5150  0.2586  2.1413
    3MOL   H118  722   4.674   6.595   2.768  0.9137  0.7338  0.5298
    3MOL   H119  723   4.456   6.556   2.872 -3.0687  1.6430  1.5691
    3MOL   H120  724   4.274   6.729   2.828  0.0879  0.5227  0.3080
    3MOL   H121  725   4.341   6.933   2.679 -0.3033  0.0203  0.2842
    3MOL   C122  726   4.793   6.836   2.503 -0.0123  1.0328 -0.5164
    3MOL   C123  727   4.722   6.730   2.415  0.2437 -0.0815 -0.8582
    3MOL   C124  728   4.719   6.761   2.266  0.1634 -0.1711  0.7887
    3MOL   C125  729   4.606   6.759   2.180  0.1769  0.0891  0.2608
    3MOL   C126  730   4.635   6.775   2.042  0.2354  0.3938 -0.5225
    3MOL   C127  731   4.761   6.807   1.996 -0.2720 -0.1920 -0.3850
    3MOL   C128  732   4.859   6.821   2.094 -0.6995 -0.4986  0.0099
    3MOL   N129  733   4.846   6.783   2.222  0.3165  0.1570 -0.2235
    3MOL   H130  734   4.898   6.826   2.475  0.4451 -1.0480  1.8056
    3MOL   H131  735   4.761   6.934   2.468 -2.3079  1.0734  1.5607
    3MOL   H132  736   4.618   6.741   2.448  1.2801 -0.0935  2.5771
    3MOL   H133  737   4.511   6.720   2.212 -1.3723  1.9381 -1.8892
    3MOL   H134  738   4.567   6.768   1.959 -2.0205  2.3687  1.0722
    3MOL   H135  739   4.788   6.824   1.892  1.0796  1.4969  0.2090
    3MOL   H136  740   4.960   6.841   2.062 -0.3491  0.0906  1.4386
    3MOL   C137  741   4.774   6.585   2.436  0.1027  0.4393  0.2746
    3MOL   C138  742   4.671   6.473   2.404  0.0999 -0.3198  0.3604
    3MOL   C139  743   4.734   6.334   2.396  0.4887 -0.2366  0.3272
    3MOL   C140  744   4.735   6.257   2.275 -0.4603  0.0930 -0.2511
    3MOL   C141  745   4.807   6.139   2.275  0.8866  0.4864 -0.5969
    3MOL   C142  746   4.868   6.103   2.398  0.1541  0.4193 -0.7267
    3MOL   C143  747   4.861   6.180   2.514  0.3485 -0.1488 -0.0474
    3MOL   N144  748   4.799   6.297   2.509 -0.4328  0.7037 -0.6267
    3MOL   H145  749   4.786   6.562   2.542  1.7263 -1.3061 -0.2712
    3MOL   H146  750   4.872   6.571   2.390 -0.9174  0.8239 -2.0328
    3MOL   H147  751   4.636   6.486   2.301  0.0740  1.6444  0.5969
    3MOL   H148  752   4.674   6.284   2.190  2.7273  1.2238 -2.2779
    3MOL   H149  753   4.813   6.065   2.197 -0.8112  0.5530 -0.7922
    3MOL   H150  754   4.922   6.009   2.404 -0.6225 -0.0939 -1.7512
    3MOL   H151  755   4.913   6.156   2.606  0.1409  2.0336  0.6837
    3MOL   C152  756   4.551   6.473   2.499 -0.8919 -0.0524  0.4212
    3MOL   C153  757   4.448   6.368   2.458 -0.3887 -0.0800  0.2158
    3MOL   C154  758   4.433   6.257   2.561  0.4557  0.2171 -0.0730
    3MOL   C155  759   4.430   6.123   2.523 -0.2087 -0.9877  0.2251
    3MOL   C156  760   4.390   6.023   2.615  1.0102 -0.1548  0.0159
    3MOL   C157  761   4.353   6.057   2.745  0.0913  0.1201  0.6153
    3MOL   C158  762   4.365   6.196   2.776  0.0741  0.6761  0.2431
    3MOL   N159  763   4.391   6.298   2.682 -0.3307 -0.0982  0.0057
    3MOL   H160  764   4.501   6.570   2.496  0.4082  0.6128 -0.6223
    3MOL   H161  765   4.585   6.458   2.602  0.7569  2.0376  0.2173
    3MOL   H162  766   4.479   6.321   2.365  1.6967 -0.6307  1.1412
    3MOL   H163  767   4.479   6.091   2.432  3.2126 -0.5018  1.8260
    3MOL   H164  768   4.391   5.918   2.592 -1.1547 -0.1682 -0.1253
    3MOL   H165  769   4.324   5.983   2.818 -0.9278 -1.0191 -0.8976
    3MOL   H166  770   4.345   6.229   2.877  0.0549 -0.9593  0.7885
    3MOL   C167  771   4.307   6.427   2.421  0.2712 -0.1936 -0.2848
    3MOL   C168  772   4.293   6.504   2.289  0.5200 -0.1532 -0.1529
    3MOL   C169  773   4.343   6.419   2.167  0.2326  0.0438 -0.5090
    3MOL   C170  774   4.299   6.288   2.151 -0.3130 -0.3359  0.1861
    3MOL   C171  775   4.375   6.214   2.061  0.3206  0.0070  0.3616
    3MOL   C172  776   4.481   6.273   1.988 -0.2168 -0.7049 -0.5829
    3MOL   C173  777   4.510   6.406   2.008  0.0697 -0.2719 -0.0395
    3MOL   N174  778   4.445   6.475   2.102 -0.1321  0.0695  0.1964
    3MOL   H175  779   4.265   6.490   2.500  0.2814 -0.0722 -0.3763
    3MOL   H176  780   4.239   6.342   2.411 -0.3392  0.2614 -0.0597
    3MOL   H177  781   4.351   6.596   2.293 -1.1267  0.8952  0.2769
    3MOL   H178  782   4.211   6.257   2.205 -1.6898  0.5034 -1.5316
    3MOL   H179  783   4.346   6.111   2.051 -0.6945  0.3434 -0.3467
    3MOL   H180  784   4.544   6.207   1.930 -0.3299 -0.6342 -0.7824
    3MOL   H181  785   4.594   6.451   1.956  0.9151 -2.9324 -1.0730
    3MOL   C182  786   4.149   6.551   2.240 -0.0219  0.8133 -0.2141
    3MOL   C183  787   4.093   6.682   2.290 -0.0558  0.8176  0.4562
    3MOL   C184  788   4.192   6.800   2.264 -0.3457 -1.1228 -0.5000
    3MOL   C185  789   4.230   6.878   2.372  0.2296 -0.0988  0.3571
    3MOL   C186  790   4.311   6.995   2.349 -0.2230 -0.4273  0.2530
    3MOL   C187  791   4.346   7.017   2.214 -0.2414 -0.0035 -0.0314
    3MOL   C188  792   4.298   6.935   2.110 -0.4169 -0.2271 -1.2093
    3MOL   N189  793   4.230   6.822   2.134 -0.0823  0.2484  0.2866
    3MOL   H190  794   4.076   6.472   2.255  0.5944  0.5208  1.3494
    3MOL   H191  795   4.163   6.571   2.134  0.2230 -0.8630 -0.5059
    3MOL   H192  796   4.086   6.676   2.398  3.4685  2.6508  0.8700
    3MOL   H193  797   4.201   6.845   2.471  1.5981 -0.7718  0.5557
    3MOL   H194  798   4.329   7.069   2.425  1.6476 -1.2027  0.5975
    3MOL   H195  799   4.398   7.110   2.195 -1.1466  0.1453 -1.8963
    3MOL   H196  800   4.329   6.947   2.007  3.7988  1.3532  0.1349
    3MOL   C197  801   3.957   6.722   2.232  0.5370  0.4895 -0.3064
    3MOL   C198  802   3.832   6.625   2.252  0.0744 -0.2467  0.4382
    3MOL   C199  803   3.824   6.576   2.395  0.1011  0.1554  0.5432
    3MOL   C200  804   3.821   6.434   2.420  0.1417  0.2290 -0.6596
    3MOL   C201  805   3.799   6.393   2.547  0.1402 -0.0853 -0.2223
    3MOL   C202  806   3.777   6.485   2.649 -0.0076  0.0465 -0.3334
    3MOL   C203  807   3.785   6.623   2.612 -0.2013  0.5811 -0.6759
    3MOL   N204  808   3.801   6.665   2.489 -0.6738  0.0527  0.5520
    3MOL   H205  809   3.964   6.749   2.127 -2.3775  0.5957 -0.5114
    3MOL   H206  810   3.939   6.804   2.301 -3.6616 -0.3921 -0.2131
    3MOL   H207  811   3.852   6.535   2.193  0.6242  0.2849 -0.1926
    3MOL   H208  812   3.828   6.359   2.342 -3.4100 -1.5640  0.6044
    3MOL   H209  813   3.819   6.288   2.565 -1.3783 -0.2506  0.6756
    3MOL   H210  814   3.756   6.449   2.748  1.9702  1.0792  0.4933
    3MOL   H211  815   3.773   6.695   2.692 -2.2021 -1.1774  0.6692
    3MOL   C212  816   3.689   6.666   2.197 -0.1154 -0.5586  0.0111
    3MOL   C213  817   3.671   6.660   2.042 -0.1929  0.2711 -0.3463
    3MOL   C214  818   3.723   6.529   1.976  0.5606 -0.5430 -0.2041
    3MOL   C215  819   3.835   6.525   1.890  0.2282  0.4357  0.2934
    3MOL   C216  820   3.884   6.401   1.855  0.2135 -0.0798  0.3090
    3MOL   C217  821   3.819   6.287   1.904  0.1548  0.8202  0.0261
    3MOL   C218  822   3.703   6.298   1.987  0.4281  0.3842  0.0417
    3MOL   N219  823   3.660   6.418   2.031 -0.4632 -0.4920  0.1637
    3MOL   H220  824   3.660   6.760   2.244  0.7847  0.9970 -2.4779
    3MOL   H221  825   3.614   6.596   2.235  0.3187 -1.5042 -0.8428
    3MOL   H222  826   3.741   6.726   1.990  2.1050 -3.1308 -1.7098
    3MOL   H223  827   3.883   6.614   1.854  0.9381  0.0783  0.3388
    3MOL   H224  828   3.964   6.391   1.783 -1.8604 -1.0513 -1.9310
    3MOL   H225  829   3.855   6.187   1.891 -1.9932  0.0184 -0.0278
    3MOL   H226  830   3.656   6.209   2.027  0.2980 -0.7940 -2.6004
    3MOL   C227  831   3.529   6.698   1.996 -0.3564 -0.0033  0.1660
    3MOL   C228  832   3.510   6.706   1.839 -0.4260  0.9207 -0.2360
    3MOL   C229  833   3.480   6.571   1.780 -0.2003  0.2898 -0.5849
    3MOL   C230  834   3.393   6.480   1.844 -0.3961  0.5346 -0.3837
    3MOL   C231  835   3.373   6.358   1.777 -0.1719 -0.8277 -0.3544
    3MOL   C232  836   3.427   6.332   1.653  0.0548  0.3927  0.0080
    3MOL   C233  837   3.506   6.430   1.590 -0.0405 -0.1851 -0.6208
    3MOL   N234  838   3.530   6.551   1.654  0.7493 -0.1543 -0.1252
    3MOL   H235  839   3.506   6.793   2.044 -1.1931  1.6657 -3.3646
    3MOL   H236  840   3.466   6.620   2.041  0.9641 -0.8402  0.5860
    3MOL   H237  841   3.597   6.746   1.788  0.8451 -1.5506 -0.1015
    3MOL   H238  842   3.345   6.493   1.940 -1.2707  1.5841 -0.9538
    3MOL   H239  843   3.316   6.285   1.831  1.8052 -2.1511 -0.0011
    3MOL   H240  844   3.406   6.237   1.605  0.9134  0.6513 -0.8964
    3MOL   H241  845   3.542   6.412   1.489 -0.3546  1.7271 -1.1075
    3MOL   C242  846   3.399   6.801   1.795  0.5223  0.1317  0.3692
    3MOL   C243  847   3.410   6.948   1.845  0.1777  0.8005  0.5527
    3MOL   C244  848   3.548   7.001   1.820  0.5470  0.0254 -0.4287
    3MOL   C245  849   3.617   7.046   1.936 -0.0150 -0.6381  0.2372
    3MOL   C246  850   3.747   7.099   1.922 -0.5419  0.6358 -0.5024
    3MOL   C247  851   3.801   7.111   1.793  0.6180  0.2912  0.0692
    3MOL   C248  852   3.722   7.074   1.681  0.2046 -0.0067 -0.0926
    3MOL   N249  853   3.598   7.015   1.698 -0.1159 -0.4346  0.4452
    3MOL   H250  854   3.299   6.778   1.831  0.2983 -1.0199 -0.9459
    3MOL   H251  855   3.387   6.801   1.687 -0.8198  0.9502  0.5090
    3MOL   H252  856   3.388   6.934   1.950  0.8488 -2.0713  0.3759
    3MOL   H253  857   3.568   7.055   2.032 -0.3858  2.0116 -0.1486
    3MOL   H254  858   3.806   7.133   2.006 -2.3446  0.7610  0.7529
    3MOL   H255  859   3.901   7.149   1.783  0.0915  1.5898 -0.4093
    3MOL   H256  860   3.759   7.093   1.581 -0.3956  0.5382 -0.2193
    3MOL   C257  861   3.309   7.048   1.787  0.6686 -0.3423  0.1039
    3MOL   C258  862   3.309   7.198   1.833  0.2176  0.3694 -0.7705
    3MOL   C259  863   3.225   7.283   1.746 -0.3818 -0.4664 -0.0145
    3MOL   C260  864   3.287   7.400   1.693 -0.1707  0.0913 -0.1266
    3MOL   C261  865   3.201   7.495   1.632 -0.9495 -0.0985 -0.4778
    3MOL   C262  866   3.067   7.465   1.623  0.1141 -0.0010  0.3106
    3MOL   C263  867   3.019   7.339   1.662 -0.6038 -0.6059 -0.6379
    3MOL   N264  868   3.097   7.253   1.740  1.1719 -0.6204 -0.3168
    3MOL   H265  869   3.207   7.011   1.800  0.7969 -1.7513 -2.5644
    3MOL   H266  870   3.326   7.058   1.680  0.8368  1.1838  0.2571
    3MOL   H267  871   3.411   7.232   1.819 -0.0719  2.0086  0.7861
    3MOL   H268  872   3.393   7.419   1.703 -0.4349  0.8973  1.4102
    3MOL   H269  873   3.242   7.589   1.598 -2.8931  1.4112  1.2134
    3MOL   H270  874   3.008   7.524   1.554 -1.3971 -2.5185 -0.5889
    3MOL   H271  875   2.919   7.305   1.639 -0.8198 -0.0560 -0.5281
    3MOL   C272  876   3.272   7.214   1.986 -0.2364  0.2529  0.4255
    3MOL   C273  877   3.307   7.339   2.061 -0.4074  0.2959 -0.0839
    3MOL   C274  878   3.233   7.344   2.195 -0.6910  0.9928  0.5726
    3MOL   C275  879   3.140   7.447   2.219  0.1362  0.9035  0.3208
    3MOL   C276  880   3.061   7.447   2.338  0.3775  0.3538 -0.4514
    3MOL   C277  881   3.083   7.345   2.423 -0.2183  0.3577 -0.5040
    3MOL   C278  882   3.184   7.249   2.394  0.2279  0.6279  0.2115
    3MOL   N279  883   3.256   7.245   2.282 -0.0566  0.2252 -0.3651
    3MOL   H280  884   3.308   7.129   2.044 -1.4978  0.0096  0.8647
    3MOL   H281  885   3.166   7.191   1.991  0.4177 -3.8001 -2.1843
    3MOL   H282  886   3.270   7.417   1.994  1.0567 -0.6186 -1.9970
    3MOL   H283  887   3.117   7.515   2.138 -0.9787 -0.1985 -0.3017
    3MOL   H284  888   2.978   7.515   2.346 -0.8990 -1.0207 -1.6714
    3MOL   H285  889   3.033   7.342   2.518  1.5155  0.6502  0.4348
    3MOL   H286  890   3.210   7.174   2.468  1.6789 -1.6142 -2.4355
    3MOL   C287  891   3.460   7.363   2.081  0.1479 -0.4981  0.2139
    3MOL   C288  892   3.495   7.489   2.162 -0.2170 -0.2123 -0.0135
    3MOL   C289  893   3.647   7.515   2.158  0.7613  0.0020  0.8672
    3MOL   C290  894   3.721   7.510   2.281 -0.3802  0.3256  0.7979
    3MOL   C291  895   3.859   7.552   2.280  0.2168  0.0407  0.6146
    3MOL   C292  896   3.904   7.594   2.154  0.4748 -0.6085 -0.8164
    3MOL   C293  897   3.827   7.584   2.038 -0.2576  0.0934  0.3482
    3MOL   N294  898   3.699   7.557   2.041  0.0633 -0.1307  0.2095
    3MOL   H295  899   3.514   7.384   1.989 -0.2747 -1.3912 -0.2377
    3MOL   H296  900   3.502   7.282   2.140  1.5578  0.0263 -0.0505
    3MOL   H297  901   3.468   7.466   2.265 -2.6959 -0.8861 -0.7902
    3MOL   H298  902   3.678   7.471   2.373 -3.3441 -1.2887 -1.1733
    3MOL   H299  903   3.926   7.538   2.364  0.1387 -1.8069  0.3803
    3MOL   H300  904   4.005   7.632   2.149 -0.1474  1.2953  0.5104
    3MOL   H301  905   3.866   7.626   1.946 -0.1199 -0.7158  0.0345
    3MOL   H302  906   3.438   7.576   2.129 -0.7477 -0.1912  0.9331
    4MOL     C1  907   3.722   3.763   1.992 -0.1502 -0.1917  0.1012
    4MOL     C2  908   3.666   3.663   2.101  0.0491 -0.0091 -0.4571
    4MOL     C3  909   3.645   3.732   2.229 -0.8856  0.2785 -0.3178
    4MOL     C4  910   3.715   3.688   2.343  0.6429 -0.5038  0.3835
    4MOL     C5  911   3.700   3.760   2.463  0.4926  0.2203  0.2973
    4MOL     C6  912   3.605   3.864   2.473 -0.5626 -0.1828 -0.0950
    4MOL     C7  913   3.527   3.892   2.361  0.0448  0.5377 -1.0328
    4MOL     N8  914   3.551   3.830   2.243 -0.2611 -0.1036 -0.2803
    4MOL     H9  915   3.651   3.844   1.977 -0.4101 -0.0017  2.1114
    4MOL    H10  916   3.824   3.795   2.012 -0.7149  1.5587  0.2199
    4MOL    H11  917   3.745   3.590   2.119  0.6347  1.2966  2.4965
    4MOL    H12  918   3.777   3.600   2.338  1.4913  0.0804  0.4480
    4MOL    H13  919   3.758   3.727   2.548  0.0216 -1.3886  0.0024
    4MOL    H14  920   3.598   3.930   2.559  2.2631  1.1166 -0.7757
    4MOL    H15  921   3.446   3.963   2.360  1.5927  2.3818 -3.2508
    4MOL    H16  922   3.736   3.705   1.901  0.4605 -0.4318  0.3412
    4MOL    C17  923   3.536   3.582   2.063  0.3784 -0.4757  0.1212
    4MOL    C18  924   3.549   3.494   1.939 -0.0930 -0.3451  0.5936
    4MOL    C19  925   3.662   3.398   1.932 -0.5405  0.5600  0.4298
    4MOL    C20  926   3.776   3.426   1.855 -0.1323  0.3443  0.6677
    4MOL    C21  927   3.877   3.326   1.850  0.1098  0.4916  0.7418
    4MOL    C22  928   3.866   3.211   1.925  0.3098  0.0835  0.5588
    4MOL    C23  929   3.753   3.201   2.007  0.2661 -0.2222  0.3804
    4MOL    N24  930   3.649   3.287   2.007 -0.1007 -0.5430  0.4986
    4MOL    H25  931   3.454   3.653   2.059 -0.3424 -1.3078  0.1467
    4MOL    H26  932   3.513   3.518   2.148  0.5690  0.5908  0.9887
    4MOL    H27  933   3.556   3.572   1.863 -1.8755 -0.9817 -0.2690
    4MOL    H28  934   3.787   3.519   1.803  1.7854 -0.1019  0.2265
    4MOL    H29  935   3.971   3.341   1.799  0.5743  0.0057  1.4552
    4MOL    H30  936   3.928   3.123   1.935  0.1388  0.0692  1.5799
    4MOL    H31  937   3.726   3.108   2.055 -0.3367  0.6704  1.8232
    4MOL    C32  938   3.409   3.434   1.904  0.6884 -0.0795  0.6013
    4MOL    C33  939   3.400   3.379   1.755 -0.1300  0.3476 -0.0946
    4MOL    C34  940   3.371   3.233   1.744 -0.6795  0.4914  0.0594
    4MOL    C35  941   3.474   3.134   1.748 -0.0393  0.1873  0.4585
    4MOL    C36  942   3.437   2.995   1.750  0.1399  0.5145  0.4478
    4MOL    C37  943   3.300   2.960   1.748  0.4578 -0.4185  0.2329
    4MOL    C38  944   3.205   3.067   1.750 -0.3137 -0.0528 -0.2258
    4MOL    N39  945   3.240   3.196   1.747 -0.0189  0.1095  0.0231
    4MOL    H40  946   3.337   3.512   1.927  0.1654 -0.0496 -1.0572
    4MOL    H41  947   3.382   3.354   1.972  0.6811 -1.2639 -0.7610
    4MOL    H42  948   3.501   3.389   1.714 -0.3392 -2.4187 -1.4143
    4MOL    H43  949   3.577   3.163   1.760  0.0014  0.5914 -0.8386
    4MOL    H44  950   3.517   2.923   1.752 -0.7678 -0.6420 -2.3066
    4MOL    H45  951   3.275   2.856   1.757 -0.3117 -0.3201 -0.6663
    4MOL    H46  952   3.099   3.047   1.745 -0.7883  2.7757 -2.1983
    4MOL    C47  953   3.314   3.465   1.659  0.0654  0.5420 -0.1962
    4MOL    C48  954   3.372   3.596   1.617 -0.4099  1.2803 -1.0305
    4MOL    C49  955   3.493   3.585   1.528 -0.0221 -0.5004 -0.0891
    4MOL    C50  956   3.601   3.668   1.553  0.5980  0.1499  0.4896
    4MOL    C51  957   3.728   3.652   1.487  0.4549  0.2526  0.2523
    4MOL    C52  958   3.733   3.556   1.389 -0.4751 -0.0345 -0.1234
    4MOL    C53  959   3.622   3.472   1.373  0.3245 -0.1769 -0.3449
    4MOL    N54  960   3.496   3.489   1.433 -0.3420  0.1731  0.6534
    4MOL    H55  961   3.217   3.472   1.709  0.1974  4.3912 -0.3609
    4MOL    H56  962   3.302   3.400   1.572  0.0836  1.0408 -0.5733
    4MOL    H57  963   3.406   3.643   1.710  3.6248 -2.2324 -0.5802
    4MOL    H58  964   3.590   3.747   1.625  1.4053 -1.0331  1.9576
    4MOL    H59  965   3.814   3.716   1.495  0.0256  0.6069  2.4588
    4MOL    H60  966   3.825   3.535   1.336  0.1074 -0.4761  1.0348
    4MOL    H61  967   3.631   3.388   1.306  0.0999  0.1698 -0.8140
    4MOL    C62  968   3.261   3.694   1.562 -0.2650  0.2331 -0.0156
    4MOL    C63  969   3.183   3.782   1.660 -0.3240 -0.4140 -0.4141
    4MOL    C64  970   3.285   3.869   1.751 -0.5362 -0.2701  0.4468
    4MOL    C65  971   3.371   3.966   1.694  0.2412 -0.4363 -0.2792
    4MOL    C66  972   3.457   4.044   1.769  0.4174  0.1000  0.2311
    4MOL    C67  973   3.451   4.022   1.909 -0.4971  0.5241  1.3759
    4MOL    C68  974   3.364   3.918   1.950  0.4181 -0.0064 -1.2293
    4MOL    N69  975   3.279   3.841   1.878  0.5413 -0.0697 -0.3099
    4MOL    H70  976   3.188   3.641   1.501  2.3845 -0.6759 -2.5019
    4MOL    H71  977   3.312   3.760   1.492 -0.6745  2.1909  1.4912
    4MOL    H72  978   3.139   3.709   1.727 -1.6708  0.6253 -0.1419
    4MOL    H73  979   3.380   3.984   1.588 -0.5052  3.3017  0.2305
    4MOL    H74  980   3.526   4.113   1.723 -0.3805 -0.2636 -1.5532
    4MOL    H75  981   3.513   4.075   1.979  1.9712 -1.5498  0.8644
    4MOL    H76  982   3.365   3.890   2.055  0.7024  1.1593 -0.9154
    4MOL    C77  983   3.069   3.859   1.595  0.2313 -0.2768 -0.3443
    4MOL    C78  984   2.979   3.927   1.700 -0.2142 -0.5971  0.4236
    4MOL    C79  985   3.011   4.075   1.707 -0.5709  0.3107  0.1757
    4MOL    C80  986   3.060   4.130   1.830 -0.3268  1.1283 -0.2261
    4MOL    C81  987   3.083   4.267   1.838 -0.3658 -0.2250 -0.4165
    4MOL    C82  988   3.059   4.345   1.721 -0.4519 -0.4014 -0.8466
    4MOL    C83  989   3.009   4.288   1.602 -0.8856  0.1782 -0.1164
    4MOL    N84  990   2.987   4.150   1.595  0.8828  0.0107  0.7020
    4MOL    H85  991   3.017   3.791   1.528 -1.3528 -1.3734  1.9382
    4MOL    H86  992   3.102   3.928   1.517  1.3138 -0.5070 -0.0987
    4MOL    H87  993   3.005   3.886   1.798  2.5485 -0.0036 -0.0208
    4MOL    H88  994   3.071   4.063   1.914 -2.6542 -0.2552 -0.9726
    4MOL    H89  995   3.116   4.306   1.933  1.1650 -2.5815  0.0604
    4MOL    H90  996   3.065   4.452   1.720 -0.3082 -0.4013 -0.2139
    4MOL    H91  997   2.984   4.354   1.521  0.1486  0.7817  0.0517
    4MOL    C92  998   2.825   3.917   1.684  0.3743 -0.2951  0.2919
    4MOL    C93  999   2.771   3.780   1.709 -0.2120  0.7284 -0.0646
    4MOL    C94 1000   2.812   3.721   1.844  0.4893 -0.2644  0.0069
    4MOL    C95 1001   2.879   3.599   1.851  0.5820 -0.0431 -0.4299
    4MOL    C96 1002   2.954   3.569   1.969 -0.2485 -0.0577 -0.1462
    4MOL    C97 1003   2.947   3.662   2.076 -1.5659 -0.4614 -0.3185
    4MOL    C98 1004   2.878   3.783   2.056 -0.3464 -0.9052  0.4166
    4MOL    N99 1005   2.810   3.808   1.942  0.5431  0.9568 -0.0464
    4MOL   H100 1006   2.783   3.955   1.591 -3.5237 -3.5265  0.6258
    4MOL   H101 1007   2.783   3.984   1.758 -0.8273 -0.2337 -0.4249
    4MOL   H102 1008   2.801   3.724   1.620 -0.3048  0.7273 -0.0956
    4MOL   H103 1009   2.886   3.532   1.767  2.8328  0.8152 -0.9779
    4MOL   H104 1010   3.004   3.474   1.986  0.3249  0.2373 -0.1667
    4MOL   H105 1011   2.991   3.644   2.173 -3.3278 -0.1878  0.5606
    4MOL   H106 1012   2.893   3.851   2.139 -0.0286 -2.3805  1.5784
    4MOL   C107 1013   2.620   3.784   1.699 -0.5518  0.6833 -0.2166
    4MOL   C108 1014   2.545   3.652   1.698 -0.1435  0.1351  0.2781
    4MOL   C109 1015   2.402   3.671   1.741 -0.2641  0.1975  0.5141
    4MOL   C110 1016   2.343   3.614   1.857 -0.1134 -0.1371 -0.3545
    4MOL   C111 1017   2.210   3.659   1.897 -0.3509  0.6132  0.2846
    4MOL   C112 1018   2.136   3.733   1.806  0.9084  0.3465  0.0663
    4MOL   C113 1019   2.201   3.779   1.692 -0.7001 -0.1579 -0.0120
    4MOL   N114 1020   2.329   3.750   1.658  0.2098  0.3426 -0.0047
    4MOL   H115 1021   2.591   3.840   1.610  1.8796  1.4467 -0.5736
    4MOL   H116 1022   2.585   3.837   1.788 -1.7433 -0.5162  0.0362
    4MOL   H117 1023   2.594   3.585   1.769 -0.3141 -1.6909 -1.2556
    4MOL   H118 1024   2.409   3.556   1.920 -2.3492 -0.3800  1.8372
    4MOL   H119 1025   2.165   3.644   1.994 -2.5051  1.9072 -0.4816
    4MOL   H120 1026   2.036   3.763   1.833  0.6648  0.9220 -1.4282
    4MOL   H121 1027   2.143   3.841   1.625 -2.5744 -0.8411  0.9599
    4MOL   C122 1028   2.544   3.578   1.560 -0.0502  0.2364 -0.2855
    4MOL   C123 1029   2.532   3.418   1.563  0.3827 -0.4806  0.3653
    4MOL   C124 1030   2.651   3.361   1.640 -1.1270 -0.1007 -0.7585
    4MOL   C125 1031   2.637   3.305   1.772  0.0154 -0.2279  0.2626
    4MOL   C126 1032   2.749   3.241   1.824  0.4733  1.0364 -0.1175
    4MOL   C127 1033   2.875   3.251   1.761 -0.1518 -0.8448 -0.6988
    4MOL   C128 1034   2.876   3.319   1.637  0.3324 -0.2057  0.0212
    4MOL   N129 1035   2.771   3.376   1.575 -0.0301  0.7393 -0.7416
    4MOL   H130 1036   2.638   3.604   1.510  0.0157  1.1193  0.2785
    4MOL   H131 1037   2.476   3.626   1.490  0.4309  2.5136  0.7570
    4MOL   H132 1038   2.549   3.391   1.458 -0.5444  1.9900 -0.4663
    4MOL   H133 1039   2.542   3.288   1.822 -1.6131  0.0014 -2.6188
    4MOL   H134 1040   2.739   3.186   1.916  1.2940  1.1910  0.0724
    4MOL   H135 1041   2.961   3.216   1.817 -1.0929  0.6729  1.8094
    4MOL   H136 1042   2.968   3.329   1.580 -0.4049 -1.9706 -1.5452
    4MOL   C137 1043   2.393   3.370   1.607  0.3213  0.2995  0.4360
    4MOL   C138 1044   2.258   3.414   1.536  0.0993 -0.2359 -0.3360
    4MOL   C139 1045   2.265   3.377   1.386 -0.2660  0.2545 -0.3140
    4MOL   C140 1046   2.186   3.281   1.324  0.1375 -0.2368 -0.2627
    4MOL   C141 1047   2.191   3.269   1.184 -0.0414  0.2741 -0.0397
    4MOL   C142 1048   2.270   3.365   1.114 -0.0735 -0.1628 -0.2996
    4MOL   C143 1049   2.344   3.461   1.185  0.1688 -0.1411 -0.2456
    4MOL   N144 1050   2.345   3.468   1.321  0.7462 -0.1806  0.4824
    4MOL   H145 1051   2.379   3.396   1.712  0.5152 -0.0056  0.5376
    4MOL   H146 1052   2.400   3.262   1.604  0.0036  0.2971 -0.6545
    4MOL   H147 1053   2.248   3.523   1.535 -0.9328 -0.3083  0.5673
    4MOL   H148 1054   2.134   3.210   1.387  1.3638 -1.9000 -1.0905
    4MOL   H149 1055   2.132   3.200   1.126  0.6891 -0.2774 -0.1397
    4MOL   H150 1056   2.277   3.356   1.007 -0.9687 -0.2961 -0.3574
    4MOL   H151 1057   2.414   3.526   1.135  0.4642  2.4436  3.3360
    4MOL   C152 1058   2.146   3.353   1.616 -0.1725  0.0284 -0.5445
    4MOL   C153 1059   2.000   3.389   1.588 -0.3009  0.2029 -0.3346
    4MOL   C154 1060   1.912   3.279   1.656  0.6135  0.7130 -0.6936
    4MOL   C155 1061   1.927   3.249   1.794 -0.1780  0.5430 -0.7756
    4MOL   C156 1062   1.843   3.150   1.847  0.9868  0.4173  0.1461
    4MOL   C157 1063   1.752   3.083   1.763  0.1092 -0.1738  0.0744
    4MOL   C158 1064   1.738   3.124   1.631  0.1519 -0.2299  0.7534
    4MOL   N159 1065   1.823   3.216   1.576 -0.3797 -0.1183  0.3972
    4MOL   H160 1066   2.164   3.385   1.719 -2.0856 -0.8729  0.0873
    4MOL   H161 1067   2.173   3.248   1.617  1.7544  0.4318 -3.4038
    4MOL   H162 1068   1.969   3.384   1.484 -0.9226 -3.9415 -0.0439
    4MOL   H163 1069   1.998   3.311   1.846  1.2652 -1.4867 -0.2767
    4MOL   H164 1070   1.838   3.124   1.952 -0.6586  0.0095 -0.0218
    4MOL   H165 1071   1.686   3.005   1.797 -0.7328 -0.0652 -1.2893
    4MOL   H166 1072   1.673   3.068   1.566 -1.3985  1.3803  0.8722
    4MOL   C167 1073   1.960   3.527   1.648  0.2857  0.3252  0.2758
    4MOL   C168 1074   1.811   3.575   1.618 -0.4100  0.3672 -1.0813
    4MOL   C169 1075   1.750   3.632   1.748  0.2735  0.1581  0.3296
    4MOL   C170 1076   1.652   3.557   1.811 -0.1426 -0.4557 -1.4393
    4MOL   C171 1077   1.597   3.600   1.932  0.1882 -0.4205 -0.0456
    4MOL   C172 1078   1.635   3.731   1.975  0.2691  0.0921 -0.2368
    4MOL   C173 1079   1.732   3.804   1.902 -0.3628  0.0421  0.2667
    4MOL   N174 1080   1.795   3.753   1.787 -0.3948 -0.0056  0.1572
    4MOL   H175 1081   2.026   3.601   1.603 -1.6762  1.8295 -0.1979
    4MOL   H176 1082   1.987   3.516   1.753  2.3162  1.5800 -0.0825
    4MOL   H177 1083   1.753   3.485   1.598 -0.3723 -0.5725  2.6475
    4MOL   H178 1084   1.610   3.466   1.769  0.5116 -1.0719 -0.7733
    4MOL   H179 1085   1.512   3.546   1.972  1.3125 -3.6264 -1.7978
    4MOL   H180 1086   1.589   3.780   2.060 -2.6372  0.2199 -1.8434
    4MOL   H181 1087   1.763   3.901   1.938  1.4303 -0.5880  0.4682
    4MOL   C182 1088   1.787   3.671   1.498 -0.5487  0.1837  0.0826
    4MOL   C183 1089   1.780   3.604   1.358 -0.2880 -0.2163 -0.4623
    4MOL   C184 1090   1.681   3.486   1.356 -0.0383 -0.1768  0.5504
    4MOL   C185 1091   1.716   3.355   1.311 -0.4508 -0.5197 -0.1459
    4MOL   C186 1092   1.616   3.258   1.316  0.1949 -0.1948  0.2934
    4MOL   C187 1093   1.489   3.286   1.372  0.3212  0.1395  0.1900
    4MOL   C188 1094   1.465   3.423   1.405 -0.5212  0.5579  0.4855
    4MOL   N189 1095   1.558   3.520   1.405  0.3082  0.1649 -0.4894
    4MOL   H190 1096   1.877   3.733   1.504  0.5371 -1.2060 -1.1911
    4MOL   H191 1097   1.699   3.732   1.515 -1.9937 -2.0587  0.7768
    4MOL   H192 1098   1.881   3.573   1.331  0.5659  2.3541 -0.2884
    4MOL   H193 1099   1.814   3.338   1.269 -0.5204 -3.1402  0.6495
    4MOL   H194 1100   1.630   3.161   1.270  0.5249  0.1122 -0.2545
    4MOL   H195 1101   1.417   3.207   1.381 -1.3560  1.4455 -1.2843
    4MOL   H196 1102   1.372   3.450   1.451 -1.8815 -2.1604 -0.5680
    4MOL   C197 1103   1.745   3.710   1.253  0.2401 -0.6068 -0.0790
    4MOL   C198 1104   1.837   3.841   1.245 -0.0990  0.1824 -0.2188
    4MOL   C199 1105   1.978   3.814   1.210 -0.6263  0.7067  0.3428
    4MOL   C200 1106   2.081   3.879   1.282 -0.1760  0.8674  0.3089
    4MOL   C201 1107   2.214   3.854   1.254 -0.1720  0.2608 -0.2533
    4MOL   C202 1108   2.235   3.775   1.135  0.3667 -0.7731 -0.4520
    4MOL   C203 1109   2.131   3.733   1.055 -0.1821 -0.4320  0.4459
    4MOL   N204 1110   2.000   3.755   1.088  0.4888  0.2123  0.4730
    4MOL   H205 1111   1.641   3.739   1.268  0.4636 -0.4279  1.1447
    4MOL   H206 1112   1.740   3.670   1.152 -0.8802 -0.5926 -0.0343
    4MOL   H207 1113   1.834   3.895   1.340  0.7539 -0.0355 -0.0693
    4MOL   H208 1114   2.056   3.942   1.366  1.7423  2.1461 -0.0553
    4MOL   H209 1115   2.297   3.895   1.309  0.5950 -1.4927 -0.0454
    4MOL   H210 1116   2.338   3.768   1.106  1.1470  3.7484  0.7346
    4MOL   H211 1117   2.155   3.676   0.967  0.6567 -1.7585  1.5029
    4MOL   C212 1118   1.785   3.953   1.154 -0.2132  0.3779  0.3081
    4MOL   C213 1119   1.672   4.048   1.208  0.1032 -0.1298 -0.2928
    4MOL   C214 1120   1.700   4.091   1.354 -0.7807  1.0835 -0.0984
    4MOL   C215 1121   1.639   4.025   1.466 -0.0995 -0.4224  0.2340
    4MOL   C216 1122   1.691   4.055   1.594 -0.5146  0.5136  0.6735
    4MOL   C217 1123   1.795   4.149   1.607 -0.4385 -0.1055 -0.2081
    4MOL   C218 1124   1.841   4.215   1.495 -0.1292  1.1391  0.1087
    4MOL   N219 1125   1.802   4.179   1.372 -0.7415  0.5496  0.8185
    4MOL   H220 1126   1.745   3.900   1.068  1.0708  0.3070 -0.2537
    4MOL   H221 1127   1.863   4.023   1.125  0.1865  0.4381  1.5049
    4MOL   H222 1128   1.578   3.994   1.216  0.1117 -0.2680 -1.0575
    4MOL   H223 1129   1.563   3.949   1.461 -0.4662 -0.1155  1.0449
    4MOL   H224 1130   1.653   3.994   1.675 -1.1477  0.1877  0.1353
    4MOL   H225 1131   1.837   4.174   1.704 -0.5087  0.8854 -0.4351
    4MOL   H226 1132   1.910   4.298   1.491 -0.7819  1.6377 -1.0316
    4MOL   C227 1133   1.636   4.176   1.126  0.5665  0.3868  0.3266
    4MOL   C228 1134   1.623   4.145   0.973  0.0484  0.6050 -0.2927
    4MOL   C229 1135   1.491   4.074   0.938  0.0097 -0.8772 -0.1875
    4MOL   C230 1136   1.497   3.942   0.893  0.0833 -0.5757 -0.4685
    4MOL   C231 1137   1.377   3.879   0.849  0.0357 -0.0605 -0.7986
    4MOL   C232 1138   1.254   3.951   0.860  0.2410  0.0550 -0.0477
    4MOL   C233 1139   1.259   4.080   0.915  0.0692 -0.9728 -0.1897
    4MOL   N234 1140   1.375   4.138   0.954  0.5355  0.1859  0.8363
    4MOL   H235 1141   1.718   4.247   1.140  0.9387 -0.0850  0.5361
    4MOL   H236 1142   1.542   4.217   1.163 -0.2155 -2.4971  1.6841
    4MOL   H237 1143   1.697   4.070   0.944 -0.6651 -1.9876  4.2162
    4MOL   H238 1144   1.590   3.887   0.889  0.1408 -0.7691  2.2930
    4MOL   H239 1145   1.375   3.777   0.814 -0.1576 -0.4869  0.4108
    4MOL   H240 1146   1.160   3.908   0.829 -0.9387  2.5523 -0.0905
    4MOL   H241 1147   1.175   4.148   0.918  0.7271 -0.0712 -1.5149
    4MOL   C242 1148   1.644   4.271   0.885 -0.7361  0.1014  0.6962
    4MOL   C243 1149   1.796   4.320   0.866  0.4053  0.7235  0.4004
    4MOL   C244 1150   1.891   4.206   0.834  0.0819 -0.6304  0.1815
    4MOL   C245 1151   1.994   4.172   0.921  0.2095  0.1401 -0.6084
    4MOL   C246 1152   2.072   4.061   0.890  0.2009  0.9959 -0.1475
    4MOL   C247 1153   2.046   3.986   0.777  0.0523 -0.3896 -0.0453
    4MOL   C248 1154   1.949   4.029   0.694 -1.2317  0.1927  0.5355
    4MOL   N249 1155   1.869   4.132   0.717  0.2622 -0.0342  0.0853
    4MOL   H250 1156   1.583   4.357   0.912 -1.3703  0.0746 -0.6552
    4MOL   H251 1157   1.615   4.253   0.782 -0.4222  1.1606  0.4221
    4MOL   H252 1158   1.831   4.356   0.962  1.0420  1.3443 -0.0551
    4MOL   H253 1159   2.020   4.232   1.007  0.4906 -1.5212  0.4896
    4MOL   H254 1160   2.158   4.024   0.944 -0.2299 -0.2183 -0.2737
    4MOL   H255 1161   2.097   3.891   0.770 -0.3023 -0.4976 -1.3542
    4MOL   H256 1162   1.923   3.976   0.603 -3.3172  0.4764  0.9268
    4MOL   C257 1163   1.807   4.435   0.764  0.0706  0.1291 -0.0107
    4MOL   C258 1164   1.766   4.575   0.823  0.2260 -0.1135  0.3796
    4MOL   C259 1165   1.864   4.628   0.931 -0.0943 -0.0713 -0.3514
    4MOL   C260 1166   1.818   4.713   1.038 -0.9678 -0.3205  0.7807
    4MOL   C261 1167   1.911   4.774   1.126 -0.3272  0.2729  0.0385
    4MOL   C262 1168   2.049   4.750   1.106 -0.0420 -0.0580  0.1862
    4MOL   C263 1169   2.083   4.667   0.998 -0.1716  0.7868 -0.5795
    4MOL   N264 1170   1.997   4.612   0.913 -0.2983 -0.0585 -0.0433
    4MOL   H265 1171   1.752   4.415   0.672 -1.7419  3.3720  0.2822
    4MOL   H266 1172   1.913   4.433   0.739  0.1287 -0.3373  0.2713
    4MOL   H267 1173   1.670   4.555   0.870  0.3992 -0.5002  0.5717
    4MOL   H268 1174   1.711   4.727   1.051 -0.8843  0.1414  0.9763
    4MOL   H269 1175   1.878   4.839   1.206  1.4472  0.7659  0.3738
    4MOL   H270 1176   2.125   4.790   1.171  0.1340  1.1545 -0.7571
    4MOL   H271 1177   2.187   4.640   0.993 -1.0607 -2.8451 -0.8573
    4MOL   C272 1178   1.749   4.686   0.714  0.6999 -0.1767  0.3656
    4MOL   C273 1179   1.623   4.685   0.619  0.4107 -0.6965 -0.3862
    4MOL   C274 1180   1.510   4.602   0.679  0.4043 -0.3196 -0.6799
    4MOL   C275 1181   1.486   4.472   0.628  0.3866 -0.1249  0.1806
    4MOL   C276 1182   1.367   4.408   0.672  0.8744  0.3623  0.2458
    4MOL   C277 1183   1.277   4.469   0.764 -0.6613  0.0636 -0.2911
    4MOL   C278 1184   1.327   4.587   0.820  0.1062  0.6958 -0.2761
    4MOL   N279 1185   1.443   4.644   0.786  0.3844 -1.0216 -0.1434
    4MOL   H280 1186   1.840   4.708   0.657 -0.5516  1.5365 -1.0094
    4MOL   H281 1187   1.739   4.773   0.779  1.6279  1.0961 -1.1605
    4MOL   H282 1188   1.646   4.637   0.524  2.0775 -1.2229  0.2710
    4MOL   H283 1189   1.546   4.446   0.543  0.5205 -1.3849  0.6534
    4MOL   H284 1190   1.332   4.318   0.624 -3.2336  0.7948  2.1647
    4MOL   H285 1191   1.187   4.426   0.804  0.6666 -1.4837  1.0874
    4MOL   H286 1192   1.266   4.629   0.899  1.4443 -1.0416  1.7362
    4MOL   C287 1193   1.573   4.832   0.590 -1.0359 -0.0567 -0.1880
    4MOL   C288 1194   1.456   4.849   0.496 -0.0837 -0.6913  0.6253
    4MOL   C289 1195   1.497   4.859   0.355  0.2645  0.7309 -0.5080
    4MOL   C290 1196   1.491   4.981   0.291  0.1844 -0.6905  0.4246
    4MOL   C291 1197   1.532   4.983   0.156  0.2608  0.8486 -0.5574
    4MOL   C292 1198   1.570   4.866   0.085  0.6745 -1.0481 -0.2991
    4MOL   C293 1199   1.562   4.748   0.160  0.6973 -0.2967  0.1323
    4MOL   N294 1200   1.528   4.745   0.294  0.0636 -0.5784  0.4124
    4MOL   H295 1201   1.655   4.887   0.544 -1.3733  2.5390  2.1785
    4MOL   H296 1202   1.545   4.886   0.680  1.9229  0.7443  0.2961
    4MOL   H297 1203   1.409   4.944   0.521  0.2952  0.3172 -2.3664
    4MOL   H298 1204   1.472   5.075   0.341 -0.3080 -0.3192 -0.4528
    4MOL   H299 1205   1.538   5.081   0.113 -3.3851  1.1651 -0.4726
    4MOL   H300 1206   1.616   4.871   8.139  0.3998 -0.5891 -0.4016
    4MOL   H301 1207   1.595   4.654   0.118 -2.3848 -0.9709 -0.9072
    4MOL   H302 1208   1.370   4.783   0.512  0.1037 -1.2655 -0.6915
    5MOL     C1 1209   6.986   6.460   6.734 -0.0049  0.1466  0.4690
    5MOL     C2 1210   6.937   6.319   6.705  0.5271  0.0278 -0.2347
    5MOL     C3 1211   7.005   6.211   6.787  0.0694 -0.5208  0.7966
    5MOL     C4 1212   7.121   6.150   6.738 -0.5606 -0.8580 -0.2579
    5MOL     C5 1213   7.189   6.044   6.809  0.5920 -0.0909  0.4046
    5MOL     C6 1214   7.122   6.006   6.928  0.5136 -0.4735  0.0994
    5MOL     C7 1215   7.017   6.085   6.976  0.4332  0.2810  0.2011
    5MOL     N8 1216   6.957   6.184   6.910  0.8227  0.3721  0.1871
    5MOL     H9 1217   7.091   6.462   6.763 -0.1291 -2.7274  1.2365
    5MOL    H10 1218   6.956   6.526   6.652  1.0933 -1.0494 -0.9310
    5MOL    H11 1219   6.979   6.302   6.606  3.2501  0.3361  0.8263
    5MOL    H12 1220   7.166   6.185   6.647 -1.5088  0.0951 -0.3654
    5MOL    H13 1221   7.281   5.998   6.775 -0.1429  0.0717 -1.8912
    5MOL    H14 1222   7.171   5.928   6.984  0.8805 -1.1839 -1.1945
    5MOL    H15 1223   6.974   6.056   7.071  0.6996 -0.7872 -0.0000
    5MOL    H16 1224   6.933   6.488   6.825 -4.3398 -1.2576 -1.4518
    5MOL    C17 1225   6.781   6.311   6.692 -0.2412  0.4407  0.5689
    5MOL    C18 1226   6.729   6.168   6.649  0.6464 -0.2565 -0.3558
    5MOL    C19 1227   6.576   6.173   6.650 -0.3622  0.3664 -0.2875
    5MOL    C20 1228   6.505   6.103   6.753 -0.6285  0.7843 -0.2190
    5MOL    C21 1229   6.366   6.113   6.745 -0.6128 -1.0574  0.2463
    5MOL    C22 1230   6.295   6.169   6.637 -0.4817 -0.5124  0.0536
    5MOL    C23 1231   6.376   6.235   6.544 -0.0435  0.0733  0.1067
    5MOL    N24 1232   6.514   6.239   6.552 -0.0506  0.3317  0.1532
    5MOL    H25 1233   6.755   6.376   6.608  0.2127 -0.2538 -0.1247
    5MOL    H26 1234   6.735   6.350   6.782  0.5614  0.3417  1.0256
    5MOL    H27 1235   6.755   6.107   6.735 -2.7054  1.7727  2.2192
    5MOL    H28 1236   6.556   6.048   6.830 -0.8336  0.4161 -0.3477
    5MOL    H29 1237   6.309   6.056   6.817 -1.8730 -1.3336 -0.9354
    5MOL    H30 1238   6.188   6.157   6.624 -0.4258  0.4310 -1.3789
    5MOL    H31 1239   6.334   6.283   6.456  1.2246  0.3682 -0.3442
    5MOL    C32 1240   6.788   6.115   6.521 -0.4930 -0.0401  0.2639
    5MOL    C33 1241   6.737   5.978   6.487  0.2000 -0.0021 -0.3150
    5MOL    C34 1242   6.808   5.939   6.363  0.3851  0.6742 -0.3196
    5MOL    C35 1243   6.739   5.943   6.243  0.2162  0.0894  0.5794
    5MOL    C36 1244   6.802   5.895   6.130 -0.4942 -0.4234  0.4326
    5MOL    C37 1245   6.943   5.879   6.137  0.2579 -0.2120 -0.5250
    5MOL    C38 1246   7.005   5.889   6.261 -0.1514 -0.8584 -0.3793
    5MOL    N39 1247   6.938   5.918   6.371 -0.5573 -0.1507 -0.5422
    5MOL    H40 1248   6.897   6.122   6.514 -0.6491  0.8193 -1.7947
    5MOL    H41 1249   6.759   6.178   6.437 -1.1029 -0.4263  0.1829
    5MOL    H42 1250   6.629   5.981   6.471 -0.0279 -0.8864  0.9546
    5MOL    H43 1251   6.632   5.957   6.248  0.3324  2.3469 -2.0771
    5MOL    H44 1252   6.737   5.884   6.044 -0.1369  0.8307  0.0024
    5MOL    H45 1253   7.012   5.855   6.057  0.5637  0.5390 -0.4923
    5MOL    H46 1254   7.110   5.871   6.278 -0.0466  0.1386  0.1065
    5MOL    C47 1255   6.746   5.869   6.598 -0.5526 -0.0401  0.1375
    5MOL    C48 1256   6.688   5.737   6.571  0.2419  0.2595 -0.1075
    5MOL    C49 1257   6.539   5.749   6.527  0.1867 -0.7043 -0.1982
    5MOL    C50 1258   6.450   5.764   6.635 -0.4198 -0.4381  0.2230
    5MOL    C51 1259   6.314   5.747   6.613  0.4941 -0.2134  0.3332
    5MOL    C52 1260   6.267   5.745   6.475 -0.3142  1.0225  0.5458
    5MOL    C53 1261   6.368   5.755   6.373  0.5049 -0.1148 -0.2619
    5MOL    N54 1262   6.502   5.760   6.396  0.0618 -0.0072  0.1603
    5MOL    H55 1263   6.709   5.896   6.697 -2.4779 -1.6212 -0.1211
    5MOL    H56 1264   6.849   5.853   6.629 -0.2288 -1.3358 -1.4995
    5MOL    H57 1265   6.688   5.694   6.671  4.0949  0.0999 -0.0937
    5MOL    H58 1266   6.492   5.769   6.735 -0.4701  1.4116  0.1812
    5MOL    H59 1267   6.250   5.738   6.700  0.9854 -0.4726  0.6668
    5MOL    H60 1268   6.159   5.744   6.468 -0.2360 -0.7698 -0.8245
    5MOL    H61 1269   6.340   5.757   6.269 -0.4139 -2.1756 -0.0838
    5MOL    C62 1270   6.753   5.634   6.476 -0.5412  0.0873 -0.0603
    5MOL    C63 1271   6.896   5.589   6.499  0.0433 -0.2479 -0.2198
    5MOL    C64 1272   6.948   5.611   6.643 -0.4102  0.7148  0.0993
    5MOL    C65 1273   7.057   5.695   6.664 -0.2939 -0.6978  0.4130
    5MOL    C66 1274   7.104   5.704   6.794  0.2080 -0.2123  0.4881
    5MOL    C67 1275   7.048   5.639   6.898  0.2968  0.7109  0.5036
    5MOL    C68 1276   6.935   5.560   6.868 -0.5266  0.3399  0.1237
    5MOL    N69 1277   6.886   5.544   6.746  0.4710 -1.1045 -0.0018
    5MOL    H70 1278   6.740   5.662   6.371  0.1740 -0.6111 -0.3463
    5MOL    H71 1279   6.687   5.548   6.485  1.6208 -1.7415 -1.1316
    5MOL    H72 1280   6.951   5.659   6.437 -1.5338  1.7712  0.5754
    5MOL    H73 1281   7.103   5.744   6.579  1.1921 -2.7186  0.0317
    5MOL    H74 1282   7.193   5.759   6.820 -0.1940 -0.2594  1.9892
    5MOL    H75 1283   7.098   5.642   6.994 -0.5797  2.0839  0.9362
    5MOL    H76 1284   6.884   5.485   6.927 -2.0816 -0.1077 -1.7085
    5MOL    C77 1285   6.925   5.444   6.448 -0.0674  0.3167 -0.3945
    5MOL    C78 1286   7.070   5.398   6.451 -0.3079  1.0023  0.2055
    5MOL    C79 1287   7.066   5.244   6.433 -0.7645  0.2773  0.1555
    5MOL    C80 1288   7.115   5.163   6.534 -0.5567 -0.2775  0.3202
    5MOL    C81 1289   7.094   5.021   6.522  0.3039 -0.7260  0.6783
    5MOL    C82 1290   7.033   4.973   6.401 -0.0002 -0.8576 -0.2004
    5MOL    C83 1291   6.984   5.069   6.307  0.0273  0.3619 -0.1836
    5MOL    N84 1292   7.008   5.200   6.318 -0.3364 -0.7175 -1.5041
    5MOL    H85 1293   6.875   5.430   6.353 -1.2812  1.8640 -0.0133
    5MOL    H86 1294   6.869   5.379   6.515  0.9511 -0.1588  0.0096
    5MOL    H87 1295   7.103   5.408   6.554 -1.5084 -2.2487  0.9896
    5MOL    H88 1296   7.153   5.189   6.632 -1.8564 -1.2251  1.1004
    5MOL    H89 1297   7.140   4.959   6.598  0.5954 -0.7466  0.4875
    5MOL    H90 1298   7.006   4.868   6.399  2.5820 -1.6105  1.7558
    5MOL    H91 1299   6.915   5.030   6.234  1.3579 -0.4087 -1.0491
    5MOL    C92 1300   7.163   5.469   6.347  0.7207  0.0013 -0.2796
    5MOL    C93 1301   7.315   5.447   6.357  0.3578 -0.0718 -0.4959
    5MOL    C94 1302   7.383   5.472   6.227 -0.4020 -0.3168 -0.0097
    5MOL    C95 1303   7.469   5.373   6.174  0.5200 -0.6940  0.4705
    5MOL    C96 1304   7.528   5.390   6.047 -0.0053 -1.0085 -0.5799
    5MOL    C97 1305   7.488   5.507   5.973 -0.5830  0.2927  0.5111
    5MOL    C98 1306   7.401   5.602   6.032  0.2258  0.7163  0.7988
    5MOL    N99 1307   7.352   5.586   6.159 -0.1511 -0.3933 -0.0368
    5MOL   H100 1308   7.130   5.572   6.358  2.5362  0.4739  1.1418
    5MOL   H101 1309   7.126   5.446   6.247  1.6334 -0.0192 -0.6254
    5MOL   H102 1310   7.326   5.339   6.372  2.0333 -0.0029 -1.1322
    5MOL   H103 1311   7.504   5.277   6.211  3.1965 -0.2335 -0.7031
    5MOL   H104 1312   7.593   5.320   5.996  0.0904 -0.4459 -1.2355
    5MOL   H105 1313   7.530   5.525   5.875  1.7395  2.2687  1.8035
    5MOL   H106 1314   7.362   5.686   5.975 -1.0770 -0.6948 -0.4535
    5MOL   C107 1315   7.383   5.532   6.472  0.1037  0.3708 -0.6474
    5MOL   C108 1316   7.395   5.459   6.605 -0.6354  0.4871 -0.2435
    5MOL   C109 1317   7.477   5.334   6.593 -0.2983 -0.1262  0.1531
    5MOL   C110 1318   7.614   5.344   6.563 -0.0680 -0.3987  0.3886
    5MOL   C111 1319   7.692   5.226   6.539 -0.6085 -0.3547 -0.3071
    5MOL   C112 1320   7.625   5.106   6.551  0.5426  0.1370 -0.6165
    5MOL   C113 1321   7.490   5.105   6.593 -0.3909 -0.0934 -0.5543
    5MOL   N114 1322   7.414   5.215   6.613  0.0641 -0.0857  0.4739
    5MOL   H115 1323   7.329   5.627   6.477 -3.0008 -1.1949 -2.5518
    5MOL   H116 1324   7.483   5.559   6.439  1.3428 -0.7289  2.0479
    5MOL   H117 1325   7.294   5.426   6.631  0.2517 -1.7315  0.4816
    5MOL   H118 1326   7.650   5.444   6.545 -0.3248  0.0921  2.5082
    5MOL   H119 1327   7.794   5.230   6.504 -0.4501 -0.3121  0.1586
    5MOL   H120 1328   7.664   5.005   6.548  0.3713 -0.2319  4.3750
    5MOL   H121 1329   7.430   5.016   6.606  2.1018 -1.8108 -0.3874
    5MOL   C122 1330   7.447   5.555   6.711 -0.5718  0.3978 -0.0154
    5MOL   C123 1331   7.480   5.493   6.849 -0.2911 -0.3849  0.4001
    5MOL   C124 1332   7.525   5.606   6.946 -0.6002  0.0677  0.4392
    5MOL   C125 1333   7.645   5.604   7.014 -0.2022 -0.4448 -0.2384
    5MOL   C126 1334   7.669   5.704   7.110 -0.1023 -0.0121 -0.9328
    5MOL   C127 1335   7.578   5.803   7.134  0.2357 -0.8845  0.6136
    5MOL   C128 1336   7.462   5.808   7.054  0.0941  0.5952 -0.2008
    5MOL   N129 1337   7.438   5.709   6.966 -0.2332 -0.3538 -0.5316
    5MOL   H130 1338   7.363   5.622   6.730 -0.9130 -0.6514  2.3599
    5MOL   H131 1339   7.534   5.611   6.676  0.1517  0.3255  1.6458
    5MOL   H132 1340   7.564   5.424   6.837 -0.5828 -1.0977  2.2995
    5MOL   H133 1341   7.715   5.521   7.007  2.6174  1.7923  0.3864
    5MOL   H134 1342   7.756   5.688   7.172 -0.8294 -1.1246 -0.1773
    5MOL   H135 1343   7.607   5.885   7.196  2.4137 -0.4045 -0.9727
    5MOL   H136 1344   7.393   5.890   7.068  1.3893  1.3825  1.7169
    5MOL   C137 1345   7.354   5.410   6.893 -0.2852  0.0729 -0.5701
    5MOL   C138 1346   7.353   5.371   7.047 -0.6858 -0.3864 -0.5544
    5MOL   C139 1347   7.209   5.348   7.089  0.0244 -0.1411 -0.3702
    5MOL   C140 1348   7.147   5.426   7.181 -0.1149 -0.1356 -0.2837
    5MOL   C141 1349   7.010   5.394   7.204  0.2070 -0.4345  0.3744
    5MOL   C142 1350   6.941   5.297   7.130 -0.3031  0.2820 -0.3088
    5MOL   C143 1351   7.018   5.228   7.036 -0.6645 -0.5278  0.3621
    5MOL   N144 1352   7.146   5.247   7.021  0.1501  0.3295  0.3748
    5MOL   H145 1353   7.346   5.316   6.837 -1.1119  0.3404 -0.9059
    5MOL   H146 1354   7.264   5.466   6.871 -0.4607  0.3279  0.7533
    5MOL   H147 1355   7.382   5.459   7.106 -0.0023 -1.1138  0.2031
    5MOL   H148 1356   7.190   5.506   7.238 -0.1986 -0.9879  1.0015
    5MOL   H149 1357   6.962   5.458   7.277 -0.5132  2.8503 -2.8217
    5MOL   H150 1358   6.835   5.292   7.148 -0.1678  1.4874  0.8523
    5MOL   H151 1359   6.962   5.157   6.976 -0.3670  0.8880 -1.6177
    5MOL   C152 1360   7.441   5.240   7.083  0.5501 -0.1062 -0.8133
    5MOL   C153 1361   7.548   5.260   7.187  0.1615 -0.6827  1.2681
    5MOL   C154 1362   7.506   5.316   7.323 -0.1487  0.1563 -0.0820
    5MOL   C155 1363   7.554   5.444   7.367  0.4573 -0.1839  0.3470
    5MOL   C156 1364   7.505   5.487   7.489 -0.2433  0.2068 -0.4536
    5MOL   C157 1365   7.428   5.409   7.571  0.4918 -0.3032 -0.6829
    5MOL   C158 1366   7.405   5.278   7.526 -0.0115 -0.1302  0.4348
    5MOL   N159 1367   7.435   5.237   7.398  1.1131  0.1170  0.0121
    5MOL   H160 1368   7.495   5.207   6.994  1.9511  0.2966 -0.1401
    5MOL   H161 1369   7.380   5.157   7.120 -0.5377  1.0960  0.1287
    5MOL   H162 1370   7.602   5.343   7.142  0.3469 -2.8060 -2.7063
    5MOL   H163 1371   7.625   5.500   7.309  0.9674 -2.9606 -1.8414
    5MOL   H164 1372   7.536   5.586   7.520 -0.5900 -0.2091  1.2716
    5MOL   H165 1373   7.406   5.443   7.671  1.0131  0.9553 -0.9827
    5MOL   H166 1374   7.341   5.217   7.588  0.8816  0.6902  2.2036
    5MOL   C167 1375   7.644   5.142   7.217  0.3356  0.2825  0.1719
    5MOL   C168 1376   7.730   5.100   7.097 -0.1625 -0.4096  0.1684
    5MOL   C169 1377   7.796   5.219   7.015 -0.0989  0.8753  0.0149
    5MOL   C170 1378   7.802   5.223   6.873  0.7935 -0.2426  0.4157
    5MOL   C171 1379   7.860   5.337   6.810 -0.7675 -0.4711 -0.0646
    5MOL   C172 1380   7.928   5.424   6.891 -0.0601  0.1383 -0.2164
    5MOL   C173 1381   7.930   5.409   7.032 -0.4396  0.9103 -0.1951
    5MOL   N174 1382   7.858   5.313   7.088 -0.2252  0.7104  0.8711
    5MOL   H175 1383   7.583   5.057   7.248  1.4231 -0.2685  0.8117
    5MOL   H176 1384   7.712   5.164   7.299  0.1452 -1.2301  0.7344
    5MOL   H177 1385   7.658   5.050   7.032 -0.3112 -0.7612  0.6047
    5MOL   H178 1386   7.744   5.157   6.810 -0.8196  0.9611  0.6157
    5MOL   H179 1387   7.872   5.347   6.703 -1.1678  0.7780  0.0032
    5MOL   H180 1388   7.993   5.502   6.856 -0.6479  0.1342 -1.3160
    5MOL   H181 1389   7.989   5.478   7.091  1.7832 -0.9131 -0.2152
    5MOL   C182 1390   7.845   5.006   7.146  0.1355  0.0131 -0.0435
    5MOL   C183 1391   7.936   4.953   7.029  0.2180 -0.4549 -0.0931
    5MOL   C184 1392   8.071   4.910   7.087 -0.3788 -0.0933  0.6003
    5MOL   C185 1393   0.041   4.960   7.051  0.7636  0.2371 -0.2304
    5MOL   C186 1394   0.160   4.900   7.092 -0.2761 -0.4348  0.0255
    5MOL   C187 1395   0.153   4.778   7.160  0.1966  0.7489 -0.1823
    5MOL   C188 1396   0.023   4.732   7.196 -1.1875  0.0670  0.4154
    5MOL   N189 1397   8.062   4.795   7.159 -0.3097  0.0422  0.9017
    5MOL   H190 1398   7.802   4.919   7.195  0.6452 -0.6686 -0.7859
    5MOL   H191 1399   7.904   5.060   7.220 -2.4533  2.1599  0.5138
    5MOL   H192 1400   7.966   5.038   6.967  0.0845 -0.5208 -0.2474
    5MOL   H193 1401   0.043   5.057   7.004 -0.2509  0.8300  0.9139
    5MOL   H194 1402   0.259   4.938   7.070  0.2750 -1.4861  0.6816
    5MOL   H195 1403   0.238   4.714   7.178 -1.0786 -1.5650 -2.1559
    5MOL   H196 1404   0.006   4.640   7.251  1.6152 -1.2687 -0.8346
    5MOL   C197 1405   7.881   4.844   6.930  0.3179  0.0390  0.0441
    5MOL   C198 1406   7.981   4.805   6.821 -0.6178  0.4122  0.0478
    5MOL   C199 1407   7.927   4.682   6.748 -0.2093 -0.3959 -0.4279
    5MOL   C200 1408   7.990   4.557   6.757  0.1680  0.3471  0.4941
    5MOL   C201 1409   7.937   4.447   6.682  0.1215 -0.5030  0.1977
    5MOL   C202 1410   7.811   4.458   6.626  1.1271 -0.1690 -0.1657
    5MOL   C203 1411   7.750   4.589   6.627 -0.2075 -0.1651  0.2685
    5MOL   N204 1412   7.804   4.697   6.688 -0.0504 -0.2945 -0.1006
    5MOL   H205 1413   7.786   4.873   6.885 -1.3528 -3.9773  0.7954
    5MOL   H206 1414   7.866   4.748   6.979  0.8428 -0.7396 -1.3012
    5MOL   H207 1415   8.068   4.770   6.876  0.3866 -1.1142 -2.4061
    5MOL   H208 1416   8.089   4.537   6.794 -0.2464 -2.5111  0.1286
    5MOL   H209 1417   7.968   4.344   6.682 -2.7012 -1.3929  1.2903
    5MOL   H210 1418   7.763   4.376   6.574  2.2913 -0.7977 -0.2659
    5MOL   H211 1419   7.655   4.607   6.578 -0.0789  1.4606  0.5821
    5MOL   C212 1420   8.029   4.913   6.723 -0.1734 -0.3395  0.9300
    5MOL   C213 1421   8.138   4.863   6.622 -0.3047  0.2985 -0.1852
    5MOL   C214 1422   8.129   4.954   6.494  0.3854  1.0547  0.4193
    5MOL   C215 1423   8.143   4.897   6.367  0.9700  0.1911 -0.2156
    5MOL   C216 1424   0.003   4.989   6.260  0.2025 -0.4703 -0.4568
    5MOL   C217 1425   0.010   5.126   6.293 -0.7842  0.2788 -0.1403
    5MOL   C218 1426   8.139   5.174   6.419  0.4110  0.3632 -0.4083
    5MOL   N219 1427   8.118   5.085   6.519 -0.2685  0.2207 -0.6724
    5MOL   H220 1428   8.071   5.000   6.774  0.9550 -1.3390  1.7350
    5MOL   H221 1429   7.941   4.950   6.670 -1.5022 -2.0116  1.9029
    5MOL   H222 1430   8.118   4.759   6.594 -1.6646  0.2650  0.8799
    5MOL   H223 1431   8.150   4.794   6.336  0.3730 -0.1733  0.8458
    5MOL   H224 1432   0.002   4.959   6.156 -0.4180  2.2945 -1.2726
    5MOL   H225 1433   0.021   5.202   6.217  0.4106 -0.0896 -0.3465
    5MOL   H226 1434   8.142   5.278   6.446 -0.1455  1.3232 -3.7642
    5MOL   C227 1435   0.128   4.872   6.696  0.2996  0.6554  0.4756
    5MOL   C228 1436   0.249   4.819   6.620 -0.2895  0.3031 -0.4315
    5MOL   C229 1437   0.389   4.868   6.670  0.3645 -0.3372  0.5226
    5MOL   C230 1438   0.477   4.928   6.576  0.3496 -0.1723  0.2066
    5MOL   C231 1439   0.593   4.985   6.621  0.3755 -0.7276 -0.2476
    5MOL   C232 1440   0.618   4.975   6.759 -0.7989 -0.4963  0.1288
    5MOL   C233 1441   0.532   4.913   6.845  0.2535 -0.0214  0.4700
    5MOL   N234 1442   0.416   4.856   6.803 -0.8036  0.2988 -0.4745
    5MOL   H235 1443   0.123   4.833   6.797  0.2430 -0.5532  0.0172
    5MOL   H236 1444   0.152   4.977   6.714  0.6952  0.4478  1.1494
    5MOL   H237 1445   0.241   4.865   6.521 -4.1933  1.0753  0.1554
    5MOL   H238 1446   0.455   4.925   6.470  0.5047 -1.1892  0.2030
    5MOL   H239 1447   0.670   5.024   6.556 -0.1262 -1.3326 -1.2255
    5MOL   H240 1448   0.712   5.019   6.789 -1.0797 -0.2234  0.6258
    5MOL   H241 1449   0.556   4.898   6.949  2.7249 -1.8702 -0.2974
    5MOL   C242 1450   0.229   4.663   6.621  0.3744 -0.9153  0.4325
    5MOL   C243 1451   0.295   4.572   6.516  0.1791 -0.3224 -0.0029
    5MOL   C244 1452   0.296   4.428   6.570  0.9074  0.8132  0.2901
    5MOL   C245 1453   0.420   4.381   6.628 -0.0833  0.3378 -0.4128
    5MOL   C246 1454   0.416   4.250   6.677 -0.0904  0.1994  0.3462
    5MOL   C247 1455   0.287   4.181   6.695 -0.2486  0.6459  0.5251
    5MOL   C248 1456   0.176   4.233   6.626 -0.0148 -0.6087  0.1173
    5MOL   N249 1457   0.180   4.354   6.562 -0.5016 -0.5038  0.8639
    5MOL   H250 1458   0.124   4.635   6.616  0.0288  0.5114 -0.3678
    5MOL   H251 1459   0.244   4.621   6.721 -0.8613  0.5404  1.2550
    5MOL   H252 1460   0.399   4.605   6.522  0.1550 -0.6505  3.2446
    5MOL   H253 1461   0.506   4.446   6.634 -0.7982  1.1852  1.0860
    5MOL   H254 1462   0.507   4.205   6.714  0.2975  0.4986 -0.2491
    5MOL   H255 1463   0.271   4.102   6.766  0.5452 -1.6570 -1.7737
    5MOL   H256 1464   0.084   4.176   6.622  0.0605 -0.8764  1.9792
    5MOL   C257 1465   0.238   4.591   6.375  0.0102 -0.0798  0.1377
    5MOL   C258 1466   0.341   4.564   6.261 -0.4647  0.3875 -0.3242
    5MOL   C259 1467   0.273   4.593   6.131  0.0299 -0.2069 -0.4936
    5MOL   C260 1468   0.253   4.498   6.029  0.9438  0.0841  0.0150
    5MOL   C261 1469   0.199   4.540   5.903  0.4186  0.2551 -0.1692
    5MOL   C262 1470   0.149   4.669   5.897 -0.2556 -1.1165  0.4208
    5MOL   C263 1471   0.170   4.754   6.005  0.5055  0.2745 -0.0398
    5MOL   N264 1472   0.235   4.719   6.111 -0.5027 -0.3592  0.4510
    5MOL   H265 1473   0.216   4.698   6.372  1.6484  0.2923  0.6408
    5MOL   H266 1474   0.146   4.538   6.353 -0.2220 -0.2433  1.4644
    5MOL   H267 1475   0.362   4.457   6.267 -3.0012 -0.0645  1.5216
    5MOL   H268 1476   0.301   4.401   6.043  1.3979  0.3721  0.4888
    5MOL   H269 1477   0.189   4.475   5.818  0.0319 -1.1039  0.8959
    5MOL   H270 1478   0.117   4.713   5.804  0.4780 -0.5095  0.4429
    5MOL   H271 1479   0.149   4.859   5.993  1.3496  0.9154  3.4017
    5MOL   C272 1480   0.485   4.627   6.271  0.4838 -0.3028 -0.2288
    5MOL   C273 1481   0.554   4.692   6.146  0.1502 -0.8740  0.1557
    5MOL   C274 1482   0.664   4.789   6.203  0.5434 -0.0841 -0.3206
    5MOL   C275 1483   0.656   4.923   6.176 -0.5935  0.1476  0.1902
    5MOL   C276 1484   0.755   5.010   6.232 -0.1293  0.1426  0.7984
    5MOL   C277 1485   0.857   4.946   6.307 -0.0414 -0.4926 -0.3619
    5MOL   C278 1486   0.858   4.805   6.321 -0.7838 -0.2358 -0.3242
    5MOL   N279 1487   0.767   4.731   6.266  0.0525  0.2301 -0.2794
    5MOL   H280 1488   0.559   4.560   6.314 -1.3010 -1.4330  1.1434
    5MOL   H281 1489   0.469   4.717   6.330 -1.5662  0.2311 -1.5453
    5MOL   H282 1490   0.488   4.752   6.083  1.6054 -0.5109 -1.0478
    5MOL   H283 1491   0.579   4.967   6.114 -0.8924  0.5656  0.8536
    5MOL   H284 1492   0.763   5.117   6.224 -0.3458  0.1669  0.8837
    5MOL   H285 1493   0.924   5.009   6.362 -0.4235 -0.6563  0.2911
    5MOL   H286 1494   0.930   4.758   6.387 -1.1919 -0.1630  0.1815
    5MOL   C287 1495   0.617   4.588   6.042 -0.5603  0.2639  0.2494
    5MOL   C288 1496   0.708   4.636   5.926 -0.1235  0.3925 -0.2628
    5MOL   C289 1497   0.636   4.722   5.821  0.6580  0.3234 -1.2275
    5MOL   C290 1498   0.668   4.859   5.809 -0.6360  0.9232 -0.5253
    5MOL   C291 1499   0.577   4.937   5.737  0.0217 -0.1545 -0.5778
    5MOL   C292 1500   0.462   4.883   5.683  1.3031  0.4005 -0.4877
    5MOL   C293 1501   0.448   4.742   5.690  0.0153  0.3224 -0.5906
    5MOL   N294 1502   0.535   4.663   5.757  0.2179 -0.5167  0.6454
    5MOL   H295 1503   0.535   4.525   6.007  0.5597 -1.8643  1.3655
    5MOL   H296 1504   0.683   4.523   6.099 -2.0149 -0.2714  1.3456
    5MOL   H297 1505   0.747   4.546   5.880 -0.3896  0.6562 -1.0174
    5MOL   H298 1506   0.746   4.904   5.870 -0.3163 -0.9263  0.4503
    5MOL   H299 1507   0.599   5.042   5.730  1.6196 -0.3470  1.3644
    5MOL   H300 1508   0.396   4.936   5.616 -0.1969 -1.7266 -0.7559
    5MOL   H301 1509   0.365   4.704   5.633  1.0176  1.5689 -2.9779
    5MOL   H302 1510   0.794   4.682   5.976  0.5327 -0.9133 -0.1739
    6MOL     C1 1511   7.646   5.794   2.100  0.3210  0.2462  0.0190
    6MOL     C2 1512   7.502   5.840   2.125 -0.0975  0.3979 -0.1403
    6MOL     C3 1513   7.403   5.732   2.164  0.5017  0.2413  0.0840
    6MOL     C4 1514   7.297   5.683   2.083  0.0793 -0.3135  0.4425
    6MOL     C5 1515   7.208   5.587   2.139  0.8287  0.1410 -0.9612
    6MOL     C6 1516   7.218   5.556   2.276  1.0118 -0.2513 -0.2869
    6MOL     C7 1517   7.339   5.595   2.334 -0.3000  0.7849 -0.0914
    6MOL     N8 1518   7.426   5.678   2.283  0.6811  0.5142 -0.4674
    6MOL     H9 1519   7.712   5.872   2.060  0.5162 -1.2234 -2.5780
    6MOL    H10 1520   7.686   5.757   2.195  0.7977  1.7698  0.4384
    6MOL    H11 1521   7.462   5.866   2.027 -2.0503  0.6047  0.6848
    6MOL    H12 1522   7.285   5.707   1.979  0.1606 -0.1283  0.4752
    6MOL    H13 1523   7.125   5.550   2.081 -0.7965  0.6919  0.9396
    6MOL    H14 1524   7.135   5.507   2.324 -0.3343  1.7740 -0.5282
    6MOL    H15 1525   7.363   5.560   2.433  1.8498  2.8250  0.1314
    6MOL    H16 1526   7.652   5.719   2.021  0.6341  1.2177 -0.8960
    6MOL    C17 1527   7.485   5.965   2.219 -0.1088 -0.1341 -0.4996
    6MOL    C18 1528   7.508   6.109   2.159 -0.0797  0.2775  0.1328
    6MOL    C19 1529   7.423   6.128   2.033 -0.1792 -0.4871  0.4390
    6MOL    C20 1530   7.292   6.066   2.023  0.4875  0.3461 -0.3678
    6MOL    C21 1531   7.211   6.094   1.917 -0.0799 -0.3155 -0.0105
    6MOL    C22 1532   7.263   6.163   1.810 -0.3676  0.2155  0.5955
    6MOL    C23 1533   7.394   6.217   1.827  0.2064  0.2414 -0.9711
    6MOL    N24 1534   7.475   6.203   1.930  0.9100  0.1324 -0.8195
    6MOL    H25 1535   7.548   5.938   2.304  1.2457 -3.0331 -2.3503
    6MOL    H26 1536   7.382   5.963   2.254  0.1971 -1.1956  0.3747
    6MOL    H27 1537   7.615   6.116   2.138 -0.1468 -1.2912 -0.7879
    6MOL    H28 1538   7.254   6.016   2.110  2.1456 -2.7141 -1.3314
    6MOL    H29 1539   7.114   6.047   1.918 -0.1218 -0.2569 -0.6526
    6MOL    H30 1540   7.212   6.166   1.716  0.8211 -0.0983 -0.0698
    6MOL    H31 1541   7.445   6.270   1.748  1.0973  2.5959  1.1165
    6MOL    C32 1542   7.468   6.218   2.258  0.0191 -0.3776 -0.4676
    6MOL    C33 1543   7.539   6.226   2.396  0.9182 -0.5444 -0.4817
    6MOL    C34 1544   7.686   6.261   2.382 -0.6851  0.1323 -0.6657
    6MOL    C35 1545   7.783   6.172   2.433 -0.6392  0.1679  0.0043
    6MOL    C36 1546   7.917   6.206   2.413 -0.2657 -0.0796  0.1959
    6MOL    C37 1547   7.948   6.315   2.331  0.6150  0.2098  0.5558
    6MOL    C38 1548   7.845   6.401   2.285 -0.5373  0.6376  0.5107
    6MOL    N39 1549   7.715   6.370   2.304 -0.4469  0.0681 -0.2479
    6MOL    H40 1550   7.362   6.199   2.275  0.2187 -0.2148  1.0495
    6MOL    H41 1551   7.479   6.319   2.220  1.9046 -0.7400 -0.9684
    6MOL    H42 1552   7.535   6.128   2.443 -1.8861  0.0227  0.5634
    6MOL    H43 1553   7.752   6.085   2.490  1.2759  0.2161  1.1417
    6MOL    H44 1554   7.998   6.146   2.451  0.0530  0.3118  0.1337
    6MOL    H45 1555   8.046   6.330   2.289  0.9875 -1.1484  0.9137
    6MOL    H46 1556   7.852   6.484   2.216  0.4736  0.1230 -0.0018
    6MOL    C47 1557   7.476   6.334   2.486  0.0918 -0.0468 -0.1716
    6MOL    C48 1558   7.331   6.322   2.528  0.0613  0.1757 -0.3919
    6MOL    C49 1559   7.307   6.176   2.581  0.5438  0.0612 -0.3539
    6MOL    C50 1560   7.224   6.085   2.509 -0.1744  0.6036  0.1235
    6MOL    C51 1561   7.221   5.952   2.553 -0.0827  0.2110  0.1469
    6MOL    C52 1562   7.288   5.916   2.669 -0.1132 -0.1761  0.4023
    6MOL    C53 1563   7.366   6.012   2.729  0.8140 -0.0065 -0.2154
    6MOL    N54 1564   7.384   6.139   2.689  0.0899  0.3143  0.5475
    6MOL    H55 1565   7.505   6.433   2.451  0.7116 -0.0507  0.3125
    6MOL    H56 1566   7.542   6.329   2.573 -1.9723 -0.7085  1.3917
    6MOL    H57 1567   7.267   6.325   2.440 -0.9565  0.2479  0.3483
    6MOL    H58 1568   7.175   6.102   2.414  2.1896 -0.9336 -1.4236
    6MOL    H59 1569   7.160   5.876   2.507  1.6239 -1.4109  0.4916
    6MOL    H60 1570   7.291   5.816   2.709  1.0271  0.2270  1.3618
    6MOL    H61 1571   7.414   5.989   2.823  0.4829  1.3292  0.2946
    6MOL    C62 1572   7.303   6.433   2.632  0.1540  0.4012 -0.2719
    6MOL    C63 1573   7.166   6.443   2.688 -0.0607 -0.3452  0.8423
    6MOL    C64 1574   7.064   6.481   2.583  0.0085  0.2318 -0.5718
    6MOL    C65 1575   6.963   6.389   2.536  0.8055 -0.0946 -0.7885
    6MOL    C66 1576   6.876   6.439   2.431  0.1308  0.2674  0.1611
    6MOL    C67 1577   6.909   6.557   2.367 -0.9124  0.9283  0.0182
    6MOL    C68 1578   7.007   6.644   2.430  0.0373  0.7009  0.3878
    6MOL    N69 1579   7.079   6.603   2.535 -0.3728 -0.0235 -0.2926
    6MOL    H70 1580   7.320   6.531   2.586 -0.1413  0.3502 -0.4948
    6MOL    H71 1581   7.386   6.433   2.703  0.6158 -0.2201 -0.8008
    6MOL    H72 1582   7.168   6.520   2.765  1.7799  0.6328 -0.1451
    6MOL    H73 1583   6.942   6.296   2.586 -3.8812 -0.2623 -2.8887
    6MOL    H74 1584   6.807   6.378   2.376 -0.0029  1.3891 -0.9389
    6MOL    H75 1585   6.854   6.586   2.278  0.2397 -0.6719 -1.2554
    6MOL    H76 1586   7.021   6.748   2.403 -1.2961  0.9374  0.5878
    6MOL    C77 1587   7.127   6.321   2.780 -0.3313 -0.5580 -0.6337
    6MOL    C78 1588   6.996   6.333   2.871  0.1073 -0.1598 -0.1137
    6MOL    C79 1589   6.973   6.206   2.945  0.6295  0.5186 -0.4041
    6MOL    C80 1590   6.856   6.129   2.927  1.0910 -0.0982  0.5949
    6MOL    C81 1591   6.840   6.017   3.009 -0.0760  1.0822 -0.5964
    6MOL    C82 1592   6.936   5.996   3.107  0.5034 -0.4426 -0.9389
    6MOL    C83 1593   7.051   6.072   3.111 -0.1840 -0.1175 -0.1443
    6MOL    N84 1594   7.067   6.183   3.040 -0.1979 -0.6791  0.0840
    6MOL    H85 1595   7.215   6.313   2.844 -0.8187  2.8621  0.5931
    6MOL    H86 1596   7.119   6.223   2.734 -0.9597 -0.4787 -0.6921
    6MOL    H87 1597   6.909   6.332   2.805 -1.7824  0.1824  2.3330
    6MOL    H88 1598   6.774   6.150   2.860  1.7521  0.0528 -0.1836
    6MOL    H89 1599   6.749   5.962   2.989  0.5508 -0.2302  0.0638
    6MOL    H90 1600   6.913   5.907   3.166 -1.4842  0.3805 -0.4154
    6MOL    H91 1601   7.129   6.051   3.182  0.0381 -0.5203 -0.5039
    6MOL    C92 1602   6.998   6.462   2.959 -0.0575  0.6868 -0.3794
    6MOL    C93 1603   6.900   6.578   2.919  0.2769 -0.0516  0.1830
    6MOL    C94 1604   6.769   6.519   2.872  0.1159 -0.2001  0.5074
    6MOL    C95 1605   6.717   6.568   2.747  0.4337 -0.8709  0.1245
    6MOL    C96 1606   6.589   6.514   2.714  0.4362  0.3327  1.1264
    6MOL    C97 1607   6.521   6.417   2.789 -0.1453 -0.3814 -0.0478
    6MOL    C98 1608   6.587   6.374   2.906 -0.1278  0.1868 -0.1150
    6MOL    N99 1609   6.704   6.428   2.945  0.3176 -0.2806 -0.3845
    6MOL   H100 1610   7.103   6.485   2.981 -0.3998  1.4137  0.5313
    6MOL   H101 1611   6.959   6.427   3.055 -2.2012  0.2276 -1.3991
    6MOL   H102 1612   6.950   6.623   2.833 -0.5024  1.0416  0.2854
    6MOL   H103 1613   6.771   6.641   2.688  0.3154 -0.1560  0.9010
    6MOL   H104 1614   6.543   6.549   2.623 -0.6868 -2.4414  0.5673
    6MOL   H105 1615   6.418   6.391   2.767 -0.3106 -0.7661  1.1107
    6MOL   H106 1616   6.546   6.302   2.975  1.2467 -0.3889  0.1308
    6MOL   C107 1617   6.884   6.689   3.028 -0.0491  0.2686 -0.0922
    6MOL   C108 1618   7.010   6.753   3.080  0.0919 -0.5012 -0.5115
    6MOL   C109 1619   7.092   6.813   2.970 -0.3910  0.4666  0.2093
    6MOL   C110 1620   7.205   6.750   2.913  0.1368  0.2557 -0.5713
    6MOL   C111 1621   7.266   6.811   2.800 -0.2305  0.1460  0.0233
    6MOL   C112 1622   7.216   6.933   2.753  0.8789 -0.6160  0.2382
    6MOL   C113 1623   7.095   6.979   2.808 -0.7500 -0.3752  0.7459
    6MOL   N114 1624   7.034   6.916   2.913 -0.1752 -0.1658  0.0006
    6MOL   H115 1625   6.833   6.655   3.118  0.7422  2.0475  1.0587
    6MOL   H116 1626   6.827   6.767   2.977  0.0711  0.9373  0.7937
    6MOL   H117 1627   7.061   6.667   3.123 -1.3295 -2.3852 -2.4464
    6MOL   H118 1628   7.241   6.657   2.955  1.2344  0.4236 -1.1169
    6MOL   H119 1629   7.348   6.757   2.755 -0.1380  0.5761 -0.3238
    6MOL   H120 1630   7.266   6.981   2.670  3.4219 -0.6049  1.7061
    6MOL   H121 1631   7.052   7.070   2.768 -0.7239  0.1580  1.9032
    6MOL   C122 1632   6.973   6.859   3.194  0.7025  0.1571 -0.0838
    6MOL   C123 1633   7.089   6.951   3.241 -0.2470 -0.5759  0.3362
    6MOL   C124 1634   7.046   7.083   3.304 -0.3763 -1.0316  0.1454
    6MOL   C125 1635   7.108   7.207   3.269  0.0765 -0.2335 -0.1872
    6MOL   C126 1636   7.075   7.317   3.346  0.5305  0.2635 -0.2537
    6MOL   C127 1637   6.967   7.310   3.439  0.5147  0.4447 -0.0056
    6MOL   C128 1638   6.912   7.185   3.469  0.3376 -0.3725  0.1322
    6MOL   N129 1639   6.951   7.074   3.403 -0.6933  0.7483  0.1010
    6MOL   H130 1640   6.952   6.790   3.275 -0.4453  1.0206  0.3693
    6MOL   H131 1641   6.880   6.903   3.158  0.5646 -0.2145 -0.1832
    6MOL   H132 1642   7.144   6.989   3.155 -1.8587  1.1815  0.0433
    6MOL   H133 1643   7.185   7.212   3.194 -0.5382 -1.2363 -0.9168
    6MOL   H134 1644   7.132   7.408   3.333  0.8194  0.1913  0.4617
    6MOL   H135 1645   6.940   7.399   3.494 -0.3533  1.4157 -1.9202
    6MOL   H136 1646   6.839   7.170   3.547 -1.1601 -0.4614 -1.2536
    6MOL   C137 1647   7.185   6.872   3.339 -0.2452 -0.3506  0.1876
    6MOL   C138 1648   7.323   6.826   3.294 -0.1850  1.2544 -0.8814
    6MOL   C139 1649   7.392   6.947   3.248  0.2340  0.2538 -0.6396
    6MOL   C140 1650   7.385   6.987   3.110 -0.6409  0.0456  0.1996
    6MOL   C141 1651   7.439   7.111   3.070  0.4185 -0.0473 -0.7534
    6MOL   C142 1652   7.502   7.194   3.167 -0.4958  0.0496  0.4641
    6MOL   C143 1653   7.509   7.144   3.298  0.6572  0.4909  0.2776
    6MOL   N144 1654   7.453   7.027   3.338 -0.0281 -0.4542  0.5227
    6MOL   H145 1655   7.124   6.799   3.392 -1.0295  0.0745 -0.1108
    6MOL   H146 1656   7.207   6.935   3.425 -2.2038 -0.8097  1.0564
    6MOL   H147 1657   7.312   6.753   3.215  2.5577  0.4829 -0.5969
    6MOL   H148 1658   7.331   6.924   3.041 -0.1063  3.5648 -3.6454
    6MOL   H149 1659   7.432   7.136   2.966 -0.5972  2.6444 -0.0728
    6MOL   H150 1660   7.542   7.291   3.142 -2.7449  1.2946  1.5846
    6MOL   H151 1661   7.557   7.198   3.379  0.6341  1.7399 -0.5236
    6MOL   C152 1662   7.399   6.759   3.406  0.4816 -0.1513  0.5063
    6MOL   C153 1663   7.334   6.629   3.464 -0.2456  0.5743  0.0048
    6MOL   C154 1664   7.387   6.513   3.378 -0.5976 -0.6732  0.4514
    6MOL   C155 1665   7.296   6.437   3.300  0.1230 -1.0505  0.1717
    6MOL   C156 1666   7.346   6.344   3.210  0.0767 -0.2901 -0.8977
    6MOL   C157 1667   7.485   6.333   3.198  0.1622  0.4248 -0.6792
    6MOL   C158 1668   7.568   6.415   3.279  0.0530  0.2061 -0.4767
    6MOL   N159 1669   7.519   6.498   3.374 -0.4694 -0.1325 -0.3663
    6MOL   H160 1670   7.406   6.826   3.492  0.3254  1.3915 -0.6638
    6MOL   H161 1671   7.502   6.755   3.371 -0.1560 -1.5478 -1.3221
    6MOL   H162 1672   7.225   6.634   3.462 -0.1920  1.5586 -0.4759
    6MOL   H163 1673   7.190   6.432   3.320  0.3678 -0.9711  1.5412
    6MOL   H164 1674   7.280   6.283   3.150 -0.3665 -1.1552  0.4302
    6MOL   H165 1675   7.539   6.256   3.145 -0.4663  0.3657 -1.2428
    6MOL   H166 1676   7.676   6.407   3.283  0.1228  1.6893  1.5971
    6MOL   C167 1677   7.359   6.586   3.612 -0.7408  0.2544  0.3459
    6MOL   C168 1678   7.297   6.683   3.711 -0.4187  0.2714  0.0551
    6MOL   C169 1679   7.139   6.679   3.704  0.5080 -0.0694  0.8050
    6MOL   C170 1680   7.070   6.560   3.733 -0.0974  0.2005 -0.4645
    6MOL   C171 1681   6.929   6.557   3.727 -0.3233 -0.4319 -0.3459
    6MOL   C172 1682   6.860   6.681   3.698  0.0654 -0.2541  0.4772
    6MOL   C173 1683   6.941   6.792   3.657  0.0545 -0.6128 -0.1248
    6MOL   N174 1684   7.074   6.790   3.661  0.0352 -0.4493  0.2567
    6MOL   H175 1685   7.466   6.572   3.629 -0.6951  1.1901  0.8513
    6MOL   H176 1686   7.308   6.491   3.624  0.5951 -0.3307  1.6284
    6MOL   H177 1687   7.319   6.784   3.679  0.1150 -0.3145 -1.4630
    6MOL   H178 1688   7.129   6.472   3.758 -1.8357 -0.7508  0.4334
    6MOL   H179 1689   6.872   6.466   3.735 -0.5045 -0.2563  0.4847
    6MOL   H180 1690   6.752   6.684   3.700  0.1010  1.0062  2.0935
    6MOL   H181 1691   6.901   6.887   3.626 -0.2402 -0.1347  1.6738
    6MOL   C182 1692   7.360   6.665   3.850  0.3225  0.3063  1.0956
    6MOL   C183 1693   7.489   6.747   3.889 -0.3181 -0.0049  0.2459
    6MOL   C184 1694   7.603   6.723   3.797  0.5141  0.0666  0.6391
    6MOL   C185 1695   7.617   6.801   3.677  0.7478  0.7314 -0.5633
    6MOL   C186 1696   7.723   6.773   3.592  0.0362 -0.1506 -0.4883
    6MOL   C187 1697   7.814   6.669   3.631 -0.0737  0.0269 -0.4269
    6MOL   C188 1698   7.792   6.600   3.753 -0.5020 -0.4175  0.2129
    6MOL   N189 1699   7.692   6.632   3.838 -0.4824 -0.3051 -0.0838
    6MOL   H190 1700   7.376   6.560   3.874  0.3832  0.1408  0.3412
    6MOL   H191 1701   7.283   6.691   3.922  0.0406 -0.6080  1.1229
    6MOL   H192 1702   7.518   6.702   3.984 -0.9964  1.1950  1.0439
    6MOL   H193 1703   7.552   6.884   3.653 -1.6100 -1.6908 -2.9270
    6MOL   H194 1704   7.739   6.820   3.497  1.5081  0.3278 -0.0133
    6MOL   H195 1705   7.888   6.633   3.561  1.2585  1.6400  0.1065
    6MOL   H196 1706   7.857   6.517   3.778  0.0664  0.1077  0.4982
    6MOL   C197 1707   7.457   6.899   3.913 -0.1376 -0.3863  0.5909
    6MOL   C198 1708   7.414   6.942   4.053 -0.1214 -0.3576  0.2631
    6MOL   C199 1709   7.517   6.927   4.164 -0.1081 -0.3815 -0.0795
    6MOL   C200 1710   7.474   6.856   4.279 -0.3124  0.0438  0.5248
    6MOL   C201 1711   7.567   6.845   4.383  0.2637  0.1964 -0.1838
    6MOL   C202 1712   7.693   6.907   4.370  0.4449 -0.4017  0.1133
    6MOL   C203 1713   7.719   6.983   4.262 -0.2589  0.6706 -0.1282
    6MOL   N204 1714   7.636   6.989   4.156 -0.1767  0.8656 -0.7352
    6MOL   H205 1715   7.382   6.925   3.838  0.9978 -1.0640 -0.8148
    6MOL   H206 1716   7.541   6.961   3.882 -1.9336  0.6252 -2.4211
    6MOL   H207 1717   7.331   6.873   4.069  0.4730 -1.0797  0.2464
    6MOL   H208 1718   7.372   6.823   4.285 -0.3647 -0.2405 -1.5265
    6MOL   H209 1719   7.543   6.802   4.480 -1.9989 -0.3299 -0.9379
    6MOL   H210 1720   7.763   6.898   4.451  0.3268  1.1950  0.4060
    6MOL   H211 1721   7.812   7.035   4.242 -0.4351  1.5450  1.2552
    6MOL   C212 1722   7.349   7.088   4.061  0.0504  0.1695  0.4959
    6MOL   C213 1723   7.202   7.095   4.037  0.1098 -0.3239  0.1105
    6MOL   C214 1724   7.117   6.997   4.109 -0.3888  1.1294 -0.1868
    6MOL   C215 1725   7.070   6.880   4.047 -0.0864  0.8782  0.1853
    6MOL   C216 1726   6.991   6.790   4.120  0.3586 -0.3760  0.8604
    6MOL   C217 1727   6.979   6.810   4.252 -0.0876  0.3161  0.4150
    6MOL   C218 1728   7.027   6.926   4.318  0.0086  0.3142  0.1346
    6MOL   N219 1729   7.106   7.016   4.246 -0.6764 -0.9150 -0.3298
    6MOL   H220 1730   7.392   7.147   3.981 -1.0888 -0.5272 -0.6514
    6MOL   H221 1731   7.374   7.130   4.159  2.1360  0.9618 -0.3433
    6MOL   H222 1732   7.198   7.059   3.934 -2.7145 -1.1662  0.4669
    6MOL   H223 1733   7.082   6.870   3.940  0.2227  1.2408  0.1835
    6MOL   H224 1734   6.938   6.716   4.063  0.0666  0.7789 -0.4000
    6MOL   H225 1735   6.915   6.742   4.308 -0.1848  1.0347  1.1827
    6MOL   H226 1736   7.017   6.942   4.424  1.6055 -0.1310  0.3833
    6MOL   C227 1737   7.139   7.236   4.035 -0.5101 -0.1615 -0.1511
    6MOL   C228 1738   7.062   7.263   3.906  0.7127  0.1249  0.0275
    6MOL   C229 1739   6.922   7.201   3.897  0.1799 -0.5889 -0.5412
    6MOL   C230 1740   6.896   7.081   3.827 -0.1904 -0.1825  0.3587
    6MOL   C231 1741   6.770   7.031   3.842 -0.1081  0.4567  0.0756
    6MOL   C232 1742   6.678   7.102   3.925  0.4342  0.6332  0.1301
    6MOL   C233 1743   6.719   7.218   3.992  0.8432 -0.1592 -0.8682
    6MOL   N234 1744   6.836   7.268   3.973 -0.1490 -0.5811  0.2504
    6MOL   H235 1745   7.219   7.309   4.044 -0.0948 -0.3793 -1.8863
    6MOL   H236 1746   7.071   7.248   4.120 -0.3339  1.0778 -0.1748
    6MOL   H237 1747   7.113   7.215   3.823  0.5313  1.9987 -1.2055
    6MOL   H238 1748   6.970   7.025   3.772 -0.6460 -1.1332  0.7071
    6MOL   H239 1749   6.751   6.933   3.801  0.2622  0.0940  0.7586
    6MOL   H240 1750   6.575   7.073   3.938  0.5946  1.3078  3.2211
    6MOL   H241 1751   6.645   7.270   4.052  1.1956 -1.5362  0.8016
    6MOL   C242 1752   7.072   7.418   3.877  0.5971 -0.9256 -0.0604
    6MOL   C243 1753   7.221   7.483   3.869  0.4311 -0.1090  0.9568
    6MOL   C244 1754   7.311   7.388   3.784  0.3690  0.5949 -0.0921
    6MOL   C245 1755   7.265   7.337   3.661 -0.1741 -0.0312  0.0402
    6MOL   C246 1756   7.345   7.243   3.599  0.8963  0.5601 -0.6421
    6MOL   C247 1757   7.472   7.226   3.649 -0.2731  0.3849  0.0199
    6MOL   C248 1758   7.515   7.282   3.769 -0.7089  0.8025  0.7302
    6MOL   N249 1759   7.431   7.363   3.837  0.8808 -0.1076  0.1120
    6MOL   H250 1760   7.002   7.473   3.940  0.1423  0.6918 -1.9385
    6MOL   H251 1761   7.026   7.435   3.780  2.3479 -0.9691 -0.9192
    6MOL   H252 1762   7.265   7.481   3.968  1.0119 -0.0918  0.6971
    6MOL   H253 1763   7.171   7.362   3.614  0.0992  2.4102  0.7179
    6MOL   H254 1764   7.321   7.202   3.502  1.8195 -0.8152 -0.3089
    6MOL   H255 1765   7.552   7.173   3.598  0.7529  0.3703  1.6033
    6MOL   H256 1766   7.612   7.262   3.813  0.2674  0.1686 -1.6556
    6MOL   C257 1767   7.227   7.625   3.821  1.3573  0.0770 -0.2469
    6MOL   C258 1768   7.172   7.727   3.927  0.0853  0.2791 -0.4959
    6MOL   C259 1769   7.232   7.717   4.065  0.2591  0.0718 -0.5708
    6MOL   C260 1770   7.152   7.687   4.172  0.3547  0.3351 -0.5857
    6MOL   C261 1771   7.215   7.678   4.297  0.3119  0.1612  0.0105
    6MOL   C262 1772   7.352   7.714   4.300 -0.6883 -0.0687 -0.2593
    6MOL   C263 1773   7.428   7.743   4.187 -0.5257 -0.0451  0.0688
    6MOL   N264 1774   7.369   7.737   4.068  0.5027  0.3899 -0.6875
    6MOL   H265 1775   7.160   7.640   3.737 -1.1668  0.2269  1.7512
    6MOL   H266 1776   7.331   7.652   3.798  2.0278 -0.6262  1.8591
    6MOL   H267 1777   7.068   7.698   3.943  0.8619 -1.3158  2.0703
    6MOL   H268 1778   7.046   7.667   4.160  0.2697  0.2037  0.3345
    6MOL   H269 1779   7.155   7.641   4.379 -3.4090  1.0602 -2.1809
    6MOL   H270 1780   7.400   7.718   4.397 -0.1036  1.5338 -0.6012
    6MOL   H271 1781   7.533   7.760   4.200 -0.4287  0.0693 -0.8187
    6MOL   C272 1782   7.179   7.867   3.864  0.3760  0.5334 -0.0971
    6MOL   C273 1783   7.055   7.900   3.775  0.0765 -0.0005  0.6453
    6MOL   C274 1784   6.929   7.896   3.859  0.4377  0.1900  0.1963
    6MOL   C275 1785   6.912   8.005   3.946 -0.3017 -0.2716 -0.2702
    6MOL   C276 1786   6.804   8.005   4.034  0.6793 -0.2191  0.3175
    6MOL   C277 1787   6.713   7.896   4.032  0.4117  0.9689  0.7019
    6MOL   C278 1788   6.741   7.787   3.943 -0.5321  0.4282 -0.1852
    6MOL   N279 1789   6.849   7.788   3.860  0.2900 -0.1450  0.2944
    6MOL   H280 1790   7.276   7.877   3.815  0.1490 -1.4739 -0.9940
    6MOL   H281 1791   7.202   7.934   3.947  0.7587 -0.2810  0.4645
    6MOL   H282 1792   7.025   7.828   3.699 -0.3341  0.4845  0.3407
    6MOL   H283 1793   6.981   8.087   3.948 -0.0013 -0.4727 -1.6463
    6MOL   H284 1794   6.788   8.098   4.088  2.8853 -0.1861  0.9414
    6MOL   H285 1795   6.632   7.912   4.100 -2.7744 -0.6170 -2.5475
    6MOL   H286 1796   6.683   7.697   3.952 -0.3398  0.2513 -0.6720
    6MOL   C287 1797   7.079   8.032   3.696 -0.3018 -0.4965 -0.3670
    6MOL   C288 1798   6.977   8.068   3.583  0.5938 -0.2910 -0.2393
    6MOL   C289 1799   6.988   7.967   3.475  0.3464  0.2786 -0.1755
    6MOL   C290 1800   7.093   7.961   3.377  0.7480  0.7193 -0.4205
    6MOL   C291 1801   7.105   7.848   3.288 -0.2772  0.8160  0.0860
    6MOL   C292 1802   7.006   7.746   3.297  0.0290  0.1176  0.0689
    6MOL   C293 1803   6.906   7.760   3.396 -0.2139 -0.1622  0.5113
    6MOL   N294 1804   6.900   7.866   3.484  0.5289 -0.1441  0.5240
    6MOL   H295 1805   7.175   8.021   3.646 -0.8090 -1.4531 -1.1378
    6MOL   H296 1806   7.083   8.119   3.762 -0.4259 -0.4372 -0.4349
    6MOL   H297 1807   6.978   0.008   3.525  0.0680 -0.2560 -0.2021
    6MOL   H298 1808   7.161   8.044   3.373  1.4726  0.1795  0.5184
    6MOL   H299 1809   7.189   7.836   3.222  1.0734 -0.7473  2.0555
    6MOL   H300 1810   7.015   7.661   3.231 -1.7038 -1.1996  1.4785
    6MOL   H301 1811   6.834   7.682   3.412 -1.9299  1.8165  2.6209
    6MOL   H302 1812   6.875   8.057   3.622  0.8594 -1.3723  0.1872
    7MOL     C1 1813   4.794   3.471   0.075  0.1348 -0.1706  0.3184
    7MOL     C2 1814   4.728   3.599   0.122 -0.6068 -0.4781 -0.0825
    7MOL     C3 1815   4.594   3.579   0.187  0.3175 -0.5422  0.0244
    7MOL     C4 1816   4.483   3.641   0.146 -0.3939  0.1989  0.3079
    7MOL     C5 1817   4.363   3.623   0.219  0.5932 -0.4508 -0.4008
    7MOL     C6 1818   4.365   3.539   0.335  0.2755 -0.1720  0.0508
    7MOL     C7 1819   4.486   3.482   0.372 -0.4477  0.3144 -0.6245
    7MOL     N8 1820   4.598   3.504   0.299 -0.4278  0.1087 -0.3508
    7MOL     H9 1821   4.830   3.417   0.163  0.0596 -0.6066  0.0848
    7MOL    H10 1822   4.724   3.415   0.013  0.7448 -1.6815  0.9749
    7MOL    H11 1823   4.707   3.664   0.038  0.8903 -0.6647 -0.6101
    7MOL    H12 1824   4.484   3.715   0.067  1.6966 -1.2532 -1.0580
    7MOL    H13 1825   4.270   3.666   0.185  0.9937  0.6163 -0.1600
    7MOL    H14 1826   4.275   3.528   0.394 -1.5406  0.6402 -2.4779
    7MOL    H15 1827   4.498   3.419   0.459  2.5574  0.4833 -0.8724
    7MOL    H16 1828   4.877   3.499   0.010 -0.9090 -1.8852 -1.8179
    7MOL    C17 1829   4.817   3.683   0.213  0.4510  0.0967 -0.1160
    7MOL    C18 1830   4.779   3.827   0.203 -0.6157 -0.5225 -0.4998
    7MOL    C19 1831   4.855   3.894   0.317  0.3768 -0.7908 -0.3130
    7MOL    C20 1832   4.782   3.929   0.430 -0.0637  1.1776  0.2900
    7MOL    C21 1833   4.847   3.966   0.550  0.5680  0.5782 -0.7588
    7MOL    C22 1834   4.990   3.965   0.547  0.1666 -0.1826  0.1587
    7MOL    C23 1835   5.056   3.941   0.425  0.9634 -0.3914  0.4718
    7MOL    N24 1836   4.990   3.908   0.310  0.2534 -0.2907 -0.4405
    7MOL    H25 1837   4.919   3.672   0.177  1.0722  1.8528  1.0369
    7MOL    H26 1838   4.815   3.642   0.314 -2.4023 -0.5482 -0.3849
    7MOL    H27 1839   4.672   3.833   0.221 -0.4504 -0.8172  0.6192
    7MOL    H28 1840   4.674   3.929   0.435 -0.1107 -0.5763 -0.2524
    7MOL    H29 1841   4.798   3.971   0.647 -0.3418 -2.6643 -0.9833
    7MOL    H30 1842   5.049   3.996   0.632 -0.0311 -0.0552  0.2521
    7MOL    H31 1843   5.160   3.969   0.417  0.8991 -0.1587  0.4489
    7MOL    C32 1844   4.813   3.907   0.071  0.1592  1.0996 -0.0409
    7MOL    C33 1845   4.781   4.055   0.056  0.4585  0.5386  0.3364
    7MOL    C34 1846   4.820   4.097   8.068 -0.1829 -0.6857 -0.0669
    7MOL    C35 1847   4.946   4.161   8.060 -0.2759  0.2311  0.8483
    7MOL    C36 1848   4.999   4.179   7.927 -0.2536  0.2306  0.5533
    7MOL    C37 1849   4.915   4.151   7.821  0.0148  0.1610 -0.5955
    7MOL    C38 1850   4.779   4.110   7.841 -1.2699 -0.0235  0.4901
    7MOL    N39 1851   4.738   4.072   7.962  0.0819  0.0180 -0.5019
    7MOL    H40 1852   4.762   3.854   8.141 -1.7307  1.3193  0.9640
    7MOL    H41 1853   4.917   3.890   0.043 -0.1116 -1.7507  0.4685
    7MOL    H42 1854   4.839   4.107   0.133  0.7040  0.6841  0.0543
    7MOL    H43 1855   5.000   4.187   8.150  0.7052 -0.5038  0.4786
    7MOL    H44 1856   5.098   4.222   7.914 -0.1659  0.4193  1.8036
    7MOL    H45 1857   4.946   4.167   7.718  1.5390  1.0441 -0.0093
    7MOL    H46 1858   4.720   4.098   7.751 -0.0566 -0.2265 -0.2857
    7MOL    C47 1859   4.640   4.083   0.094 -0.0094 -0.1736 -0.2435
    7MOL    C48 1860   4.592   4.226   0.067 -0.9904 -0.3912 -0.2986
    7MOL    C49 1861   4.445   4.250   0.106  0.1349  0.0929 -0.3955
    7MOL    C50 1862   4.339   4.281   0.016 -0.2116 -0.4353  0.1830
    7MOL    C51 1863   4.206   4.289   0.049  0.3125  0.1437  0.0961
    7MOL    C52 1864   4.183   4.287   0.185  0.5953  0.5920 -0.2292
    7MOL    C53 1865   4.287   4.267   0.275  0.2391  0.4694 -0.2134
    7MOL    N54 1866   4.419   4.241   0.238 -0.1598  0.8962  0.3601
    7MOL    H55 1867   4.626   4.067   0.201 -0.5978 -1.8243 -0.5550
    7MOL    H56 1868   4.576   4.014   0.040 -0.3571 -0.6707  0.7839
    7MOL    H57 1869   4.573   4.227   8.111 -2.1840  0.5192 -0.0904
    7MOL    H58 1870   4.365   4.278   8.063  3.4162 -0.6216  1.0386
    7MOL    H59 1871   4.130   4.294   8.125 -0.3476  2.0596  0.8697
    7MOL    H60 1872   4.084   4.290   0.228  1.2006  0.8083  1.1702
    7MOL    H61 1873   4.280   4.267   0.383  0.0721 -0.7845 -0.2201
    7MOL    C62 1874   4.692   4.330   0.115  0.0698 -0.2061  0.2130
    7MOL    C63 1875   4.648   4.474   0.120  0.2347  0.4201  0.5257
    7MOL    C64 1876   4.725   4.549   0.231 -0.7471  0.0510 -0.4764
    7MOL    C65 1877   4.664   4.609   0.346  0.4475  0.2007  0.0621
    7MOL    C66 1878   4.743   4.685   0.430 -1.5347  0.1040  0.3928
    7MOL    C67 1879   4.881   4.679   0.412 -0.0022  0.4792  0.2004
    7MOL    C68 1880   4.943   4.609   0.304  0.3244  0.1673 -0.4616
    7MOL    N69 1881   4.863   4.548   0.212  0.2468  0.6443 -0.0484
    7MOL    H70 1882   4.786   4.329   0.060  0.4405  1.0898  0.7992
    7MOL    H71 1883   4.720   4.314   0.219 -0.1025 -1.2395  0.0989
    7MOL    H72 1884   4.542   4.467   0.146  0.3771  0.8149  1.2378
    7MOL    H73 1885   4.558   4.595   0.363  0.5557 -1.3061 -0.4227
    7MOL    H74 1886   4.702   4.732   0.518 -2.6274  2.8877 -1.5023
    7MOL    H75 1887   4.950   4.728   0.480 -0.8358  2.0759 -0.0745
    7MOL    H76 1888   5.048   4.585   0.292  0.6918  2.1644 -1.5937
    7MOL    C77 1889   4.654   4.546   8.131 -0.1019 -0.0937  0.1244
    7MOL    C78 1890   4.574   4.678   8.120  0.1156  0.1025  0.4349
    7MOL    C79 1891   4.620   4.758   7.998 -0.4364  0.1083 -0.2888
    7MOL    C80 1892   4.647   4.894   8.002  0.0667 -0.0417 -0.9294
    7MOL    C81 1893   4.667   4.968   7.891 -0.5604  0.2085  0.7745
    7MOL    C82 1894   4.654   4.904   7.764  0.3147 -0.0318  0.2719
    7MOL    C83 1895   4.626   4.764   7.768  0.1721 -0.0989  0.6453
    7MOL    N84 1896   4.614   4.695   7.883  1.2625  0.1813 -0.1858
    7MOL    H85 1897   4.620   4.472   8.058  0.1846  2.2624 -2.4766
    7MOL    H86 1898   4.760   4.561   8.113  0.2352 -1.2918  1.0452
    7MOL    H87 1899   4.608   4.748   0.045  0.3462  1.2040 -0.6556
    7MOL    H88 1900   4.640   4.928   8.105 -0.5263 -0.1467 -0.9309
    7MOL    H89 1901   4.682   5.075   7.895 -0.6534  0.1521  3.5004
    7MOL    H90 1902   4.672   4.966   7.678  0.5112 -0.3668  0.0674
    7MOL    H91 1903   4.614   4.714   7.672 -0.3193 -2.7573  2.0373
    7MOL    C92 1904   4.418   4.657   8.127  1.1098 -0.3416  0.8941
    7MOL    C93 1905   4.353   4.741   0.086 -0.2787 -0.4649 -0.2022
    7MOL    C94 1906   4.328   4.889   0.052 -0.0699 -0.4495  0.0727
    7MOL    C95 1907   4.384   4.998   0.126 -0.0749  0.6984 -0.3887
    7MOL    C96 1908   4.359   5.131   0.078 -0.0930  0.1055  0.2986
    7MOL    C97 1909   4.267   5.145   8.130 -0.1151 -0.6584 -0.3824
    7MOL    C98 1910   4.210   5.034   8.074 -0.4575 -0.1467  0.8366
    7MOL    N99 1911   4.234   4.908   8.107 -0.7972  0.1354  0.4210
    7MOL   H100 1912   4.393   4.554   0.001 -2.6168  0.3565  0.4497
    7MOL   H101 1913   4.374   4.684   8.031 -0.4352  0.8479  1.9064
    7MOL   H102 1914   4.412   4.741   0.177  0.3012  1.6431 -0.5545
    7MOL   H103 1915   4.443   4.977   0.214 -2.3984  2.6681  1.7021
    7MOL   H104 1916   4.405   5.214   0.130  1.4288  0.6332 -1.8246
    7MOL   H105 1917   4.247   5.240   8.082 -1.4524 -1.1130 -0.7601
    7MOL   H106 1918   4.132   5.046   8.000  0.5915 -1.9133 -0.5733
    7MOL   C107 1919   4.227   4.677   0.130  0.3417  0.5732  0.2682
    7MOL   C108 1920   4.139   4.754   0.235 -0.1636 -0.1841  0.4278
    7MOL   C109 1921   3.998   4.692   0.229  0.2118  0.9050 -0.1866
    7MOL   C110 1922   3.903   4.747   0.142  0.1612 -0.5752 -0.2483
    7MOL   C111 1923   3.774   4.690   0.132 -0.1013 -0.3255 -0.5374
    7MOL   C112 1924   3.750   4.573   0.203 -0.2052  0.3974  0.0193
    7MOL   C113 1925   3.856   4.516   0.282  0.7257  0.0583 -0.2653
    7MOL   N114 1926   3.975   4.584   0.298  0.1424 -0.3724 -0.0637
    7MOL   H115 1927   4.245   4.575   0.165  1.3291  0.8533  0.5708
    7MOL   H116 1928   4.172   4.676   0.035  0.6916  3.2903  0.0034
    7MOL   H117 1929   4.124   4.855   0.197  2.7057  0.7776  1.6905
    7MOL   H118 1930   3.925   4.828   0.073  0.1510 -0.6898 -0.3866
    7MOL   H119 1931   3.702   4.728   0.062 -1.3395 -1.5521  0.0466
    7MOL   H120 1932   3.655   4.521   0.196  2.1950 -4.2372  0.2283
    7MOL   H121 1933   3.850   4.423   0.337 -0.9453  0.7262  0.7524
    7MOL   C122 1934   4.195   4.768   0.380  0.5879 -0.1239  0.1104
    7MOL   C123 1935   4.097   4.830   0.477  0.3112 -0.1898 -0.3444
    7MOL   C124 1936   4.129   4.781   0.617  0.4513 -0.4393  0.2944
    7MOL   C125 1937   4.036   4.688   0.677 -0.5609  0.6944  0.0253
    7MOL   C126 1938   4.063   4.648   0.811  0.1032  0.1367  0.3553
    7MOL   C127 1939   4.178   4.693   0.877 -0.2132  0.4097 -0.3253
    7MOL   C128 1940   4.274   4.777   0.810  0.4661  0.5947  0.1561
    7MOL   N129 1941   4.246   4.820   0.683 -0.1666 -0.7019  0.3291
    7MOL   H130 1942   4.280   4.837   0.387 -0.1220  0.6956  0.8077
    7MOL   H131 1943   4.222   4.671   0.421 -0.3313 -0.3770  0.1081
    7MOL   H132 1944   3.999   4.786   0.459 -0.5193  1.3221  0.3921
    7MOL   H133 1945   3.944   4.657   0.630 -1.0495  1.4803  0.4501
    7MOL   H134 1946   3.982   4.592   0.855 -1.2287  0.6282 -1.4279
    7MOL   H135 1947   4.186   4.695   0.985  0.8320  0.9927 -0.4105
    7MOL   H136 1948   4.363   4.825   0.848  3.1895 -2.1764 -2.4763
    7MOL   C137 1949   4.105   4.988   0.454 -0.5926 -0.3383  0.5015
    7MOL   C138 1950   3.997   5.055   0.537  1.2724 -0.2906 -0.0357
    7MOL   C139 1951   4.027   5.193   0.579 -0.0135 -0.5404 -0.2309
    7MOL   C140 1952   4.054   5.227   0.712  0.0786 -0.3982  0.0878
    7MOL   C141 1953   4.077   5.363   0.742 -0.5848 -0.1250  0.1141
    7MOL   C142 1954   4.058   5.457   0.637 -0.1449 -0.2272  0.2507
    7MOL   C143 1955   4.035   5.412   0.511  0.3704  0.9387 -1.3830
    7MOL   N144 1956   4.010   5.283   0.478  0.3053  0.2232 -0.8274
    7MOL   H145 1957   4.100   5.017   0.349 -0.0202 -1.8369  0.0478
    7MOL   H146 1958   4.201   5.033   0.478  0.5871 -2.2694 -0.4402
    7MOL   H147 1959   4.002   5.001   0.631 -2.1537  1.2455  1.1183
    7MOL   H148 1960   4.067   5.149   0.786  0.8420  0.4503  0.8736
    7MOL   H149 1961   4.109   5.390   0.841  0.1564  1.4455 -0.5365
    7MOL   H150 1962   4.077   5.561   0.661  0.9473 -0.8188  2.1364
    7MOL   H151 1963   4.034   5.483   0.429 -1.0309  3.3484  0.6460
    7MOL   C152 1964   3.849   5.040   0.496  0.1881  0.0553  0.1523
    7MOL   C153 1965   3.749   5.028   0.613  0.0273 -0.5863 -0.2549
    7MOL   C154 1966   3.612   5.058   0.569 -0.5502 -0.2101 -0.5359
    7MOL   C155 1967   3.540   5.155   0.632  0.4213 -0.2667 -0.0066
    7MOL   C156 1968   3.408   5.195   0.589 -0.0210  0.6576 -0.5137
    7MOL   C157 1969   3.352   5.120   0.481  0.0658 -0.4356  0.2036
    7MOL   C158 1970   3.428   5.011   0.423  0.3440 -0.6403  0.5682
    7MOL   N159 1971   3.562   4.993   0.459 -0.4576 -0.0880 -0.4884
    7MOL   H160 1972   3.833   4.962   0.422 -0.4191 -0.2252  0.5787
    7MOL   H161 1973   3.818   5.127   0.439  0.2169  1.1444  1.7524
    7MOL   H162 1974   3.781   5.093   0.694 -2.0096 -1.4253  1.2686
    7MOL   H163 1975   3.589   5.207   0.714 -1.3838  0.0385  0.9026
    7MOL   H164 1976   3.367   5.285   0.633  1.5373  2.3266 -2.3287
    7MOL   H165 1977   3.255   5.156   0.450  1.4052  1.7878 -1.6546
    7MOL   H166 1978   3.389   4.945   0.346  2.8414  1.5627 -2.7444
    7MOL   C167 1979   3.745   4.885   0.676  0.0322  0.7669 -0.0548
    7MOL   C168 1980   3.652   4.864   0.801 -0.4989  0.2384  0.2707
    7MOL   C169 1981   3.614   4.718   0.826 -0.2927  0.0439  0.2617
    7MOL   C170 1982   3.484   4.671   0.811  0.0270 -0.7748 -0.2356
    7MOL   C171 1983   3.450   4.546   0.855 -0.1216  0.3040  0.6953
    7MOL   C172 1984   3.554   4.467   0.902  0.2135 -0.1929 -0.1186
    7MOL   C173 1985   3.683   4.518   0.915 -0.1711 -0.0330  0.6114
    7MOL   N174 1986   3.714   4.645   0.876 -0.1430  0.1987  0.7605
    7MOL   H175 1987   3.848   4.858   0.697 -0.4014 -0.5833  0.3996
    7MOL   H176 1988   3.700   4.824   0.597 -1.5266 -0.0236  1.4111
    7MOL   H177 1989   3.558   4.912   0.777 -1.2232 -1.5782 -0.6452
    7MOL   H178 1990   3.402   4.735   0.781  2.7925  2.5604 -0.9910
    7MOL   H179 1991   3.351   4.504   0.855 -0.1221  0.2763 -0.4039
    7MOL   H180 1992   3.536   4.370   0.946 -0.0870 -0.4202 -0.7339
    7MOL   H181 1993   3.760   4.457   0.959 -1.2460  0.8836  3.9346
    7MOL   C182 1994   3.708   4.939   0.926 -0.1570 -0.7096  0.8303
    7MOL   C183 1995   3.612   4.934   1.047 -0.4651 -0.6502 -0.0634
    7MOL   C184 1996   3.686   4.949   1.175  0.2106 -0.6415  0.1123
    7MOL   C185 1997   3.687   4.851   1.270 -0.3535 -0.0165 -0.3207
    7MOL   C186 1998   3.761   4.871   1.388 -0.2512  0.2043 -0.3677
    7MOL   C187 1999   3.830   4.991   1.409  0.6977  0.2391  0.0948
    7MOL   C188 2000   3.819   5.084   1.304  0.0817  0.0193 -0.3314
    7MOL   N189 2001   3.751   5.065   1.189 -0.4492  0.3594 -0.1937
    7MOL   H190 2002   3.726   5.044   0.903  1.5056 -1.3818 -1.1354
    7MOL   H191 2003   3.805   4.896   0.953  0.4371  0.5492  0.7369
    7MOL   H192 2004   3.571   4.833   1.053 -0.6592 -0.5205  0.9534
    7MOL   H193 2005   3.632   4.762   1.245 -0.8261  0.7895 -2.1850
    7MOL   H194 2006   3.769   4.800   1.470 -2.5359  1.2566  0.8160
    7MOL   H195 2007   3.875   5.010   1.505  1.0309 -2.4873  0.5148
    7MOL   H196 2008   3.857   5.185   1.315 -1.5695  0.7027 -0.6557
    7MOL   C197 2009   3.500   5.039   1.039 -0.0523 -0.6018  0.7406
    7MOL   C198 2010   3.363   4.978   1.073 -0.5379  0.1692 -0.4181
    7MOL   C199 2011   3.354   4.919   1.222  0.0746  0.1320 -0.4508
    7MOL   C200 2012   3.335   4.784   1.239  0.0595 -0.0762 -0.2282
    7MOL   C201 2013   3.328   4.731   1.375  0.4448 -1.0597  0.9843
    7MOL   C202 2014   3.346   4.825   1.477 -0.6090 -0.5716 -0.5755
    7MOL   C203 2015   3.366   4.961   1.448  0.4964  0.6265 -1.0055
    7MOL   N204 2016   3.368   5.009   1.321  0.8755 -0.3919  0.0816
    7MOL   H205 2017   3.494   5.084   0.940  0.7500 -1.3067  0.3646
    7MOL   H206 2018   3.518   5.124   1.105 -1.8128 -0.6713  1.3245
    7MOL   H207 2019   3.347   4.900   0.999  0.2504  0.1257 -0.5428
    7MOL   H208 2020   3.319   4.718   1.154 -0.9915 -3.2475  2.3013
    7MOL   H209 2021   3.302   4.629   1.400  2.2390 -2.1516 -1.3875
    7MOL   H210 2022   3.340   4.790   1.579  1.9466  1.6444  0.4042
    7MOL   H211 2023   3.379   5.031   1.530  3.3274  1.3034 -1.9796
    7MOL   C212 2024   3.255   5.083   1.042  0.0087  0.0843  0.0306
    7MOL   C213 2025   3.117   5.062   1.093 -0.2550  0.2058  1.1182
    7MOL   C214 2026   3.025   5.173   1.051 -0.2251  0.3021  0.9227
    7MOL   C215 2027   2.978   5.268   1.142 -0.0595 -0.2416  0.5116
    7MOL   C216 2028   2.913   5.386   1.094 -0.9368 -0.2117  0.1365
    7MOL   C217 2029   2.896   5.397   0.955 -0.0965  0.9916  0.3978
    7MOL   C218 2030   2.940   5.289   0.878 -0.1775  0.9202  0.0669
    7MOL   N219 2031   3.013   5.181   0.918 -0.2420 -0.1867  0.3374
    7MOL   H220 2032   3.245   5.092   0.933 -2.0480  0.0741  0.2171
    7MOL   H221 2033   3.287   5.180   1.079  0.1591  0.8130 -1.9620
    7MOL   H222 2034   3.118   5.065   1.202 -0.8199  1.8994  1.0786
    7MOL   H223 2035   2.976   5.255   1.249  0.2878 -2.2450  0.2997
    7MOL   H224 2036   2.879   5.468   1.157 -0.9618 -0.7931  0.8751
    7MOL   H225 2037   2.840   5.482   0.917 -0.9792  0.1674 -0.1927
    7MOL   H226 2038   2.911   5.284   0.774 -0.7489  0.8942  0.2265
    7MOL   C227 2039   3.059   4.923   1.058  0.0343  0.2629 -0.1598
    7MOL   C228 2040   2.907   4.904   1.042  0.0637 -0.3895 -0.0428
    7MOL   C229 2041   2.882   4.758   0.990  0.0800 -0.4314 -0.3470
    7MOL   C230 2042   2.799   4.742   0.881  0.6385  0.6524 -0.1601
    7MOL   C231 2043   2.768   4.615   0.836  0.7171 -0.7458 -0.0406
    7MOL   C232 2044   2.814   4.503   0.909  0.8545  0.0950 -0.0840
    7MOL   C233 2045   2.896   4.527   1.018  0.2860  0.3334 -0.9449
    7MOL   N234 2046   2.931   4.649   1.061  0.3039  0.0376  0.1358
    7MOL   H235 2047   3.098   4.847   1.125  0.3462  0.7670  0.2334
    7MOL   H236 2048   3.109   4.902   0.963  0.1436 -0.7591  0.1165
    7MOL   H237 2049   2.875   4.980   0.971 -1.1231 -0.6862  0.1653
    7MOL   H238 2050   2.766   4.824   0.818 -2.6251 -1.9937 -2.0390
    7MOL   H239 2051   2.705   4.600   0.749  0.3778 -0.4135  0.1469
    7MOL   H240 2052   2.794   4.400   0.884  2.9324  0.0021 -1.4754
    7MOL   H241 2053   2.932   4.444   1.077 -0.1619  0.0761 -1.0305
    7MOL   C242 2054   2.818   4.936   1.170  0.5094  0.1223  0.8431
    7MOL   C243 2055   2.670   4.968   1.139  0.1944  0.0718 -0.2302
    7MOL   C244 2056   2.584   4.934   1.257 -0.0357  0.7423  0.2524
    7MOL   C245 2057   2.496   4.824   1.255 -0.0043  0.3900  0.3692
    7MOL   C246 2058   2.415   4.797   1.368 -0.1933  0.2204 -0.3407
    7MOL   C247 2059   2.415   4.885   1.476 -0.2280 -0.4448 -0.5141
    7MOL   C248 2060   2.510   4.989   1.474 -0.5450  0.4190 -0.1487
    7MOL   N249 2061   2.592   5.010   1.365 -0.1014  0.5357 -0.3396
    7MOL   H250 2062   2.849   5.018   1.234  0.6524 -0.3010  1.3145
    7MOL   H251 2063   2.814   4.851   1.237 -2.0712  1.4216  2.4111
    7MOL   H252 2064   2.645   4.888   1.069  2.0535  0.0096 -0.8415
    7MOL   H253 2065   2.506   4.758   1.170  1.4707  1.9658 -0.7104
    7MOL   H254 2066   2.349   4.712   1.374 -0.8587  0.8434  1.6746
    7MOL   H255 2067   2.362   4.854   1.565 -0.0470 -0.9604 -0.5825
    7MOL   H256 2068   2.531   5.055   1.557  1.0363  0.2285 -0.3795
    7MOL   C257 2069   2.635   5.102   1.074 -0.6447  0.0077  0.0610
    7MOL   C258 2070   2.508   5.105   0.985 -0.5547  0.6597 -0.2839
    7MOL   C259 2071   2.459   5.255   0.969  0.1133 -0.0164 -0.5644
    7MOL   C260 2072   2.328   5.295   0.986  0.3798  0.1287  0.3350
    7MOL   C261 2073   2.285   5.422   0.941 -0.7671  0.3896  0.7647
    7MOL   C262 2074   2.378   5.510   0.888  0.3786 -0.3082  0.2497
    7MOL   C263 2075   2.513   5.464   0.882  0.8413 -1.0887 -0.0440
    7MOL   N264 2076   2.549   5.339   0.911  0.5200  0.9475 -0.0044
    7MOL   H265 2077   2.719   5.151   1.026 -0.5050 -0.0784  0.2147
    7MOL   H266 2078   2.634   5.177   1.153  0.6388  0.5793 -0.4508
    7MOL   H267 2079   2.434   5.053   1.047  1.1109 -1.3637  0.0690
    7MOL   H268 2080   2.253   5.232   1.032  2.1927 -0.0440  3.1847
    7MOL   H269 2081   2.180   5.445   0.957 -0.3138  1.2238  2.6674
    7MOL   H270 2082   2.351   5.610   0.855 -3.6094 -1.4471 -0.2430
    7MOL   H271 2083   2.600   5.521   0.855  1.4228 -1.5521  0.8287
    7MOL   C272 2084   2.532   5.027   0.853 -0.3515 -0.0129  0.4578
    7MOL   C273 2085   2.404   5.025   0.760 -0.2345 -0.6280  0.2296
    7MOL   C274 2086   2.436   5.027   0.614 -0.4944  0.0525  0.7715
    7MOL   C275 2087   2.391   5.124   0.516 -0.3038  0.2988  0.1193
    7MOL   C276 2088   2.414   5.090   0.382 -0.3347  0.3041 -0.1816
    7MOL   C277 2089   2.484   4.979   0.345  0.0064  0.2315 -0.0609
    7MOL   C278 2090   2.534   4.902   0.450  0.2869 -0.0980 -0.6279
    7MOL   N279 2091   2.509   4.921   0.584  0.0323 -0.4206  0.5628
    7MOL   H280 2092   2.565   4.925   0.876 -0.5480 -0.0677  0.5010
    7MOL   H281 2093   2.616   5.068   0.797 -2.2247  2.5552 -0.5611
    7MOL   H282 2094   2.360   5.122   0.783  0.2259 -0.8743  2.2452
    7MOL   H283 2095   2.328   5.211   0.531  0.5532  0.9599 -0.0761
    7MOL   H284 2096   2.373   5.157   0.308  0.6063  0.1266 -0.8801
    7MOL   H285 2097   2.503   4.943   0.245  1.3024  2.5736 -0.7103
    7MOL   H286 2098   2.596   4.814   0.436 -0.3317 -0.9472  1.7192
    7MOL   C287 2099   2.295   4.925   0.815 -0.6860  0.3169 -0.7035
    7MOL   C288 2100   2.154   4.954   0.752 -0.5312 -0.6696  0.0954
    7MOL   C289 2101   2.084   5.081   0.791 -0.6037  0.4948 -0.1301
    7MOL   C290 2102   2.008   5.082   0.910  0.5990 -0.2589  0.1137
    7MOL   C291 2103   1.935   5.201   0.934 -0.0119 -0.2763  0.2074
    7MOL   C292 2104   1.946   5.307   0.847 -0.5970 -0.3749  0.2916
    7MOL   C293 2105   2.034   5.295   0.737 -0.2483 -0.1321  0.6555
    7MOL   N294 2106   2.108   5.184   0.712  0.2530  0.1661  0.9102
    7MOL   H295 2107   2.282   4.931   0.923 -0.4923 -0.0958 -0.6582
    7MOL   H296 2108   2.334   4.826   0.791 -0.9381 -0.2379  1.1174
    7MOL   H297 2109   2.085   4.870   0.766 -0.9761 -0.5484 -1.3323
    7MOL   H298 2110   2.004   4.993   0.972 -3.1777  0.5829  1.2172
    7MOL   H299 2111   1.872   5.202   1.021  1.2036  2.5488  1.1036
    7MOL   H300 2112   1.903   5.407   0.849  0.3987  0.0675 -0.0311
    7MOL   H301 2113   2.054   5.383   0.679 -1.2186 -0.5109 -0.2654
    7MOL   H302 2114   2.169   4.948   0.644 -0.4608  0.4345  0.0352
    8MOL     C1 2115   7.723   4.402   2.584 -0.2487  0.4808 -0.3616
    8MOL     C2 2116   7.822   4.341   2.681 -0.4086 -0.3559 -0.2223
    8MOL     C3 2117   7.916   4.247   2.615 -0.0872 -0.0558  0.6530
    8MOL     C4 2118   7.907   4.108   2.635  0.7121 -0.2431  0.2948
    8MOL     C5 2119   8.002   4.018   2.575  1.0496 -0.4112  0.0032
    8MOL     C6 2120   8.102   4.071   2.497 -0.7799  0.0186  0.5861
    8MOL     C7 2121   8.112   4.212   2.485 -0.8863  0.0170 -0.3372
    8MOL     N8 2122   8.025   4.297   2.550 -0.8495  0.0352 -0.3206
    8MOL     H9 2123   7.658   4.470   2.640 -0.3924  0.0102  0.0494
    8MOL    H10 2124   7.778   4.463   2.513  1.6964 -0.2926  0.4533
    8MOL    H11 2125   7.756   4.276   2.740 -0.5485 -1.0819 -1.1697
    8MOL    H12 2126   7.829   4.072   2.701 -1.2189  2.5651 -0.3906
    8MOL    H13 2127   7.986   3.912   2.590 -1.2603  0.1752  1.9098
    8MOL    H14 2128   0.026   4.010   2.450 -0.6099  1.7651 -1.4595
    8MOL    H15 2129   0.043   4.257   2.434 -0.7459  0.7809  0.5490
    8MOL    H16 2130   7.656   4.333   2.532  0.0610 -0.6203  0.6537
    8MOL    C17 2131   7.895   4.420   2.795 -0.2507  0.3504  0.0190
    8MOL    C18 2132   7.803   4.461   2.919  0.0902  0.3964 -1.0009
    8MOL    C19 2133   7.766   4.340   3.001 -0.4732 -0.1401  0.4209
    8MOL    C20 2134   7.853   4.274   3.088  0.8466  0.1344  0.2655
    8MOL    C21 2135   7.810   4.154   3.148  0.6525 -0.0155 -0.0949
    8MOL    C22 2136   7.682   4.114   3.128  1.2173 -0.0315  0.1449
    8MOL    C23 2137   7.600   4.191   3.044  0.0750  0.7633 -0.0437
    8MOL    N24 2138   7.642   4.291   2.970 -0.0433 -0.6334  0.5490
    8MOL    H25 2139   7.935   4.510   2.750  2.1220  0.0839  1.5197
    8MOL    H26 2140   7.989   4.371   2.821 -0.2683 -0.7379 -1.8516
    8MOL    H27 2141   7.708   4.490   2.876 -0.3480  0.3647 -0.0752
    8MOL    H28 2142   7.957   4.302   3.099  0.3307  2.8671 -1.5185
    8MOL    H29 2143   7.875   4.085   3.201 -0.0459 -1.6249 -1.3073
    8MOL    H30 2144   7.639   4.034   3.187  0.8213 -0.0620 -0.1890
    8MOL    H31 2145   7.508   4.144   3.013  2.0307 -2.2364 -1.5160
    8MOL    C32 2146   7.866   4.582   2.995  0.2003 -0.0820 -0.2439
    8MOL    C33 2147   7.806   4.617   3.130 -0.6339  0.3592  0.0756
    8MOL    C34 2148   7.879   4.738   3.187  0.1306  0.0398 -0.1337
    8MOL    C35 2149   7.917   4.756   3.322  0.6037 -0.0675 -0.1949
    8MOL    C36 2150   7.976   4.880   3.361 -0.0723 -0.4936 -0.1998
    8MOL    C37 2151   7.982   4.979   3.264  0.4179 -0.7617 -0.7718
    8MOL    C38 2152   7.938   4.959   3.139  0.0947 -0.4089 -0.3439
    8MOL    N39 2153   7.878   4.847   3.103  0.7850 -0.0521  0.3612
    8MOL    H40 2154   7.859   4.664   2.923 -1.0086 -0.6281 -0.7582
    8MOL    H41 2155   7.973   4.565   3.006  0.3867  1.2680  0.0920
    8MOL    H42 2156   7.834   4.535   3.196  1.6060  0.1508 -1.0572
    8MOL    H43 2157   7.917   4.673   3.391  2.4014  0.7970  0.9012
    8MOL    H44 2158   8.008   4.898   3.463 -2.3483  1.6616  0.1979
    8MOL    H45 2159   8.027   5.070   3.301 -1.4524 -0.1549  0.0902
    8MOL    H46 2160   7.936   5.040   3.068  0.4281 -0.4936 -0.4496
    8MOL    C47 2161   7.654   4.652   3.121 -0.5935  0.7591  0.4265
    8MOL    C48 2162   7.553   4.574   3.216 -0.8230 -0.0301  0.4739
    8MOL    C49 2163   7.580   4.608   3.359 -0.0850 -0.3015 -0.0841
    8MOL    C50 2164   7.545   4.738   3.407 -0.0969  1.4900 -0.6043
    8MOL    C51 2165   7.568   4.764   3.541 -0.3051 -0.1882 -0.0656
    8MOL    C52 2166   7.627   4.666   3.620  0.2055  0.9001 -0.2825
    8MOL    C53 2167   7.658   4.537   3.565 -0.0727 -0.3205 -0.2841
    8MOL    N54 2168   7.631   4.512   3.436 -0.1883  0.5105 -0.3117
    8MOL    H55 2169   7.624   4.640   3.017 -0.5093  0.6054  0.4194
    8MOL    H56 2170   7.631   4.756   3.143 -0.8539  0.7014  0.4360
    8MOL    H57 2171   7.581   4.470   3.199 -1.7569 -0.1917 -0.0864
    8MOL    H58 2172   7.511   4.821   3.346 -1.3202  1.6083  0.2229
    8MOL    H59 2173   7.541   4.862   3.579  0.3837  0.3104 -0.8445
    8MOL    H60 2174   7.644   4.681   3.726 -0.4631  0.0189 -0.0422
    8MOL    H61 2175   7.719   4.469   3.623  0.5615  0.1949 -0.3370
    8MOL    C62 2176   7.408   4.589   3.169  1.2619  0.7858 -0.4156
    8MOL    C63 2177   7.301   4.509   3.247  0.2814  0.3001 -0.0232
    8MOL    C64 2178   7.162   4.554   3.200 -0.2167  0.0981  0.2774
    8MOL    C65 2179   7.121   4.541   3.065 -0.6691  0.1295  0.3190
    8MOL    C66 2180   6.997   4.586   3.025 -0.1473 -0.1440  0.3738
    8MOL    C67 2181   6.921   4.657   3.120 -0.5188  0.3633  0.3036
    8MOL    C68 2182   6.961   4.669   3.255  0.0856 -0.1393  0.0169
    8MOL    N69 2183   7.082   4.614   3.290  0.1324 -0.2783  0.1637
    8MOL    H70 2184   7.392   4.560   3.065  1.5431 -1.7781  0.2100
    8MOL    H71 2185   7.374   4.692   3.179 -0.2179  0.4132 -1.4271
    8MOL    H72 2186   7.309   4.554   3.346  2.9406  0.6957 -0.3786
    8MOL    H73 2187   7.183   4.482   2.999  0.4103  2.7001 -1.0462
    8MOL    H74 2188   6.964   4.559   2.926 -1.3973  0.3622  0.6423
    8MOL    H75 2189   6.828   4.700   3.085 -0.8096 -0.9717 -0.5719
    8MOL    H76 2190   6.901   4.723   3.328 -0.3980 -0.1258 -0.3907
    8MOL    C77 2191   7.321   4.360   3.228  0.2666  1.1237  0.0119
    8MOL    C78 2192   7.223   4.271   3.307  0.3433  0.0633  0.8748
    8MOL    C79 2193   7.277   4.131   3.304  1.3125  0.6428  0.7391
    8MOL    C80 2194   7.393   4.103   3.377  0.3772 -1.1945  0.0477
    8MOL    C81 2195   7.434   3.973   3.391 -0.3796  0.2937 -0.7263
    8MOL    C82 2196   7.363   3.877   3.319 -0.1457 -0.3828  0.3936
    8MOL    C83 2197   7.254   3.912   3.237  0.3677  0.0032  0.2459
    8MOL    N84 2198   7.204   4.037   3.241 -0.6269 -0.5180  0.3531
    8MOL    H85 2199   7.425   4.334   3.252  0.4248  0.9793 -0.8252
    8MOL    H86 2200   7.320   4.328   3.124 -1.5925 -1.9344  0.9071
    8MOL    H87 2201   7.133   4.261   3.246  1.3025  0.9427 -0.6954
    8MOL    H88 2202   7.454   4.183   3.416 -1.5381 -0.3419  1.3975
    8MOL    H89 2203   7.532   3.956   3.434 -0.1683  0.2029 -1.2378
    8MOL    H90 2204   7.400   3.775   3.323  1.2623  0.1961  2.4420
    8MOL    H91 2205   7.204   3.838   3.177  1.2628 -1.1786  0.9520
    8MOL    C92 2206   7.185   4.321   3.441  0.5447  0.4624 -0.5060
    8MOL    C93 2207   7.099   4.233   3.541 -0.1719  0.2165  0.3828
    8MOL    C94 2208   7.099   4.295   3.682  0.5571 -0.0769 -0.5709
    8MOL    C95 2209   7.089   4.220   3.800  0.0483  0.5042  0.3341
    8MOL    C96 2210   7.072   4.280   3.925 -0.6616  0.6114  0.0662
    8MOL    C97 2211   7.053   4.419   3.928  0.4285  0.2451  0.3052
    8MOL    C98 2212   7.053   4.487   3.809 -0.5771 -0.0855  0.3159
    8MOL    N99 2213   7.082   4.428   3.689 -0.2467  0.2730 -0.2260
    8MOL   H100 2214   7.123   4.410   3.436 -1.2071 -0.7941 -1.7379
    8MOL   H101 2215   7.281   4.347   3.487  2.3259  1.7963 -4.7356
    8MOL   H102 2216   7.155   4.140   3.532 -0.5079  0.2217 -2.1640
    8MOL   H103 2217   7.092   4.113   3.789 -1.2989  0.4200  0.7251
    8MOL   H104 2218   7.070   4.226   4.018 -0.9098  0.2251 -0.1606
    8MOL   H105 2219   7.044   4.473   4.021  0.7296  1.0289 -0.1134
    8MOL   H106 2220   7.043   4.594   3.807  1.4531  0.1049 -1.9027
    8MOL   C107 2221   6.953   4.210   3.497  0.2990 -0.6757  0.2866
    8MOL   C108 2222   6.873   4.088   3.538 -0.2318 -0.3389 -0.1514
    8MOL   C109 2223   6.726   4.106   3.509  0.3276  0.8418 -0.1726
    8MOL   C110 2224   6.633   4.133   3.610  0.4939  0.2914  0.4973
    8MOL   C111 2225   6.495   4.153   3.569 -0.4089 -0.3274  1.0049
    8MOL   C112 2226   6.460   4.148   3.433 -0.5979 -0.5485  0.3814
    8MOL   C113 2227   6.567   4.128   3.343 -0.7478  0.2690  0.9361
    8MOL   N114 2228   6.699   4.102   3.377  0.0555  0.0199  0.0311
    8MOL   H115 2229   6.954   4.224   3.389 -0.0067  0.7163  0.4507
    8MOL   H116 2230   6.901   4.299   3.533  2.0284  0.0228  1.1145
    8MOL   H117 2231   6.882   4.061   3.643 -0.1962 -2.4035 -0.6776
    8MOL   H118 2232   6.664   4.137   3.714 -0.4907 -1.8152  0.9033
    8MOL   H119 2233   6.413   4.164   3.639 -0.9626  3.2818 -0.1011
    8MOL   H120 2234   6.358   4.155   3.397 -0.5295  2.6630  0.6004
    8MOL   H121 2235   6.544   4.122   3.238 -1.9503  1.3215  1.1344
    8MOL   C122 2236   6.942   3.955   3.467  0.2935  0.5143 -0.5343
    8MOL   C123 2237   6.859   3.821   3.472  0.2183  0.3799 -0.3968
    8MOL   C124 2238   6.948   3.729   3.390  0.3889  0.0522 -0.8788
    8MOL   C125 2239   6.907   3.688   3.264  0.8501 -0.0214 -0.3254
    8MOL   C126 2240   6.996   3.613   3.189  0.1709 -0.3445  0.5770
    8MOL   C127 2241   7.111   3.561   3.244 -0.4923 -1.0575  0.1517
    8MOL   C128 2242   7.146   3.604   3.371  0.4890 -0.0923  0.0795
    8MOL   N129 2243   7.067   3.686   3.445 -0.5766 -0.1901 -0.4719
    8MOL   H130 2244   7.045   3.941   3.500 -0.6355 -2.5504  1.2911
    8MOL   H131 2245   6.961   3.986   3.364  0.2638  0.8409 -0.4435
    8MOL   H132 2246   6.761   3.839   3.426  0.8717  1.4480 -1.4198
    8MOL   H133 2247   6.817   3.725   3.218  1.2342  0.7652 -0.4535
    8MOL   H134 2248   6.973   3.583   3.087 -1.7465 -0.3258  0.9789
    8MOL   H135 2249   7.179   3.494   3.192 -1.8756 -2.8674  0.6060
    8MOL   H136 2250   7.237   3.570   3.419  0.4120 -0.6701 -0.1871
    8MOL   C137 2251   6.843   3.774   3.621  0.4921  0.1091 -0.1470
    8MOL   C138 2252   6.764   3.643   3.635  0.2048  0.0235  0.4449
    8MOL   C139 2253   6.830   3.551   3.733  0.5085 -0.1774  0.0125
    8MOL   C140 2254   6.920   3.443   3.700 -0.1323 -0.4268  0.7127
    8MOL   C141 2255   6.983   3.369   3.800  0.2845  0.0544  0.3224
    8MOL   C142 2256   6.970   3.412   3.936 -0.1992  0.9261 -0.3646
    8MOL   C143 2257   6.885   3.520   3.963  0.4543 -0.4099 -0.0492
    8MOL   N144 2258   6.828   3.594   3.862  0.1541  0.2838 -1.0150
    8MOL   H145 2259   6.789   3.852   3.674 -0.1316 -0.7261  0.4509
    8MOL   H146 2260   6.939   3.768   3.672 -0.5046 -0.6346  1.6751
    8MOL   H147 2261   6.761   3.597   3.536 -1.8476 -0.8524  0.8958
    8MOL   H148 2262   6.922   3.401   3.601  0.7696  1.4793 -0.1136
    8MOL   H149 2263   7.030   3.277   3.767 -1.2001 -1.0581  1.2458
    8MOL   H150 2264   7.027   3.361   4.012  0.4031  1.6031 -0.3485
    8MOL   H151 2265   6.867   3.554   4.063  0.3286  1.5759 -0.7341
    8MOL   C152 2266   6.613   3.663   3.669 -0.8174  0.0221 -0.3720
    8MOL   C153 2267   6.515   3.547   3.638 -0.3336 -0.0905 -0.3047
    8MOL   C154 2268   6.543   3.434   3.731  0.3706  0.0245  0.3508
    8MOL   C155 2269   6.613   3.320   3.683 -0.0124 -0.9265 -0.1717
    8MOL   C156 2270   6.647   3.224   3.776 -0.0624  0.4649  0.2408
    8MOL   C157 2271   6.613   3.243   3.914  0.3533  0.5306  0.6254
    8MOL   C158 2272   6.538   3.353   3.949  0.2092 -0.0383  0.4512
    8MOL   N159 2273   6.507   3.450   3.861  0.9268 -0.5903  0.3545
    8MOL   H160 2274   6.575   3.744   3.607  1.3135  0.6867 -0.8581
    8MOL   H161 2275   6.600   3.690   3.774  2.4371  0.5371 -0.0289
    8MOL   H162 2276   6.541   3.513   3.537 -0.8514  1.0598 -0.8289
    8MOL   H163 2277   6.650   3.318   3.582 -2.3862  1.5757 -1.1430
    8MOL   H164 2278   6.694   3.130   3.750  1.4234  1.2141  0.1344
    8MOL   H165 2279   6.631   3.169   3.989  3.4733 -2.0300 -2.4953
    8MOL   H166 2280   6.513   3.362   4.054  1.4473 -1.2667  0.8762
    8MOL   C167 2281   6.364   3.574   3.631  0.2228 -0.4181  0.2240
    8MOL   C168 2282   6.321   3.676   3.526  1.1019  0.3070 -0.4862
    8MOL   C169 2283   6.408   3.668   3.403  0.3306  0.5193 -0.4957
    8MOL   C170 2284   6.465   3.786   3.360  0.6187 -0.3975  0.4975
    8MOL   C171 2285   6.540   3.786   3.242 -0.7746  0.2353 -0.4839
    8MOL   C172 2286   6.536   3.667   3.170 -0.5192 -0.4316 -0.1606
    8MOL   C173 2287   6.464   3.557   3.214  0.2670  0.6871  0.6388
    8MOL   N174 2288   6.402   3.552   3.333  0.6323  0.5436 -0.6302
    8MOL   H175 2289   6.330   3.605   3.730  1.4809 -1.0500  0.8723
    8MOL   H176 2290   6.317   3.476   3.626 -2.2773  0.7464  0.4577
    8MOL   H177 2291   6.331   3.773   3.575 -3.2069  0.7983 -0.4220
    8MOL   H178 2292   6.453   3.879   3.413  1.0086 -0.3062  0.4239
    8MOL   H179 2293   6.595   3.871   3.206  0.8229 -1.3191 -1.8109
    8MOL   H180 2294   6.581   3.670   3.072 -0.1986 -0.9359 -0.0324
    8MOL   H181 2295   6.448   3.465   3.159  0.4835 -0.6605  2.7760
    8MOL   C182 2296   6.173   3.663   3.485 -0.6521 -0.2305  0.4014
    8MOL   C183 2297   6.078   3.750   3.584 -0.3949  0.2757 -0.4022
    8MOL   C184 2298   6.068   3.900   3.538  0.0276 -0.4068  0.0193
    8MOL   C185 2299   6.109   4.009   3.629  0.0786 -0.1206 -0.0267
    8MOL   C186 2300   6.093   4.142   3.590 -0.4538  0.7451 -0.1715
    8MOL   C187 2301   6.043   4.165   3.456  0.2620 -0.0501  0.5654
    8MOL   C188 2302   5.995   4.053   3.384  0.0188 -0.6226 -0.6803
    8MOL   N189 2303   6.015   3.924   3.418 -0.1157  0.1333  0.6970
    8MOL   H190 2304   6.149   3.558   3.471 -1.9670  0.0477  0.4826
    8MOL   H191 2305   6.170   3.699   3.383 -1.6327  0.5028  0.6770
    8MOL   H192 2306   6.121   3.754   3.684 -0.1796 -3.0043 -0.2848
    8MOL   H193 2307   6.137   3.988   3.732  1.6009 -0.6180 -0.5264
    8MOL   H194 2308   6.119   4.216   3.664  1.0845  0.6089 -0.5589
    8MOL   H195 2309   6.035   4.267   3.419 -2.1865 -0.8111 -1.1108
    8MOL   H196 2310   5.939   4.065   3.292 -0.2650  1.8842 -0.2373
    8MOL   C197 2311   5.939   3.690   3.593  0.3279 -0.4060  0.0805
    8MOL   C198 2312   5.925   3.544   3.660  0.5468 -0.1557  0.1142
    8MOL   C199 2313   6.009   3.524   3.793  0.0334  0.2120  0.6879
    8MOL   C200 2314   6.091   3.408   3.793  0.3030 -0.0564 -0.2782
    8MOL   C201 2315   6.173   3.390   3.900 -0.2872 -0.0004 -0.4753
    8MOL   C202 2316   6.164   3.477   4.014 -0.2031  0.7457 -0.3430
    8MOL   C203 2317   6.081   3.590   4.002  0.4369  0.5998  0.2220
    8MOL   N204 2318   5.999   3.614   3.895 -0.1399 -0.0269  0.4113
    8MOL   H205 2319   5.891   3.696   3.496  0.6966  0.1041 -0.0714
    8MOL   H206 2320   5.876   3.754   3.656 -0.2614 -1.4942  0.6108
    8MOL   H207 2321   5.970   3.484   3.581  2.4129  0.3140  0.7833
    8MOL   H208 2322   6.100   3.347   3.704  1.6476 -2.7603  1.6317
    8MOL   H209 2323   6.236   3.302   3.898  0.6383  0.6588 -0.8226
    8MOL   H210 2324   6.233   3.465   4.096  1.1382 -3.6238 -1.9768
    8MOL   H211 2325   6.086   3.668   4.077 -1.0152  0.1518  0.8072
    8MOL   C212 2326   5.776   3.513   3.691 -0.0189 -0.8727 -0.2827
    8MOL   C213 2327   5.690   3.521   3.561 -0.4371 -0.0093 -0.3763
    8MOL   C214 2328   5.744   3.439   3.449 -0.0831 -0.0168 -0.3112
    8MOL   C215 2329   5.781   3.500   3.324 -0.6145 -0.5157  0.2681
    8MOL   C216 2330   5.837   3.415   3.224 -0.1861 -0.1204  0.1279
    8MOL   C217 2331   5.848   3.276   3.250  0.1501  0.1014  0.0656
    8MOL   C218 2332   5.808   3.227   3.379  0.1750 -0.5836  0.1089
    8MOL   N219 2333   5.770   3.307   3.480 -0.5392  0.2862 -0.4888
    8MOL   H220 2334   5.744   3.584   3.767 -0.3293  2.1831 -3.1545
    8MOL   H221 2335   5.766   3.416   3.740  0.3874 -0.3654  0.8128
    8MOL   H222 2336   5.696   3.622   3.519 -0.9766 -0.0952 -0.6647
    8MOL   H223 2337   5.770   3.606   3.306 -2.4732 -0.6045  0.7155
    8MOL   H224 2338   5.874   3.456   3.132 -0.4704 -0.1099  0.0189
    8MOL   H225 2339   5.870   3.210   3.168 -0.4095  0.5695 -0.4697
    8MOL   H226 2340   5.798   3.122   3.400  0.3550 -0.4318  0.9698
    8MOL   C227 2341   5.546   3.478   3.594 -0.7275  0.1272 -0.5580
    8MOL   C228 2342   5.429   3.574   3.568 -0.7196  0.1105  0.0605
    8MOL   C229 2343   5.295   3.498   3.555 -0.3750 -0.2831 -0.5771
    8MOL   C230 2344   5.249   3.398   3.643 -0.3206 -0.4625  0.4167
    8MOL   C231 2345   5.120   3.350   3.630 -0.5355  0.9387  0.4227
    8MOL   C232 2346   5.036   3.393   3.533  0.0834 -0.0862  0.2794
    8MOL   C233 2347   5.099   3.470   3.432 -0.4068 -0.0682 -0.0880
    8MOL   N234 2348   5.218   3.531   3.452  0.0741 -0.3937  0.1552
    8MOL   H235 2349   5.532   3.441   3.696  0.9531 -0.4454 -0.5279
    8MOL   H236 2350   5.527   3.389   3.534  0.7401 -1.0618  0.7108
    8MOL   H237 2351   5.441   3.609   3.466 -0.6929  1.7640  0.6278
    8MOL   H238 2352   5.316   3.372   3.723  0.5650 -1.7836 -0.7419
    8MOL   H239 2353   5.076   3.282   3.702  0.7799  1.0947  1.4057
    8MOL   H240 2354   4.941   3.344   3.523  0.9727 -1.9926  0.8082
    8MOL   H241 2355   5.041   3.502   3.347 -0.1984 -1.5672 -0.8084
    8MOL   C242 2356   5.400   3.677   3.678  0.1058 -0.1624  0.0727
    8MOL   C243 2357   5.471   3.812   3.674  0.1360 -0.1361  0.4633
    8MOL   C244 2358   5.492   3.854   3.529  0.4045  0.0729  0.5549
    8MOL   C245 2359   5.387   3.887   3.441 -0.1138 -0.1779  0.1745
    8MOL   C246 2360   5.424   3.924   3.306 -0.5770 -0.6277  0.1310
    8MOL   C247 2361   5.559   3.934   3.274 -0.5528 -0.1303  0.7031
    8MOL   C248 2362   5.654   3.889   3.370 -0.1683 -0.1970  0.0061
    8MOL   N249 2363   5.626   3.865   3.499  0.5186 -0.3080  0.3300
    8MOL   H250 2364   5.418   3.634   3.777  2.0293  2.1191  0.7672
    8MOL   H251 2365   5.296   3.710   3.676 -0.4164 -1.6947  0.8043
    8MOL   H252 2366   5.567   3.791   3.721 -0.7968 -0.6570  2.2064
    8MOL   H253 2367   5.285   3.877   3.476 -0.2993 -1.1212 -0.6098
    8MOL   H254 2368   5.345   3.945   3.235  0.3662  1.4277 -0.3441
    8MOL   H255 2369   5.602   3.961   3.179 -0.5191  2.6882  1.4904
    8MOL   H256 2370   5.759   3.885   3.348 -0.6961  1.4027 -2.9993
    8MOL   C257 2371   5.390   3.922   3.747 -0.1779  0.2262 -0.0196
    8MOL   C258 2372   5.459   4.056   3.768 -0.0925 -0.3106 -0.4346
    8MOL   C259 2373   5.366   4.151   3.845 -1.2596  0.0629  0.8454
    8MOL   C260 2374   5.287   4.250   3.783 -0.6239 -0.5674  0.3489
    8MOL   C261 2375   5.206   4.336   3.856 -0.4207 -0.2862  0.4146
    8MOL   C262 2376   5.212   4.327   3.999  0.3070 -1.0251 -0.6487
    8MOL   C263 2377   5.283   4.220   4.055 -0.6082 -0.0432 -0.1928
    8MOL   N264 2378   5.350   4.131   3.976 -0.1684  0.0297 -0.0005
    8MOL   H265 2379   5.368   3.880   3.845 -1.1167  0.3076 -0.1877
    8MOL   H266 2380   5.297   3.927   3.690 -0.3435  1.5773  0.3418
    8MOL   H267 2381   5.472   4.103   3.671 -0.4266  0.3273 -0.1700
    8MOL   H268 2382   5.280   4.254   3.675 -1.2179  1.6051  0.4617
    8MOL   H269 2383   5.138   4.413   3.823  1.7728  2.4542  2.0477
    8MOL   H270 2384   5.171   4.396   4.071 -0.1221 -1.5293 -0.4113
    8MOL   H271 2385   5.284   4.211   4.162  0.1488 -1.3517 -0.3058
    8MOL   C272 2386   5.594   4.048   3.832  0.0658 -0.1268  0.1338
    8MOL   C273 2387   5.663   4.176   3.895 -0.8306  0.4707  0.8023
    8MOL   C274 2388   5.778   4.128   3.982 -0.5587  0.4001  0.0003
    8MOL   C275 2389   5.876   4.040   3.935 -0.4138  0.3649 -0.2651
    8MOL   C276 2390   5.984   4.002   4.017  0.3320  0.5649 -0.0877
    8MOL   C277 2391   5.990   4.065   4.146 -0.3286 -0.3239  0.3747
    8MOL   C278 2392   5.883   4.143   4.184 -0.1279 -0.1976 -0.5071
    8MOL   N279 2393   5.781   4.179   4.106 -0.4087 -0.5143 -1.2758
    8MOL   H280 2394   5.656   4.019   3.747 -3.0516 -1.5678 -1.6926
    8MOL   H281 2395   5.594   3.972   3.910  0.9861 -0.0289  0.2429
    8MOL   H282 2396   5.602   4.237   3.961  0.4568  1.4806  1.0693
    8MOL   H283 2397   5.870   3.999   3.835  0.6559 -0.3322 -0.0525
    8MOL   H284 2398   6.052   3.931   3.974  2.5559  2.0589  0.8606
    8MOL   H285 2399   6.078   4.037   4.203 -1.3981  0.4882  2.4759
    8MOL   H286 2400   5.895   4.202   4.274 -0.5111  0.0555 -0.6181
    8MOL   C287 2401   5.709   4.270   3.787 -0.0703  0.9239  0.4124
    8MOL   C288 2402   5.746   4.415   3.834 -0.5096 -0.0533 -0.1875
    8MOL   C289 2403   5.788   4.498   3.714 -0.7367  0.0627  0.7398
    8MOL   C290 2404   5.716   4.609   3.668 -0.1904 -0.0714  0.0079
    8MOL   C291 2405   5.754   4.674   3.553  0.0335 -0.0833  0.1601
    8MOL   C292 2406   5.860   4.616   3.479  0.0858 -0.0416  0.6531
    8MOL   C293 2407   5.927   4.503   3.530  0.2131  0.5506 -0.4235
    8MOL   N294 2408   5.892   4.451   3.647  0.0172 -0.0146 -0.0010
    8MOL   H295 2409   5.632   4.282   3.710  0.4742  1.3012 -0.0847
    8MOL   H296 2410   5.782   4.221   3.722  0.0630  0.9912  0.5111
    8MOL   H297 2411   5.831   4.412   3.903 -0.1073  0.9971 -0.6307
    8MOL   H298 2412   5.630   4.643   3.724 -0.2350  0.0148 -0.1119
    8MOL   H299 2413   5.702   4.760   3.514 -0.2717  0.1198  0.9966
    8MOL   H300 2414   5.894   4.651   3.383  1.9349 -0.7859  1.0160
    8MOL   H301 2415   6.021   4.479   3.484 -0.1594 -1.2701 -0.2581
    8MOL   H302 2416   5.660   4.461   3.882 -0.5998  0.9552 -1.3039
    9MOL     C1 2417   4.915   6.197   8.143 -0.3140  0.4390  0.2726
    9MOL     C2 2418   4.889   6.149   8.001  0.1986  0.1692 -0.3769
    9MOL     C3 2419   5.009   6.173   7.910 -0.0172 -0.1159  0.0403
    9MOL     C4 2420   5.009   6.276   7.813 -0.0223 -0.0839 -0.6548
    9MOL     C5 2421   5.117   6.292   7.732  0.0132  0.1759  0.1068
    9MOL     C6 2422   5.228   6.213   7.753 -0.7706  0.1875  0.6105
    9MOL     C7 2423   5.229   6.120   7.852 -0.1712 -0.0764 -0.2972
    9MOL     N8 2424   5.117   6.095   7.928  0.3920 -0.1034  1.0840
    9MOL     H9 2425   4.984   6.282   8.136 -0.0148  0.2212  0.5454
    9MOL    H10 2426   4.823   6.227   0.041 -1.0498 -2.2339  0.5451
    9MOL    H11 2427   4.807   6.207   7.960  0.2148  0.2287 -0.3249
    9MOL    H12 2428   4.921   6.338   7.800  0.4752  0.6670 -0.4456
    9MOL    H13 2429   5.112   6.366   7.653  2.4577  1.1900  0.8896
    9MOL    H14 2430   5.314   6.217   7.687 -0.3947  0.7049  1.1231
    9MOL    H15 2431   5.310   6.051   7.871 -0.3990  0.0502  1.1484
    9MOL    H16 2432   4.979   6.125   0.041  1.1508  2.0257  0.7743
    9MOL    C17 2433   4.843   5.999   7.999 -0.2615  0.4590 -0.6167
    9MOL    C18 2434   4.717   5.959   8.078  0.3961 -0.2059 -0.0548
    9MOL    C19 2435   4.595   6.043   8.053  0.9691 -0.1825 -0.2985
    9MOL    C20 2436   4.527   6.113   0.005 -0.5569  0.3822 -0.6273
    9MOL    C21 2437   4.407   6.171   8.125 -0.1724 -0.2309 -0.5725
    9MOL    C22 2438   4.353   6.169   7.998  0.2953  0.1210 -0.0296
    9MOL    C23 2439   4.430   6.108   7.898 -0.2738  0.2754 -0.3420
    9MOL    N24 2440   4.545   6.046   7.924 -0.0354 -0.1820  0.2557
    9MOL    H25 2441   4.920   5.938   8.046 -1.4841  0.3033  1.2080
    9MOL    H26 2442   4.829   5.968   7.895  2.7793 -2.1336 -0.3380
    9MOL    H27 2443   4.739   5.995   0.026 -0.1180 -0.5088  0.1684
    9MOL    H28 2444   4.552   6.099   0.109  0.2096 -2.9853 -1.2100
    9MOL    H29 2445   4.343   6.217   0.047  1.9320 -0.9704  1.7812
    9MOL    H30 2446   4.259   6.207   7.962 -0.4077 -0.5301  1.0744
    9MOL    H31 2447   4.396   6.113   7.796  1.6505 -1.8984 -1.1351
    9MOL    C32 2448   4.683   5.805   8.095  0.5276 -0.4423  0.2463
    9MOL    C33 2449   4.802   5.721   8.148 -0.2265 -0.7176 -0.3391
    9MOL    C34 2450   4.863   5.783   0.121  0.1681  0.0791 -0.0439
    9MOL    C35 2451   4.788   5.819   0.230  0.0386 -0.7344  0.2132
    9MOL    C36 2452   4.845   5.909   0.318  0.0989 -0.0334  0.3981
    9MOL    C37 2453   4.982   5.939   0.310 -0.2286  0.4885 -0.2733
    9MOL    C38 2454   5.047   5.905   0.193  0.2198  0.9033 -0.3958
    9MOL    N39 2455   4.992   5.829   0.099  0.4668  0.4312 -0.2761
    9MOL    H40 2456   4.652   5.777   7.994  0.7360 -0.0740  0.0810
    9MOL    H41 2457   4.590   5.790   8.151 -1.2777 -0.4041 -2.6049
    9MOL    H42 2458   4.881   5.730   8.074  0.8875  1.2988  1.0318
    9MOL    H43 2459   4.688   5.782   0.244  0.2894 -0.6387  2.5215
    9MOL    H44 2460   4.794   5.922   0.413  0.8029  3.7127  0.3375
    9MOL    H45 2461   5.029   5.980   0.399 -0.8187 -1.7357  1.1090
    9MOL    H46 2462   5.153   5.924   0.186  0.8084 -2.0280 -0.0051
    9MOL    C47 2463   4.772   5.563   0.006 -0.9453 -0.2034  0.3605
    9MOL    C48 2464   4.898   5.483   0.057 -0.7857  0.2622 -0.0372
    9MOL    C49 2465   4.915   5.486   0.213 -0.5574 -0.4427  0.3175
    9MOL    C50 2466   4.810   5.468   0.306 -0.3131  0.7571  0.4548
    9MOL    C51 2467   4.843   5.465   0.440  0.2345  0.8786  0.1329
    9MOL    C52 2468   4.975   5.466   0.479  0.2301  0.5275  0.2079
    9MOL    C53 2469   5.067   5.488   0.381  0.1817  0.5312  0.6812
    9MOL    N54 2470   5.040   5.488   0.252  0.1363  0.7872 -0.3194
    9MOL    H55 2471   4.750   5.527   8.058 -2.1749  1.9020 -0.1528
    9MOL    H56 2472   4.684   5.546   0.068 -1.1416 -1.2827 -0.2123
    9MOL    H57 2473   4.986   5.529   0.013 -1.1036  1.2217  0.3073
    9MOL    H58 2474   4.708   5.453   0.272 -0.6771  1.6430  1.1168
    9MOL    H59 2475   4.768   5.447   0.516 -0.5672  2.3380 -0.2859
    9MOL    H60 2476   5.020   5.454   0.577 -0.0101 -4.6682 -0.2084
    9MOL    H61 2477   5.169   5.492   0.414  0.3198  2.9438  0.0610
    9MOL    C62 2478   4.903   5.338   0.007  0.0777 -0.5850  0.3476
    9MOL    C63 2479   5.018   5.241   0.060 -0.0510 -0.2083 -0.4025
    9MOL    C64 2480   4.975   5.093   0.039 -0.4359 -0.3474 -0.6480
    9MOL    C65 2481   5.003   5.026   8.070 -0.8031 -0.3998 -0.2689
    9MOL    C66 2482   4.973   4.891   8.053  0.5792 -0.1036  0.5278
    9MOL    C67 2483   4.926   4.821   0.012 -0.4626 -0.3173  0.3229
    9MOL    C68 2484   4.891   4.896   0.124  0.0780 -0.3520  0.2714
    9MOL    N69 2485   4.925   5.023   0.147 -0.1790 -0.6477  0.2809
    9MOL    H70 2486   4.896   5.336   8.050 -2.4954 -0.6701  0.4753
    9MOL    H71 2487   4.807   5.300   0.041  0.2331  0.6364  2.2191
    9MOL    H72 2488   5.017   5.248   0.169  1.5325  0.7694 -0.4356
    9MOL    H73 2489   5.047   5.079   7.988  3.1681 -1.5885  0.9841
    9MOL    H74 2490   5.005   4.847   7.959  2.4087  1.6857  0.2781
    9MOL    H75 2491   4.924   4.713   0.009 -0.3546 -0.3150  0.1735
    9MOL    H76 2492   4.855   4.849   0.214 -1.1088 -2.0953 -1.0776
    9MOL    C77 2493   5.161   5.264   0.002 -0.1100  0.4920  0.0097
    9MOL    C78 2494   5.269   5.155   0.028 -0.4098 -0.7413  0.6315
    9MOL    C79 2495   5.316   5.080   8.056 -0.0216  0.7270 -0.1894
    9MOL    C80 2496   5.302   4.940   8.039  0.0802 -0.2345 -0.5827
    9MOL    C81 2497   5.346   4.884   7.918  0.2602  0.6818  0.1556
    9MOL    C82 2498   5.406   4.969   7.822 -0.8157 -0.3764 -0.0169
    9MOL    C83 2499   5.412   5.110   7.846  0.3846  0.4702  0.2333
    9MOL    N84 2500   5.378   5.159   7.966 -0.2555  0.2925  0.3397
    9MOL    H85 2501   5.188   5.363   0.038  0.3089  0.4677 -0.2469
    9MOL    H86 2502   5.155   5.270   8.046  0.3121 -0.6661 -0.0788
    9MOL    H87 2503   5.232   5.079   0.096  0.0774 -2.5464 -1.0557
    9MOL    H88 2504   5.251   4.883   8.114  0.9856 -1.5311 -0.9365
    9MOL    H89 2505   5.318   4.784   7.890  1.7801  0.7495 -1.7248
    9MOL    H90 2506   5.454   4.936   7.732  0.5218 -1.6973  1.1518
    9MOL    H91 2507   5.458   5.177   7.775 -1.7587  3.0287  1.2047
    9MOL    C92 2508   5.395   5.216   0.102 -0.5882  0.4480  0.7197
    9MOL    C93 2509   5.388   5.234   0.253 -0.1751 -0.0502 -0.3527
    9MOL    C94 2510   5.325   5.113   0.331 -0.6510 -0.1515  0.1025
    9MOL    C95 2511   5.208   5.135   0.405  0.2424 -0.3647 -0.1359
    9MOL    C96 2512   5.147   5.021   0.454 -0.2561  0.5656 -1.4195
    9MOL    C97 2513   5.214   4.902   0.454  0.1921 -0.2622  0.5025
    9MOL    C98 2514   5.337   4.890   0.386  0.1462 -0.1161 -0.4583
    9MOL    N99 2515   5.384   4.995   0.315  0.4814 -0.1809  0.4996
    9MOL   H100 2516   5.430   5.298   0.040  0.1286 -0.3393  0.0662
    9MOL   H101 2517   5.471   5.139   0.091 -1.7248 -0.5807 -0.2584
    9MOL   H102 2518   5.317   5.317   0.263  1.8583  1.6997 -0.0497
    9MOL   H103 2519   5.163   5.232   0.418 -0.1619 -0.6303  0.4379
    9MOL   H104 2520   5.048   5.026   0.496  0.5636 -1.4666  0.8838
    9MOL   H105 2521   5.188   4.819   0.518 -0.3489 -2.6564 -2.7056
    9MOL   H106 2522   5.391   4.796   0.381 -0.5481 -0.5068 -0.6784
    9MOL   C107 2523   5.530   5.265   0.320  0.2051  0.4901 -0.5081
    9MOL   C108 2524   5.585   5.401   0.275 -0.3348  0.6400 -0.1632
    9MOL   C109 2525   5.489   5.513   0.303  0.0348  0.3990  0.2692
    9MOL   C110 2526   5.427   5.579   0.194 -0.3770  0.0657 -0.1043
    9MOL   C111 2527   5.339   5.685   0.228  0.0732 -0.2234  0.6316
    9MOL   C112 2528   5.312   5.715   0.363 -0.1797  0.5408  0.4059
    9MOL   C113 2529   5.393   5.655   0.465  0.4383 -0.4869  0.3762
    9MOL   N114 2530   5.470   5.544   0.431  0.1841 -0.2663  0.2104
    9MOL   H115 2531   5.594   5.184   0.285 -1.1280 -0.4948 -0.7043
    9MOL   H116 2532   5.534   5.261   0.429 -2.0788  1.1574 -0.3706
    9MOL   H117 2533   5.595   5.385   0.167 -0.2344 -0.7444  0.0451
    9MOL   H118 2534   5.447   5.544   0.093  1.4980 -3.5997  1.4552
    9MOL   H119 2535   5.282   5.735   0.150  0.6258  2.1695  1.7376
    9MOL   H120 2536   5.238   5.788   0.390 -0.5127 -0.0572  1.1231
    9MOL   H121 2537   5.386   5.672   0.572  0.3765  0.3508  0.2375
    9MOL   C122 2538   5.734   5.420   0.321  0.3098 -0.2514 -0.6882
    9MOL   C123 2539   5.815   5.522   0.244 -0.4657 -0.6310  0.1675
    9MOL   C124 2540   5.765   5.671   0.270  0.4198 -0.5547 -0.0270
    9MOL   C125 2541   5.701   5.745   0.163 -0.0842 -0.0657  0.6255
    9MOL   C126 2542   5.674   5.877   0.189 -0.3763 -0.9362  0.3790
    9MOL   C127 2543   5.701   5.932   0.316 -0.3324 -0.1379  1.2114
    9MOL   C128 2544   5.768   5.849   0.410 -0.4969 -0.7844  0.6985
    9MOL   N129 2545   5.806   5.724   0.386  0.4458  0.8609 -0.6108
    9MOL   H130 2546   5.788   5.325   0.324  0.0538 -0.4487 -1.9481
    9MOL   H131 2547   5.739   5.455   0.424  0.4620 -1.8417 -0.1291
    9MOL   H132 2548   5.788   5.505   0.140 -0.7773 -1.9595  0.4604
    9MOL   H133 2549   5.682   5.689   0.074  0.3825 -2.3162  1.9008
    9MOL   H134 2550   5.633   5.946   0.117  0.8471  0.1755  0.7377
    9MOL   H135 2551   5.665   6.027   0.352 -1.0993 -0.0476  0.2390
    9MOL   H136 2552   5.795   5.882   0.509  0.0947 -1.2619  0.6955
    9MOL   C137 2553   5.969   5.508   0.251  0.2428 -0.1906  0.5274
    9MOL   C138 2554   6.024   5.379   0.189 -0.1796 -0.0385  0.1454
    9MOL   C139 2555   5.987   5.361   0.037  0.3146 -0.3787  0.4427
    9MOL   C140 2556   5.893   5.268   8.145  0.1060 -0.1759 -0.1664
    9MOL   C141 2557   5.855   5.267   8.009  0.2200  1.2182 -0.0459
    9MOL   C142 2558   5.918   5.354   7.918  0.7027  0.3749 -0.3346
    9MOL   C143 2559   6.005   5.448   7.970  0.8842  0.0489 -0.3688
    9MOL   N144 2560   6.036   5.453   8.103 -0.2133 -0.3714  0.5117
    9MOL   H145 2561   6.006   5.509   0.354  0.8780 -0.2600  0.3033
    9MOL   H146 2562   6.011   5.597   0.204  0.8478 -1.8873 -2.2685
    9MOL   H147 2563   5.984   5.299   0.251  0.4103 -0.0045  0.5848
    9MOL   H148 2564   5.857   5.196   0.066 -0.6913  0.5327  0.1490
    9MOL   H149 2565   5.783   5.191   7.981  1.5376 -0.8624  2.0352
    9MOL   H150 2566   5.900   5.351   7.812  2.1163 -2.0548 -0.5427
    9MOL   H151 2567   6.052   5.519   7.903 -1.9099  0.4791 -1.9379
    9MOL   C152 2568   6.177   5.376   0.210  0.3415 -0.0787  0.2072
    9MOL   C153 2569   6.257   5.253   0.154 -0.2814 -0.0166 -0.0268
    9MOL   C154 2570   6.385   5.295   0.079 -0.2399 -0.1768 -0.8061
    9MOL   C155 2571   6.415   5.253   8.100 -0.0644 -0.3514  0.2127
    9MOL   C156 2572   6.543   5.284   8.043 -1.0568  0.2639  0.2636
    9MOL   C157 2573   6.624   5.373   8.114 -0.2290 -0.3260 -0.6173
    9MOL   C158 2574   6.583   5.415   0.087  0.5196 -0.2090 -0.1331
    9MOL   N159 2575   6.471   5.374   0.150 -0.9331 -0.0159 -0.0898
    9MOL   H160 2576   6.198   5.382   0.317 -1.3012  0.3222  0.5226
    9MOL   H161 2577   6.213   5.456   0.146 -0.0433  0.4266  0.6182
    9MOL   H162 2578   6.189   5.195   0.091 -0.4595 -1.3800  1.3978
    9MOL   H163 2579   6.347   5.208   8.029 -0.3279  0.2511  0.0767
    9MOL   H164 2580   6.572   5.248   7.945 -0.8412 -0.0432  0.4374
    9MOL   H165 2581   6.701   5.418   8.053  0.8277  0.8735  1.5438
    9MOL   H166 2582   6.640   5.497   0.128 -1.1314  0.3584  1.0678
    9MOL   C167 2583   6.296   5.150   0.262  0.0651  0.4074  0.2079
    9MOL   C168 2584   6.180   5.062   0.315  0.1599  0.3157  0.5216
    9MOL   C169 2585   6.115   4.978   0.206 -0.4060 -0.2535 -0.5719
    9MOL   C170 2586   5.979   4.954   0.205  0.2614 -0.2129 -0.0122
    9MOL   C171 2587   5.925   4.854   0.125 -0.4111  0.1407  1.0271
    9MOL   C172 2588   6.011   4.773   0.057 -0.1446 -0.5157  0.1624
    9MOL   C173 2589   6.152   4.799   0.064  0.6739 -0.8337 -0.3556
    9MOL   N174 2590   6.199   4.908   0.127 -0.8300  0.1625  0.3862
    9MOL   H175 2591   6.341   5.211   0.340 -1.1631  2.8551 -0.9574
    9MOL   H176 2592   6.374   5.086   0.221 -2.3230 -1.5723 -1.3759
    9MOL   H177 2593   6.096   5.125   0.346 -1.5320 -0.6930 -1.8619
    9MOL   H178 2594   5.912   5.010   0.269  0.6047 -0.6556  0.7297
    9MOL   H179 2595   5.817   4.847   0.119 -0.4942 -0.4237  2.8980
    9MOL   H180 2596   5.985   4.687   8.147 -0.3120 -1.2440  1.2290
    9MOL   H181 2597   6.221   4.734   0.013  1.1662  0.3079 -1.1833
    9MOL   C182 2598   6.225   4.965   0.426  0.3291  0.7317 -0.0443
    9MOL   C183 2599   6.253   5.029   0.564  0.1233  0.4674 -0.1873
    9MOL   C184 2600   6.143   5.128   0.595 -0.3095  0.8534  0.4435
    9MOL   C185 2601   6.017   5.084   0.635  0.6138  0.1343 -0.0452
    9MOL   C186 2602   5.921   5.175   0.670  0.3051 -0.4740  0.3289
    9MOL   C187 2603   5.943   5.306   0.641  0.0179  0.0700  0.3715
    9MOL   C188 2604   6.071   5.348   0.606  0.7529  0.8197 -0.3043
    9MOL   N189 2605   6.164   5.263   0.576 -0.2383 -0.1456 -0.4886
    9MOL   H190 2606   6.316   4.915   0.393  0.2590  0.4698  0.1580
    9MOL   H191 2607   6.150   4.888   0.441  0.3893  0.9009  1.1876
    9MOL   H192 2608   6.340   5.094   0.556  0.8975 -0.3638  1.2954
    9MOL   H193 2609   5.988   4.980   0.634 -0.2043  0.3596  0.1904
    9MOL   H194 2610   5.823   5.139   0.697  0.8741 -0.1328  3.0540
    9MOL   H195 2611   5.859   5.373   0.651 -0.5397 -0.5410 -0.2227
    9MOL   H196 2612   6.092   5.453   0.592  0.6080  1.0017  0.8384
    9MOL   C197 2613   6.268   4.918   0.666  0.6915  0.9372  0.0671
    9MOL   C198 2614   6.271   4.949   0.815 -0.0513  0.5745 -0.3242
    9MOL   C199 2615   6.232   4.829   0.897  0.1869 -0.1313  0.4067
    9MOL   C200 2616   6.126   4.832   0.994  0.2682  0.6542 -0.5880
    9MOL   C201 2617   6.089   4.712   1.055 -0.8019 -0.1731 -0.3981
    9MOL   C202 2618   6.162   4.596   1.032 -0.2999 -0.2332  0.0749
    9MOL   C203 2619   6.272   4.601   0.939 -0.1204 -0.2978  0.0087
    9MOL   N204 2620   6.299   4.715   0.872  0.2890  0.3814  0.2976
    9MOL   H205 2621   6.363   4.867   0.653  0.5099  0.8374 -0.8670
    9MOL   H206 2622   6.182   4.853   0.653  1.6631 -0.0964 -1.2866
    9MOL   H207 2623   6.184   5.010   0.837 -0.6198  0.0363 -1.0553
    9MOL   H208 2624   6.068   4.921   1.015 -0.5335 -0.1377  0.5832
    9MOL   H209 2625   6.006   4.721   1.123  0.6839  0.9510  1.3378
    9MOL   H210 2626   6.124   4.504   1.073 -1.1455 -0.9255 -2.1902
    9MOL   H211 2627   6.313   4.506   0.906  1.5052 -0.3481  2.1317
    9MOL   C212 2628   6.407   5.010   0.868 -0.4236  0.1132 -0.2735
    9MOL   C213 2629   6.401   5.164   0.906 -0.1306 -0.5616 -0.2754
    9MOL   C214 2630   6.288   5.185   1.010 -0.0349  0.2426  0.0594
    9MOL   C215 2631   6.161   5.236   0.974 -0.3985  0.0934  0.1951
    9MOL   C216 2632   6.064   5.247   1.078 -0.1575 -0.5487 -0.2634
    9MOL   C217 2633   6.097   5.210   1.210  0.1972  0.2085  0.3169
    9MOL   C218 2634   6.221   5.152   1.230 -0.7864 -0.6502 -0.9854
    9MOL   N219 2635   6.319   5.145   1.138 -0.2044 -0.6144 -0.4095
    9MOL   H220 2636   6.475   4.981   0.788 -2.5271 -0.8834 -1.7518
    9MOL   H221 2637   6.443   4.959   0.958 -1.3529  0.7298  0.4583
    9MOL   H222 2638   6.371   5.210   0.812  1.7017 -1.0811 -1.1464
    9MOL   H223 2639   6.131   5.284   0.882  0.2999  1.2939  0.5797
    9MOL   H224 2640   5.968   5.286   1.049  0.8003  1.8705 -0.2813
    9MOL   H225 2641   6.026   5.227   1.290  0.9798  3.0736  0.4659
    9MOL   H226 2642   6.239   5.125   1.333 -0.5890  1.4601 -0.4337
    9MOL   C227 2643   6.544   5.215   0.932 -0.5000  0.2327  0.1087
    9MOL   C228 2644   6.558   5.365   0.924 -0.1154  0.5053 -1.2329
    9MOL   C229 2645   6.698   5.401   0.976  0.2419 -0.5517  0.3985
    9MOL   C230 2646   6.718   5.495   1.074  0.5437 -0.7327  0.0091
    9MOL   C231 2647   6.845   5.528   1.115 -0.5826  0.0913  0.4329
    9MOL   C232 2648   6.953   5.461   1.065  0.1117  1.6383  0.3600
    9MOL   C233 2649   6.927   5.370   0.958 -0.0208  0.0527 -0.2758
    9MOL   N234 2650   6.800   5.345   0.913 -0.2781 -0.2592  0.2489
    9MOL   H235 2651   6.615   5.175   0.860 -1.8081 -0.4067 -0.8521
    9MOL   H236 2652   6.589   5.174   1.023  1.5763 -1.7819 -1.7685
    9MOL   H237 2653   6.482   5.409   0.989  0.1134 -0.6618 -0.1622
    9MOL   H238 2654   6.631   5.541   1.119  0.2648 -2.3340  1.1392
    9MOL   H239 2655   6.863   5.609   1.185 -2.6182  0.4593  0.5668
    9MOL   H240 2656   7.054   5.478   1.098  0.6083 -2.4756  1.2452
    9MOL   H241 2657   7.005   5.315   0.908  1.1731  2.0487 -0.6668
    9MOL   C242 2658   6.549   5.434   0.786  0.5658  0.5596  0.1585
    9MOL   C243 2659   6.467   5.562   0.788  0.3122  0.1276 -0.6988
    9MOL   C244 2660   6.478   5.622   0.653 -0.0280 -0.7974  0.6504
    9MOL   C245 2661   6.462   5.542   0.533 -0.4098  0.2370 -0.2427
    9MOL   C246 2662   6.453   5.613   0.413 -0.2048  0.4833  0.0347
    9MOL   C247 2663   6.489   5.751   0.406  0.9061 -0.0993  0.4226
    9MOL   C248 2664   6.513   5.819   0.526  0.1038 -0.4569 -0.4231
    9MOL   N249 2665   6.508   5.757   0.647 -0.0007 -0.1655 -0.3450
    9MOL   H250 2666   6.507   5.362   0.716  0.6346 -0.3218  1.0206
    9MOL   H251 2667   6.648   5.443   0.742 -0.1294 -1.7358 -1.9946
    9MOL   H252 2668   6.516   5.630   0.858 -2.9748  0.0677  1.7995
    9MOL   H253 2669   6.437   5.437   0.530  0.9291 -0.0628 -1.2267
    9MOL   H254 2670   6.427   5.555   0.325  0.1592  1.1597 -0.5200
    9MOL   H255 2671   6.483   5.810   0.316  0.4646  0.6744  0.9553
    9MOL   H256 2672   6.530   5.925   0.516 -1.5405 -0.3285 -2.1338
    9MOL   C257 2673   6.316   5.556   0.830 -0.3215 -0.0630 -0.2668
    9MOL   C258 2674   6.226   5.677   0.816  0.0870  0.5962 -0.1609
    9MOL   C259 2675   6.072   5.648   0.837  0.1535 -0.1285 -0.1925
    9MOL   C260 2676   5.979   5.659   0.735 -1.0958  0.3255  0.2245
    9MOL   C261 2677   5.844   5.630   0.760 -0.5524  0.6063  0.3579
    9MOL   C262 2678   5.811   5.585   0.886  0.0951  0.2817 -0.6337
    9MOL   C263 2679   5.918   5.570   0.978  0.4015  0.1553  0.2761
    9MOL   N264 2680   6.048   5.596   0.955 -0.0299  0.1065  0.1106
    9MOL   H265 2681   6.308   5.512   0.929 -0.8184  0.9861  0.1629
    9MOL   H266 2682   6.272   5.481   0.765  0.6550 -2.0864  1.3333
    9MOL   H267 2683   6.245   5.690   0.709  1.9087  1.2769  0.2286
    9MOL   H268 2684   6.003   5.683   0.632  0.2295  0.5133  0.5637
    9MOL   H269 2685   5.770   5.631   0.682 -0.8282  1.2712  0.6252
    9MOL   H270 2686   5.712   5.551   0.911  0.5543 -0.7964 -0.2449
    9MOL   H271 2687   5.905   5.518   1.072  0.2184  1.5629  1.0331
    9MOL   C272 2688   6.281   5.782   0.910  0.2483  0.6614  0.0678
    9MOL   C273 2689   6.190   5.908   0.932  0.1472 -0.0389  0.0384
    9MOL   C274 2690   6.214   5.992   1.061 -0.2648 -0.4656  0.2668
    9MOL   C275 2691   6.136   5.968   1.177  0.1094 -0.0451  1.1662
    9MOL   C276 2692   6.165   6.036   1.295 -0.4350 -0.0996 -0.8228
    9MOL   C277 2693   6.289   6.109   1.295 -0.0297  0.4044  0.0072
    9MOL   C278 2694   6.368   6.109   1.176  0.0937 -0.2513 -0.6526
    9MOL   N279 2695   6.330   6.059   1.061  0.5762  0.0662  0.3377
    9MOL   H280 2696   6.384   5.805   0.884  0.4045  1.2452  1.2041
    9MOL   H281 2697   6.302   5.723   0.999 -0.1145 -0.7310 -0.7490
    9MOL   H282 2698   6.090   5.874   0.959  0.5650 -1.6307 -0.3591
    9MOL   H283 2699   6.056   5.895   1.174 -0.6358  0.7411  1.5695
    9MOL   H284 2700   6.106   6.036   1.385  1.7168  1.2190  0.6315
    9MOL   H285 2701   6.328   6.152   1.386 -2.3555  0.0121  1.2369
    9MOL   H286 2702   6.473   6.135   1.173  0.4481 -1.7382 -3.3205
    9MOL   C287 2703   6.172   5.996   0.808 -0.7653 -0.1761  0.2674
    9MOL   C288 2704   6.083   6.125   0.819 -0.7716 -0.1292 -0.2797
    9MOL   C289 2705   5.932   6.100   0.828  0.5356 -0.1791  0.1853
    9MOL   C290 2706   5.866   6.071   0.951 -0.5491 -0.3249 -0.7406
    9MOL   C291 2707   5.728   6.036   0.943 -0.6950  0.3791 -0.4154
    9MOL   C292 2708   5.666   6.038   0.812  0.1074 -0.1685  0.5313
    9MOL   C293 2709   5.749   6.077   0.704  0.3634 -0.3091  0.7049
    9MOL   N294 2710   5.876   6.097   0.712 -0.2447 -0.3076 -0.0801
    9MOL   H295 2711   6.136   5.933   0.727 -0.7638  0.1653 -0.0007
    9MOL   H296 2712   6.274   6.028   0.790 -0.4478 -1.7921 -0.8654
    9MOL   H297 2713   6.106   6.201   0.744  0.7258 -0.8510 -0.5645
    9MOL   H298 2714   5.923   6.084   1.042  2.4011 -3.2738 -2.0722
    9MOL   H299 2715   5.673   6.021   1.035  1.2754 -0.0362  0.7212
    9MOL   H300 2716   5.564   6.012   0.790  1.2817 -3.4539 -1.4383
    9MOL   H301 2717   5.713   6.073   0.602 -1.5525 -1.6307  1.4078
    9MOL   H302 2718   6.115   6.184   0.905  0.2570 -0.2337 -0.5834
   10MOL     C1 2719   4.526   0.832   2.263 -0.5338 -0.1238 -0.5317
   10MOL     C2 2720   4.565   0.786   2.402  0.0555 -0.2490  1.0604
   10MOL     C3 2721   4.478   0.861   2.503  0.3386 -0.3532  0.1534
   10MOL     C4 2722   4.545   0.905   2.623  0.2519 -0.3535  0.7716
   10MOL     C5 2723   4.468   0.969   2.716 -0.7172  0.7970  1.2877
   10MOL     C6 2724   4.331   0.998   2.681 -0.8251 -0.1533  0.1685
   10MOL     C7 2725   4.278   0.953   2.561 -0.3269  0.5423  0.5391
   10MOL     N8 2726   4.349   0.883   2.475  0.4010  0.4802  0.2905
   10MOL     H9 2727   4.599   0.792   2.192  0.4131  0.3627  0.1440
   10MOL    H10 2728   4.428   0.797   2.231 -1.4965 -0.8754  3.0130
   10MOL    H11 2729   4.671   0.812   2.410  0.0724  0.7496 -1.7991
   10MOL    H12 2730   4.650   0.888   2.643  0.2647  1.7087  2.5704
   10MOL    H13 2731   4.511   1.005   2.808  0.0598 -0.2017  1.3136
   10MOL    H14 2732   4.258   1.041   2.749 -0.1773  1.6158 -0.2312
   10MOL    H15 2733   4.189   1.000   2.521 -0.1219  0.6463  0.2122
   10MOL    H16 2734   4.523   0.941   2.257  0.3996 -0.1402 -1.6277
   10MOL    C17 2735   4.543   0.635   2.413  0.3215  0.5724 -0.4791
   10MOL    C18 2736   4.665   0.543   2.386 -0.2994  0.2315 -0.6340
   10MOL    C19 2737   4.633   0.392   2.415  0.7069  0.8364  0.5803
   10MOL    C20 2738   4.723   0.320   2.497 -0.0003 -1.0062 -0.5048
   10MOL    C21 2739   4.694   0.185   2.529 -0.4902 -1.0289  0.7476
   10MOL    C22 2740   4.583   0.127   2.483  0.0931  0.0712  0.8837
   10MOL    C23 2741   4.504   0.201   2.396  0.0348 -0.6309 -0.5041
   10MOL    N24 2742   4.531   0.328   2.360  0.5344  0.0535 -0.1012
   10MOL    H25 2743   4.460   0.600   2.352 -0.0498 -2.5503  1.6927
   10MOL    H26 2744   4.536   0.619   2.521  1.6701 -1.7487 -0.6803
   10MOL    H27 2745   4.734   0.572   2.466 -0.8643 -1.5036  0.5101
   10MOL    H28 2746   4.814   0.368   2.529 -1.3258  1.3798 -0.2565
   10MOL    H29 2747   4.769   0.132   2.585  0.0434 -1.2975 -0.2028
   10MOL    H30 2748   4.555   0.026   2.508  0.9542 -1.1548 -2.8848
   10MOL    H31 2749   4.414   0.156   2.357  0.6980 -2.7096  0.2563
   10MOL    C32 2750   4.727   0.552   2.241  0.4161  0.0102  0.4255
   10MOL    C33 2751   4.847   0.644   2.226 -0.4100  0.5147  0.2599
   10MOL    C34 2752   4.947   0.634   2.345  0.6779 -0.0440  0.5288
   10MOL    C35 2753   4.987   0.751   2.415  0.1813 -0.4392 -0.1382
   10MOL    C36 2754   5.073   0.734   2.526  0.5398 -0.0043  0.8293
   10MOL    C37 2755   5.112   0.609   2.564  0.2478 -0.3669  0.3995
   10MOL    C38 2756   5.055   0.493   2.504  0.3023  0.0459  0.2820
   10MOL    N39 2757   4.977   0.505   2.390  0.2549  0.0294 -0.2635
   10MOL    H40 2758   4.649   0.588   2.173 -0.7810 -0.8921  1.2907
   10MOL    H41 2759   4.763   0.455   2.208 -0.7629 -0.2782 -0.0260
   10MOL    H42 2760   4.811   0.747   2.228  2.2626  1.4872  1.3905
   10MOL    H43 2761   4.957   0.849   2.381 -1.5199 -0.8147  0.2061
   10MOL    H44 2762   5.119   0.819   2.574  0.5866  0.5770 -0.2348
   10MOL    H45 2763   5.182   0.593   2.644  2.5888  1.5952 -1.1604
   10MOL    H46 2764   5.065   0.388   2.527  0.3309  0.1140  0.5835
   10MOL    C47 2765   4.928   0.608   2.102  0.3039  0.2922  0.6265
   10MOL    C48 2766   4.862   0.612   1.960 -0.0376 -0.3845 -0.1484
   10MOL    C49 2767   4.833   0.757   1.918  0.3876 -0.2184  0.5696
   10MOL    C50 2768   4.934   0.839   1.874  0.1424 -1.2064 -0.8612
   10MOL    C51 2769   4.894   0.969   1.830 -0.4682 -0.3861 -0.1749
   10MOL    C52 2770   4.768   1.019   1.857 -0.4340  0.1478 -0.2384
   10MOL    C53 2771   4.673   0.931   1.909 -0.0478 -0.1163  1.0443
   10MOL    N54 2772   4.707   0.802   1.937 -0.2920  0.1275  0.0972
   10MOL    H55 2773   4.979   0.513   2.121 -0.8211 -0.3654  0.4517
   10MOL    H56 2774   5.009   0.680   2.096 -1.3377  2.0880 -0.4751
   10MOL    H57 2775   4.763   0.568   1.964  0.9956 -2.7527  0.2200
   10MOL    H58 2776   5.037   0.810   1.861  1.0377  1.3412  0.3654
   10MOL    H59 2777   4.971   1.037   1.795 -0.0867 -0.6001  0.2510
   10MOL    H60 2778   4.735   1.116   1.821 -0.4808  0.5573  0.8823
   10MOL    H61 2779   4.567   0.949   1.914  0.1078  1.4756 -0.7531
   10MOL    C62 2780   4.952   0.539   1.843  0.4636  0.4289  0.3679
   10MOL    C63 2781   4.979   0.391   1.858 -0.0069  0.0127  0.0457
   10MOL    C64 2782   4.846   0.317   1.877  0.4054 -0.0620  0.4231
   10MOL    C65 2783   4.819   0.245   1.994  0.4996 -0.5188  0.6058
   10MOL    C66 2784   4.699   0.176   2.007 -0.1658  0.0815  0.3063
   10MOL    C67 2785   4.600   0.189   1.907  0.0286  0.3329 -0.0087
   10MOL    C68 2786   4.641   0.260   1.789 -0.1205 -0.8235  0.1398
   10MOL    N69 2787   4.764   0.320   1.777 -0.1456 -0.1065  0.1930
   10MOL    H70 2788   5.050   0.585   1.829  0.4021  0.5110  0.2118
   10MOL    H71 2789   4.895   0.553   1.752  0.5280  3.3236  0.7261
   10MOL    H72 2790   5.026   0.382   1.956  1.9485  2.0581 -0.6734
   10MOL    H73 2791   4.883   0.232   2.080  0.2373  0.8632  1.0230
   10MOL    H74 2792   4.676   0.129   2.101  2.5789  1.1229  1.5391
   10MOL    H75 2793   4.502   0.144   1.908  0.2851 -0.2991 -1.5710
   10MOL    H76 2794   4.578   0.280   1.704  0.5139 -0.1130 -0.1668
   10MOL    C77 2795   5.081   0.332   1.753  0.3849  0.2599 -0.5789
   10MOL    C78 2796   5.109   0.174   1.761 -0.6595 -0.6888 -0.1428
   10MOL    C79 2797   5.215   0.123   1.661 -0.5725 -0.3593 -0.1945
   10MOL    C80 2798   5.204   0.006   1.590 -0.8861 -0.0635  0.3470
   10MOL    C81 2799   5.314   8.116   1.509 -0.1635  0.5168  0.2096
   10MOL    C82 2800   5.427   0.048   1.495 -0.3341 -1.1357  0.0106
   10MOL    C83 2801   5.425   0.168   1.557  0.3774 -0.5669 -0.2064
   10MOL    N84 2802   5.320   0.212   1.636 -0.2492  0.7629  0.1233
   10MOL    H85 2803   5.172   0.391   1.764  0.1128  0.7745 -1.0665
   10MOL    H86 2804   5.033   0.337   1.655 -0.6068  0.8811 -0.0611
   10MOL    H87 2805   5.019   0.116   1.742  0.0498 -2.2057  1.0306
   10MOL    H88 2806   5.121   8.090   1.605  0.2353 -1.6031 -0.2247
   10MOL    H89 2807   5.310   8.018   1.464 -2.0465  0.7315 -0.1602
   10MOL    H90 2808   5.516   0.009   1.449  2.3919  1.9590  2.3582
   10MOL    H91 2809   5.511   0.233   1.553 -0.4887  0.6065  0.0338
   10MOL    C92 2810   5.160   0.116   1.905  0.4052  0.0645  0.0110
   10MOL    C93 2811   5.308   0.143   1.954 -0.1047  0.2017  0.4275
   10MOL    C94 2812   5.340   0.290   1.990 -0.3114 -0.0788 -0.9178
   10MOL    C95 2813   5.444   0.359   1.933 -0.2778 -0.0399  0.3888
   10MOL    C96 2814   5.492   0.478   1.984  0.6747 -0.0524  0.0169
   10MOL    C97 2815   5.421   0.535   2.092  0.1870  0.6309  1.3595
   10MOL    C98 2816   5.308   0.464   2.138  0.3796  0.4126 -0.5701
   10MOL    N99 2817   5.264   0.346   2.089 -0.4045 -0.2149 -0.1997
   10MOL   H100 2818   5.156   0.010   1.882  2.5179 -0.3579  1.4236
   10MOL   H101 2819   5.095   0.143   1.988  1.3307  1.2303  0.3674
   10MOL   H102 2820   5.367   0.129   1.863 -0.6510 -0.2525  0.1431
   10MOL   H103 2821   5.500   0.316   1.851  0.7676  1.1019  0.5066
   10MOL   H104 2822   5.581   0.526   1.943  0.4085 -1.3487 -2.1286
   10MOL   H105 2823   5.450   0.626   2.142 -0.9039  1.9296 -0.2991
   10MOL   H106 2824   5.262   0.496   2.230 -0.2910  1.6805 -1.3363
   10MOL   C107 2825   5.354   0.028   2.052  0.3921  0.0682  0.1574
   10MOL   C108 2826   5.324   0.052   2.200  0.1653  0.5647  0.3264
   10MOL   C109 2827   5.174   0.019   2.240  0.3496 -0.1418  0.6479
   10MOL   C110 2828   5.079   0.120   2.266 -0.6089  0.1271  0.8426
   10MOL   C111 2829   4.953   0.086   2.309 -0.0322  0.0185  0.2447
   10MOL   C112 2830   4.931   8.105   2.325  0.1214  0.7865  0.3815
   10MOL   C113 2831   5.019   8.001   2.288 -0.7409 -0.4447 -0.4835
   10MOL   N114 2832   5.144   8.036   2.246  0.8524  0.3332 -0.3778
   10MOL   H115 2833   5.460   0.043   2.034  0.5569 -0.0961  0.9787
   10MOL   H116 2834   5.319   8.083   2.017  1.2524 -0.4102  0.6069
   10MOL   H117 2835   5.342   0.156   2.227 -1.3157  0.5505  1.4529
   10MOL   H118 2836   5.115   0.222   2.261  0.4625 -0.3133 -1.0306
   10MOL   H119 2837   4.885   0.168   2.325  0.1258  0.3519 -0.7301
   10MOL   H120 2838   4.835   8.075   2.365  0.3144  0.0744  0.3176
   10MOL   H121 2839   4.994   7.900   2.318 -0.2028 -0.7822 -1.1581
   10MOL   C122 2840   5.435   8.148   2.295  0.2552 -0.1044 -0.6327
   10MOL   C123 2841   5.439   0.065   2.435  0.8240  0.1350  0.3910
   10MOL   C124 2842   5.546   8.144   2.512  0.2573  0.7188 -0.4009
   10MOL   C125 2843   5.510   8.068   2.617  0.3873 -1.0562 -0.8138
   10MOL   C126 2844   5.613   7.999   2.682 -0.1121  0.2630 -0.4112
   10MOL   C127 2845   5.739   8.018   2.638  0.0274 -0.3085 -0.1781
   10MOL   C128 2846   5.774   8.111   2.536  0.8259 -0.2366 -0.6721
   10MOL   N129 2847   5.674   0.010   2.467 -0.6688  0.0690  0.1525
   10MOL   H130 2848   5.529   0.001   2.241 -0.1691 -0.5644 -1.4089
   10MOL   H131 2849   5.425   8.040   2.304 -1.4565  0.1037  0.2859
   10MOL   H132 2850   5.340   0.041   2.475  1.0922  0.6072  1.3336
   10MOL   H133 2851   5.406   8.066   2.646  0.3064 -1.0750 -1.1052
   10MOL   H134 2852   5.594   7.939   2.770  2.4170 -0.6534 -0.4713
   10MOL   H135 2853   5.815   7.967   2.696  0.9993 -0.5215 -1.6208
   10MOL   H136 2854   5.876   8.141   2.516  0.9001 -1.1859 -1.7408
   10MOL   C137 2855   5.461   0.216   2.446 -0.4824 -0.6342 -0.0651
   10MOL   C138 2856   5.476   0.270   2.592 -0.3409  0.0929  0.8399
   10MOL   C139 2857   5.514   0.418   2.600  0.3373  0.1955 -0.4388
   10MOL   C140 2858   5.608   0.452   2.696  0.1976 -0.6316 -0.2520
   10MOL   C141 2859   5.637   0.588   2.718  0.5153  0.1405 -0.0463
   10MOL   C142 2860   5.577   0.679   2.629  0.0762  0.3463  0.3863
   10MOL   C143 2861   5.493   0.630   2.532  0.0030 -0.0071 -0.1854
   10MOL   N144 2862   5.453   0.502   2.520 -0.1443  0.5699  0.4664
   10MOL   H145 2863   5.378   0.265   2.395  2.2086  1.4889 -2.6001
   10MOL   H146 2864   5.549   0.251   2.392 -0.8286 -1.1360 -0.9656
   10MOL   H147 2865   5.558   0.218   2.640 -0.3503  0.5169  1.3239
   10MOL   H148 2866   5.651   0.376   2.759 -0.5201 -0.3186  0.6200
   10MOL   H149 2867   5.696   0.610   2.806  0.0567  0.7479  0.1116
   10MOL   H150 2868   5.603   0.783   2.646 -0.2175  0.5307 -0.2792
   10MOL   H151 2869   5.439   0.694   2.463 -0.6547 -0.1608  0.1802
   10MOL   C152 2870   5.339   0.254   2.662  0.0192 -0.2177  0.3223
   10MOL   C153 2871   5.327   0.293   2.811 -0.0217  0.1607 -0.1642
   10MOL   C154 2872   5.183   0.311   2.848  0.0389 -0.6688  0.0840
   10MOL   C155 2873   5.124   0.434   2.888 -0.4891 -0.2708  0.1120
   10MOL   C156 2874   4.984   0.437   2.914 -0.2853 -0.0976  0.0358
   10MOL   C157 2875   4.911   0.316   2.906 -0.0109  1.0912  0.1474
   10MOL   C158 2876   4.979   0.204   2.867  0.5891  0.5854 -0.1030
   10MOL   N159 2877   5.110   0.199   2.836  0.0608 -0.0891 -0.2913
   10MOL   H160 2878   5.293   0.155   2.651  0.2670 -0.2133 -0.7968
   10MOL   H161 2879   5.277   0.324   2.606  2.8907  1.0891 -1.3023
   10MOL   H162 2880   5.377   0.387   2.834 -0.8110  0.5808 -0.1369
   10MOL   H163 2881   5.180   0.526   2.886 -0.8467 -0.0126  1.5227
   10MOL   H164 2882   4.943   0.529   2.952 -0.7720 -0.1828 -0.2771
   10MOL   H165 2883   4.814   0.298   2.950  0.6018  1.3811  1.6418
   10MOL   H166 2884   4.934   0.106   2.858  0.0886  0.9797 -1.9627
   10MOL   C167 2885   5.393   0.185   2.898  0.1372 -0.6003  0.8393
   10MOL   C168 2886   5.391   0.201   3.046  0.2777  0.4105  0.3174
   10MOL   C169 2887   5.418   0.066   3.116 -0.0176 -0.8425 -0.0107
   10MOL   C170 2888   5.337   0.023   3.227  0.5650  1.3178  0.0323
   10MOL   C171 2889   5.362   8.048   3.285 -0.1352  0.2755 -0.4864
   10MOL   C172 2890   5.469   7.974   3.228  0.2554  0.0160  0.4028
   10MOL   C173 2891   5.538   8.025   3.115 -0.5180 -0.2526  0.2467
   10MOL   N174 2892   5.520   8.146   3.062 -0.5403  0.6264 -0.0877
   10MOL   H175 2893   5.491   0.158   2.859  0.6410  1.3751  0.6929
   10MOL   H176 2894   5.344   0.090   2.876 -0.6080 -0.0177 -0.0324
   10MOL   H177 2895   5.290   0.223   3.082 -0.8191 -0.1968 -2.2553
   10MOL   H178 2896   5.251   0.080   3.260 -0.6265  0.0900 -0.8755
   10MOL   H179 2897   5.297   8.005   3.359  0.2500  1.9060  0.8363
   10MOL   H180 2898   5.494   7.874   3.262 -2.0361 -0.7995 -0.2413
   10MOL   H181 2899   5.614   7.961   3.071 -2.5836 -1.0737 -2.2374
   10MOL   C182 2900   5.481   0.315   3.106  0.3232  0.2933 -1.4671
   10MOL   C183 2901   5.501   0.323   3.255  0.5038  0.0096 -0.0600
   10MOL   C184 2902   5.641   0.272   3.297  0.9135 -0.4612 -0.0062
   10MOL   C185 2903   5.645   0.149   3.364 -0.1997  0.2743  0.0274
   10MOL   C186 2904   5.772   0.106   3.410  0.0278 -0.2317  0.3308
   10MOL   C187 2905   5.887   0.186   3.382 -0.2686 -0.4419 -0.0836
   10MOL   C188 2906   5.864   0.308   3.307 -0.5195 -0.8101  0.0279
   10MOL   N189 2907   5.747   0.355   3.267  0.7086  0.4598  0.6592
   10MOL   H190 2908   5.432   0.406   3.073 -3.0486 -0.7254  0.5470
   10MOL   H191 2909   5.573   0.295   3.051  0.2930 -0.6981 -1.1812
   10MOL   H192 2910   5.430   0.257   3.306 -1.1207  0.1081 -2.1362
   10MOL   H193 2911   5.553   0.101   3.391  0.6848 -1.4297  0.1169
   10MOL   H194 2912   5.785   0.006   3.448  0.1490 -0.0251  0.8483
   10MOL   H195 2913   5.987   0.162   3.412 -0.7603 -1.9585  0.3698
   10MOL   H196 2914   5.945   0.374   3.280  0.8042 -2.9027 -1.2194
   10MOL   C197 2915   5.471   0.461   3.315  0.3458  0.2722 -0.6853
   10MOL   C198 2916   5.452   0.474   3.473  0.0127 -0.7236  0.7571
   10MOL   C199 2917   5.577   0.455   3.561  0.3179 -1.2946 -1.0564
   10MOL   C200 2918   5.579   0.357   3.657 -0.4180 -0.4271  0.1767
   10MOL   C201 2919   5.700   0.351   3.729 -0.2142  0.3091  0.3590
   10MOL   C202 2920   5.806   0.448   3.716 -0.0887 -0.1819 -0.4459
   10MOL   C203 2921   5.781   0.551   3.631 -0.0249 -0.2227 -0.1702
   10MOL   N204 2922   5.674   0.550   3.545  0.8004  0.0178  0.4596
   10MOL   H205 2923   5.382   0.499   3.265  0.2812  0.7414 -0.2218
   10MOL   H206 2924   5.554   0.526   3.285  0.3433  0.1962 -0.8599
   10MOL   H207 2925   5.383   0.395   3.502  1.4783 -2.5477 -0.6302
   10MOL   H208 2926   5.506   0.278   3.663 -3.2373  2.0892 -0.0201
   10MOL   H209 2927   5.723   0.272   3.799  3.2086  0.8638 -0.0422
   10MOL   H210 2928   5.895   0.437   3.777  0.4167  0.0805 -1.1253
   10MOL   H211 2929   5.852   0.630   3.613 -0.8106  0.5166 -0.0589
   10MOL   C212 2930   5.374   0.611   3.494  0.6923  0.4559  0.6834
   10MOL   C213 2931   5.221   0.615   3.481 -0.8600 -0.4710 -0.4373
   10MOL   C214 2932   5.162   0.514   3.572 -0.0834  0.4051 -0.2540
   10MOL   C215 2933   5.173   0.516   3.715 -0.0658 -0.0944 -0.8873
   10MOL   C216 2934   5.101   0.432   3.795 -0.0036 -0.0492  0.4357
   10MOL   C217 2935   5.019   0.337   3.729 -0.1417  0.1566 -0.4799
   10MOL   C218 2936   5.007   0.345   3.589  0.5844 -0.0563 -0.4360
   10MOL   N219 2937   5.077   0.433   3.511 -0.1647 -0.3121 -0.0804
   10MOL   H220 2938   5.421   0.690   3.435 -2.3231  0.9100 -1.2462
   10MOL   H221 2939   5.392   0.634   3.599  0.4233  0.8722  0.6394
   10MOL   H222 2940   5.215   0.592   3.375  0.7793 -1.3415 -0.3511
   10MOL   H223 2941   5.235   0.598   3.749  1.0149 -0.4022 -2.1070
   10MOL   H224 2942   5.108   0.421   3.902 -0.8599 -0.5794  0.4386
   10MOL   H225 2943   4.965   0.262   3.785 -1.0733  1.1857  0.0174
   10MOL   H226 2944   4.935   0.282   3.538  1.0415 -0.4858 -0.5576
   10MOL   C227 2945   5.164   0.760   3.508 -0.6934  0.0814  1.1807
   10MOL   C228 2946   5.027   0.798   3.436 -0.4620 -0.5977 -0.5606
   10MOL   C229 2947   4.933   0.883   3.523 -0.1998 -0.1999  0.3964
   10MOL   C230 2948   4.817   0.825   3.584 -0.3180 -0.0224  0.2271
   10MOL   C231 2949   4.713   0.913   3.638  0.2164 -0.7616 -0.1419
   10MOL   C232 2950   4.736   1.048   3.620  0.0415  0.4863  0.4953
   10MOL   C233 2951   4.858   1.088   3.570 -0.3816 -0.2257  0.1489
   10MOL   N234 2952   4.960   1.012   3.530  0.3121  0.0774  0.0674
   10MOL   H235 2953   5.235   0.841   3.493 -0.0530 -0.8140 -0.8292
   10MOL   H236 2954   5.161   0.780   3.615  1.1236 -1.7895  1.6049
   10MOL   H237 2955   4.971   0.705   3.428 -2.0711  0.3481 -0.5100
   10MOL   H238 2956   4.801   0.720   3.568 -0.0600  0.0936 -0.8321
   10MOL   H239 2957   4.615   0.877   3.665 -0.8940  0.8608 -1.8568
   10MOL   H240 2958   4.664   1.127   3.634 -2.3264 -2.0123  2.9274
   10MOL   H241 2959   4.882   1.193   3.564 -0.6628 -0.1154  0.9603
   10MOL   C242 2960   5.048   0.861   3.301  0.0365  0.1541 -0.5658
   10MOL   C243 2961   5.065   0.759   3.176 -0.8013  0.5088  0.5744
   10MOL   C244 2962   4.956   0.647   3.182 -0.0044  0.3182  0.3323
   10MOL   C245 2963   4.979   0.514   3.217 -0.4797  0.3626 -0.3215
   10MOL   C246 2964   4.876   0.429   3.226  0.4718 -0.0147  0.0586
   10MOL   C247 2965   4.745   0.468   3.196  0.7873  0.1249  0.5841
   10MOL   C248 2966   4.726   0.604   3.162 -0.0992  0.4790 -0.3300
   10MOL   N249 2967   4.834   0.694   3.161  0.7387 -0.2980  0.3264
   10MOL   H250 2968   5.131   0.930   3.287 -0.4802  0.7358 -0.7199
   10MOL   H251 2969   4.960   0.917   3.273  0.4806  0.6456 -0.9900
   10MOL   H252 2970   5.159   0.705   3.186  0.2918  2.2653 -0.0254
   10MOL   H253 2971   5.079   0.483   3.243 -1.2504 -2.8807 -1.0986
   10MOL   H254 2972   4.896   0.331   3.267 -0.0015 -0.0317  0.2504
   10MOL   H255 2973   4.665   0.395   3.202 -1.8982  2.8250 -1.1141
   10MOL   H256 2974   4.627   0.640   3.139 -0.3367 -1.0498 -1.7551
   10MOL   C257 2975   5.066   0.831   3.038  0.3101 -0.1511 -0.2787
   10MOL   C258 2976   5.175   0.933   3.008 -0.5071  0.2938 -0.8427
   10MOL   C259 2977   5.319   0.869   3.038 -0.6164 -0.1456 -0.5289
   10MOL   C260 2978   5.397   0.936   3.137  0.5172 -0.2464 -0.9974
   10MOL   C261 2979   5.525   0.885   3.170 -0.0507 -0.3613  0.6509
   10MOL   C262 2980   5.560   0.762   3.106  0.0388 -0.2644 -0.4521
   10MOL   C263 2981   5.482   0.714   3.003 -0.7076 -0.0433  0.2225
   10MOL   N264 2982   5.364   0.765   2.969  0.0974 -0.6142 -0.7001
   10MOL   H265 2983   4.968   0.871   3.009 -1.0966 -1.8966  1.8265
   10MOL   H266 2984   5.070   0.753   2.962 -0.1472 -1.6667  1.2177
   10MOL   H267 2985   5.156   1.019   3.073  1.1729  0.9174 -1.1386
   10MOL   H268 2986   5.356   1.027   3.176 -1.7433 -2.4730  2.0985
   10MOL   H269 2987   5.595   0.940   3.231  1.0350 -0.6224 -0.3492
   10MOL   H270 2988   5.646   0.703   3.131 -1.7476 -1.7722  2.3768
   10MOL   H271 2989   5.514   0.632   2.941 -2.5990 -0.5972 -0.0407
   10MOL   C272 2990   5.182   1.000   2.871  0.5383 -0.1445 -0.5315
   10MOL   C273 2991   5.056   1.082   2.839  0.3609  0.8102 -0.7182
   10MOL   C274 2992   5.033   1.192   2.935 -1.2388  0.4784 -0.2599
   10MOL   C275 2993   5.094   1.316   2.915  0.3375 -0.0870  0.5400
   10MOL   C276 2994   5.065   1.416   3.006  0.2664  0.0881 -0.7466
   10MOL   C277 2995   4.962   1.394   3.102 -0.2264  0.2444 -0.0516
   10MOL   C278 2996   4.898   1.270   3.103  0.1785  0.2682  0.8419
   10MOL   N279 2997   4.929   1.171   3.026  0.3414 -0.2228 -0.0580
   10MOL   H280 2998   5.204   0.926   2.793  0.0004  1.6535 -2.4476
   10MOL   H281 2999   5.266   1.069   2.879  0.0481  0.6016 -1.6801
   10MOL   H282 3000   4.975   1.011   2.857  0.1703  1.1556 -0.2049
   10MOL   H283 3001   5.160   1.332   2.830  2.1736 -0.9063  1.7822
   10MOL   H284 3002   5.118   1.510   2.993  3.3170 -1.3841  0.6078
   10MOL   H285 3003   4.935   1.467   3.176 -0.8852 -0.8710  0.8245
   10MOL   H286 3004   4.820   1.260   3.177 -1.3627  2.1420 -0.4713
   10MOL   C287 3005   5.052   1.114   2.690 -0.0989  0.6433  0.4118
   10MOL   C288 3006   4.916   1.171   2.645  0.8599 -0.1163  0.2790
   10MOL   C289 3007   4.914   1.170   2.493  0.0369  0.1681  1.2243
   10MOL   C290 3008   4.839   1.081   2.423  0.8564 -0.1090  0.4892
   10MOL   C291 3009   4.848   1.070   2.280 -0.2798  0.4665  0.2318
   10MOL   C292 3010   4.937   1.160   2.218 -1.0316 -0.1975 -0.1913
   10MOL   C293 3011   5.002   1.253   2.298 -0.1677 -0.4590 -0.2009
   10MOL   N294 3012   4.996   1.257   2.434 -0.6352 -0.0773 -0.1677
   10MOL   H295 3013   5.046   1.017   2.642 -0.6065  1.5429 -1.4256
   10MOL   H296 3014   5.129   1.182   2.654 -0.5075  0.8195 -0.1349
   10MOL   H297 3015   4.898   1.268   2.691 -0.6570 -0.3801  0.2663
   10MOL   H298 3016   4.782   1.008   2.478 -0.1629 -0.2590 -0.7538
   10MOL   H299 3017   4.798   0.999   2.215 -2.2022 -0.4944  2.6918
   10MOL   H300 3018   4.957   1.158   2.112 -1.5289 -3.9910 -0.3125
   10MOL   H301 3019   5.076   1.315   2.249 -0.6976  1.2758  1.1600
   10MOL   H302 3020   4.830   1.111   2.677 -0.9103  1.3692 -1.5624
   11MOL     C1 3021   1.388   6.319   7.988  0.3023 -0.0199  0.7212
   11MOL     C2 3022   1.441   6.457   8.017  0.1998  0.0380  0.2955
   11MOL     C3 3023   1.425   6.558   7.897  0.3977 -0.0271  0.1342
   11MOL     C4 3024   1.519   6.570   7.795 -0.1811 -0.2717 -0.0479
   11MOL     C5 3025   1.499   6.654   7.687 -0.2074 -0.1242 -0.2098
   11MOL     C6 3026   1.386   6.734   7.688 -0.1838 -1.0483 -0.6434
   11MOL     C7 3027   1.287   6.706   7.783 -0.7993  0.8938  0.3001
   11MOL     N8 3028   1.304   6.619   7.879  0.5125 -0.1276  0.0451
   11MOL     H9 3029   1.281   6.301   7.978  0.0139  1.3537  1.2341
   11MOL    H10 3030   1.425   6.283   7.892  0.5829  1.4853  0.2415
   11MOL    H11 3031   1.548   6.442   8.022  0.2150  0.2158  0.5051
   11MOL    H12 3032   1.595   6.494   7.787 -0.9614 -1.0767  0.0474
   11MOL    H13 3033   1.561   6.660   7.599  1.1150 -2.3755  0.5285
   11MOL    H14 3034   1.376   6.808   7.611 -1.9493  0.3459  0.8898
   11MOL    H15 3035   1.199   6.768   7.794 -0.1392  1.5935  1.7287
   11MOL    H16 3036   1.410   6.253   8.071 -0.3273 -1.6693 -0.4028
   11MOL    C17 3037   1.399   6.516   8.150  0.2736  0.3399 -0.0743
   11MOL    C18 3038   1.250   6.524   0.034 -0.6926 -0.4070  0.2594
   11MOL    C19 3039   1.198   6.416   0.116 -0.2930  0.1314 -0.1755
   11MOL    C20 3040   1.094   6.337   0.059  0.5870  0.2022 -0.1356
   11MOL    C21 3041   1.028   6.243   0.143  0.5234 -0.0959  0.8333
   11MOL    C22 3042   1.072   6.223   0.273 -0.0823  0.3727 -0.4029
   11MOL    C23 3043   1.182   6.298   0.315  0.8901 -0.0588 -0.1299
   11MOL    N24 3044   1.241   6.392   0.245  0.0291 -0.1634  0.5155
   11MOL    H25 3045   1.443   6.616   8.148  1.7632 -0.3089 -1.0306
   11MOL    H26 3046   1.444   6.459   0.080 -0.1090  0.4168  0.1902
   11MOL    H27 3047   1.194   6.512   8.093 -0.5042 -0.1582  0.1126
   11MOL    H28 3048   1.067   6.349   8.107  0.7358  1.3358 -0.0539
   11MOL    H29 3049   0.951   6.177   0.107  2.4002 -1.1610 -1.4388
   11MOL    H30 3050   1.025   6.146   0.333  1.0370  2.0515  2.7144
   11MOL    H31 3051   1.226   6.289   0.413  0.3741 -0.0985  0.1024
   11MOL    C32 3052   1.224   6.658   0.108  0.8158  0.5195 -0.8049
   11MOL    C33 3053   1.143   6.766   0.024  0.1520 -0.1328  0.0404
   11MOL    C34 3054   1.004   6.719   8.141  0.3517 -0.4690 -0.9794
   11MOL    C35 3055   0.954   6.733   8.012 -0.0149 -0.3363 -0.3318
   11MOL    C36 3056   0.826   6.685   7.983 -0.0420 -0.2536  0.2072
   11MOL    C37 3057   0.745   6.635   8.088 -0.7932  0.1191 -0.8130
   11MOL    C38 3058   0.797   6.642   0.065 -0.0960 -0.5375 -0.8037
   11MOL    N39 3059   0.925   6.685   0.094 -0.2799 -0.1933 -0.1042
   11MOL    H40 3060   1.315   6.709   0.140  0.6530  1.0460 -1.1850
   11MOL    H41 3061   1.160   6.631   0.192  1.0557 -2.9709 -1.6570
   11MOL    H42 3062   1.204   6.759   8.086  1.9843 -1.0985  1.3149
   11MOL    H43 3063   1.013   6.785   7.938  1.3258 -0.2510  0.7643
   11MOL    H44 3064   0.780   6.694   7.886  1.1060  0.4133 -0.2778
   11MOL    H45 3065   0.644   6.596   8.081 -0.2917 -1.5336  0.5879
   11MOL    H46 3066   0.737   6.611   0.149 -0.8067  1.9101 -0.3702
   11MOL    C47 3067   1.128   6.912   0.074  0.5386  0.1109  1.0879
   11MOL    C48 3068   1.254   6.994   0.091  0.2066  0.1110  0.5122
   11MOL    C49 3069   1.348   6.988   8.119 -0.2408 -0.3498  0.6490
   11MOL    C50 3070   1.464   6.913   8.126 -0.8612  0.3211  0.2362
   11MOL    C51 3071   1.545   6.910   8.013 -0.7264 -0.3015  0.0813
   11MOL    C52 3072   1.491   6.968   7.891 -0.6734  0.7420  1.2376
   11MOL    C53 3073   1.369   7.036   7.900  0.8303  0.2638  0.8566
   11MOL    N54 3074   1.303   7.045   8.013 -0.2773  0.3445 -0.7224
   11MOL    H55 3075   1.076   6.923   0.169  0.3914  3.2022  0.6735
   11MOL    H56 3076   1.061   6.966   0.007  1.0424 -1.1117 -0.4423
   11MOL    H57 3077   1.310   6.942   0.170  0.3476  0.7780  0.8527
   11MOL    H58 3078   1.488   6.864   0.067  1.7688  1.9135  0.4446
   11MOL    H59 3079   1.636   6.852   8.007  0.2829  1.2315  0.2129
   11MOL    H60 3080   1.546   6.949   7.801 -1.4832  0.1663  0.8578
   11MOL    H61 3081   1.332   7.076   7.807 -0.0346 -0.7518  0.7533
   11MOL    C62 3082   1.228   7.142   0.145  0.2984 -0.7548 -0.6777
   11MOL    C63 3083   1.147   7.156   0.277 -0.2070 -0.3473 -0.4206
   11MOL    C64 3084   1.197   7.056   0.381 -0.0057  0.4335 -0.7042
   11MOL    C65 3085   1.113   6.971   0.456 -0.4016  0.1224  0.4092
   11MOL    C66 3086   1.178   6.882   0.544 -0.6610 -0.1995  0.4352
   11MOL    C67 3087   1.317   6.874   0.546  0.5472  0.2538  0.3213
   11MOL    C68 3088   1.392   6.975   0.478 -0.4020  0.8837  0.6068
   11MOL    N69 3089   1.329   7.066   0.402  0.1737  0.1499  0.1756
   11MOL    H70 3090   1.183   7.202   0.065 -0.0458 -0.9832 -0.6587
   11MOL    H71 3091   1.323   7.190   0.164 -0.1600 -0.1020  0.0029
   11MOL    H72 3092   1.043   7.126   0.264 -0.0130 -0.7036 -1.1493
   11MOL    H73 3093   1.006   6.968   0.447 -0.3118 -0.9752 -0.3531
   11MOL    H74 3094   1.117   6.814   0.602 -1.0468  0.4894  0.8512
   11MOL    H75 3095   1.372   6.817   0.620  0.4327  1.4155  1.3081
   11MOL    H76 3096   1.499   6.983   0.485 -0.2707 -1.4553  1.6988
   11MOL    C77 3097   1.149   7.302   0.330 -0.4471  0.2226  0.3325
   11MOL    C78 3098   1.037   7.402   0.290  0.3960  0.7748 -0.0914
   11MOL    C79 3099   0.924   7.386   0.385 -0.1669 -0.4428  0.2652
   11MOL    C80 3100   0.937   7.444   0.515  0.1736 -0.3366 -0.2013
   11MOL    C81 3101   0.824   7.434   0.600  0.1345 -0.2399  0.8261
   11MOL    C82 3102   0.708   7.378   0.548  0.1137 -0.1861  0.3181
   11MOL    C83 3103   0.700   7.326   0.417 -0.0794 -0.2361  0.1757
   11MOL    N84 3104   0.810   7.331   0.338  0.2350  0.1379 -0.0210
   11MOL    H85 3105   1.245   7.351   0.314  0.0159 -1.2132 -1.5296
   11MOL    H86 3106   1.148   7.314   0.438  1.3150 -0.7655  0.4871
   11MOL    H87 3107   0.989   7.372   0.197  0.3895 -2.3921  0.8470
   11MOL    H88 3108   1.031   7.488   0.547  1.2257 -0.8497 -2.4959
   11MOL    H89 3109   0.820   7.471   0.702  1.3666  0.8175  0.5103
   11MOL    H90 3110   0.622   7.367   0.613  0.0148 -0.1979  0.1844
   11MOL    H91 3111   0.613   7.273   0.384  0.9484 -1.4346 -0.6360
   11MOL    C92 3112   1.089   7.543   0.287  0.2291 -0.0437 -0.4099
   11MOL    C93 3113   1.203   7.573   0.180  0.0788 -0.4421  0.1259
   11MOL    C94 3114   1.190   7.498   0.049  0.2402  0.0593  0.5812
   11MOL    C95 3115   1.067   7.499   8.136 -0.1008 -0.2495  0.0016
   11MOL    C96 3116   1.069   7.440   8.013  0.2400 -0.6087 -0.3070
   11MOL    C97 3117   1.179   7.367   7.965  1.0943 -0.1537 -0.0226
   11MOL    C98 3118   1.297   7.376   8.034 -0.4460  0.2297  0.0778
   11MOL    N99 3119   1.304   7.444   0.001  0.0651  0.1748 -0.2579
   11MOL   H100 3120   1.144   7.553   0.381 -0.0852  2.3708 -0.4588
   11MOL   H101 3121   1.008   7.616   0.279 -0.6325 -0.9694 -0.1917
   11MOL   H102 3122   1.296   7.536   0.222  0.2729  1.0004  1.0054
   11MOL   H103 3123   0.981   7.542   0.035  0.0476 -0.7735  0.7002
   11MOL   H104 3124   0.973   7.431   7.964  0.1661  3.6771 -1.1427
   11MOL   H105 3125   1.168   7.308   7.875 -0.0444  0.7424 -0.4710
   11MOL   H106 3126   1.390   7.333   7.999 -1.5806 -0.7739 -1.7602
   11MOL   C107 3127   1.221   7.722   0.142 -0.6635 -0.2000 -0.1558
   11MOL   C108 3128   1.304   7.818   0.237  0.0690 -0.5340 -0.5420
   11MOL   C109 3129   1.254   7.824   0.380 -0.4111  0.3610  0.1719
   11MOL   C110 3130   1.156   7.923   0.423 -0.3371  0.2074 -0.3293
   11MOL   C111 3131   1.113   7.923   0.554  0.0341  0.0216  0.8137
   11MOL   C112 3132   1.166   7.834   0.650 -0.3867  0.4379  0.1928
   11MOL   C113 3133   1.258   7.737   0.594  0.1694 -0.4169  0.6374
   11MOL   N114 3134   1.295   7.727   0.466 -0.0565  0.4097  0.3347
   11MOL   H115 3135   1.119   7.757   0.157 -1.3939 -3.0532  2.0380
   11MOL   H116 3136   1.247   7.743   0.038  1.3074 -1.8893 -0.0428
   11MOL   H117 3137   1.269   7.913   0.196  0.8371  0.0186  0.0901
   11MOL   H118 3138   1.117   7.992   0.349  0.4348  0.2065 -0.7496
   11MOL   H119 3139   1.040   7.997   0.583 -1.1050 -0.6587 -0.3116
   11MOL   H120 3140   1.145   7.842   0.756 -0.7388 -0.6966  0.2185
   11MOL   H121 3141   1.307   7.673   0.667  2.4556 -0.4985 -0.9063
   11MOL   C122 3142   1.454   7.812   0.234 -0.4777  0.3396 -0.6145
   11MOL   C123 3143   1.526   7.837   0.101  0.4230  0.0046 -0.7439
   11MOL   C124 3144   1.643   7.931   0.132 -0.3058 -0.2514  0.1502
   11MOL   C125 3145   1.649   8.063   0.073 -0.8904  0.4310  0.4358
   11MOL   C126 3146   1.767   8.134   0.075  0.3414 -0.6954  0.7642
   11MOL   C127 3147   1.864   8.083   0.160 -0.5158  0.5808 -0.3739
   11MOL   C128 3148   1.850   7.960   0.226  0.3499 -0.7089 -0.0320
   11MOL   N129 3149   1.737   7.889   0.219  0.6207  0.8029  0.0830
   11MOL   H130 3150   1.483   7.712   0.266  1.6244  0.1652 -2.9006
   11MOL   H131 3151   1.491   7.881   0.310 -1.9163  1.6979 -1.1289
   11MOL   H132 3152   1.455   7.887   0.036  1.4068  0.0286 -1.8213
   11MOL   H133 3153   1.578   8.087   8.148 -1.0098  1.3339  0.8138
   11MOL   H134 3154   1.784   0.067   0.010  1.6186 -0.7909  0.9632
   11MOL   H135 3155   1.961   8.131   0.166  0.8347 -1.8581 -1.8206
   11MOL   H136 3156   1.923   7.940   0.303 -0.4528  2.6331  1.7004
   11MOL   C137 3157   1.566   7.710   0.027  0.3410  1.0028  0.3485
   11MOL   C138 3158   1.605   7.732   8.029  0.2571 -0.3560 -0.0371
   11MOL   C139 3159   1.753   7.770   8.006 -0.0372  0.4693  0.5746
   11MOL   C140 3160   1.785   7.906   7.983  0.6540  0.1230 -0.4228
   11MOL   C141 3161   1.917   7.945   7.958 -0.2957  0.3874  0.8314
   11MOL   C142 3162   2.012   7.841   7.961 -0.0809  0.3681 -0.9337
   11MOL   C143 3163   1.971   7.708   7.985 -0.3924 -0.3538 -0.4030
   11MOL   N144 3164   1.842   7.672   8.013  0.5238 -0.0771  0.2635
   11MOL   H145 3165   1.483   7.640   0.028  1.8628 -0.8558 -0.8849
   11MOL   H146 3166   1.643   7.653   0.079 -0.3824  0.4241  0.7995
   11MOL   H147 3167   1.546   7.816   7.993 -0.4388  0.2545  2.3759
   11MOL   H148 3168   1.700   7.972   7.980  0.5867  0.0781  0.4949
   11MOL   H149 3169   1.931   8.051   7.944 -1.9886  0.2541 -2.5532
   11MOL   H150 3170   2.118   7.860   7.964 -0.1513  0.6994 -0.3368
   11MOL   H151 3171   2.043   7.629   8.000  2.0104  2.0397  1.0492
   11MOL   C152 3172   1.565   7.620   7.937 -0.8569 -0.4422  0.1133
   11MOL   C153 3173   1.627   7.620   7.799 -0.0663 -0.8104 -0.2817
   11MOL   C154 3174   1.593   7.487   7.731  0.5257 -0.1851  0.1885
   11MOL   C155 3175   1.686   7.391   7.688  0.6364  0.0356  0.1399
   11MOL   C156 3176   1.646   7.266   7.630  0.7350  0.7603  0.3965
   11MOL   C157 3177   1.514   7.252   7.600  0.1271  0.3026 -0.0534
   11MOL   C158 3178   1.425   7.350   7.650  0.2524  0.1136 -0.2056
   11MOL   N159 3179   1.461   7.460   7.714 -0.3856 -0.6916  0.8369
   11MOL   H160 3180   1.457   7.628   7.927 -0.8678 -1.6634 -0.9302
   11MOL   H161 3181   1.589   7.523   7.980  3.1851 -0.1547 -1.2768
   11MOL   H162 3182   1.736   7.612   7.795  0.0630 -0.8178  2.3034
   11MOL   H163 3183   1.789   7.399   7.720  0.4640  0.7289  0.5341
   11MOL   H164 3184   1.720   7.191   7.608 -0.7993 -0.5197 -0.5055
   11MOL   H165 3185   1.486   7.156   7.557  1.9533 -0.1236 -0.3251
   11MOL   H166 3186   1.318   7.336   7.645  0.3059 -1.2555  1.8262
   11MOL   C167 3187   1.579   7.733   7.706  0.5087 -0.0097 -0.1759
   11MOL   C168 3188   1.667   7.775   7.588  0.1101 -0.1681 -0.3301
   11MOL   C169 3189   1.601   7.895   7.513 -0.6975  0.3461  0.2580
   11MOL   C170 3190   1.595   8.023   7.566 -0.4296 -0.0278 -1.0447
   11MOL   C171 3191   1.522   8.123   7.495 -0.7078  0.7206 -0.0889
   11MOL   C172 3192   1.461   8.092   7.374  0.3595  0.1897 -0.0011
   11MOL   C173 3193   1.485   7.962   7.322 -0.4931  0.0085  0.9724
   11MOL   N174 3194   1.547   7.863   7.394 -0.5556 -0.2004  0.2785
   11MOL   H175 3195   1.563   7.828   7.759  0.9541 -1.8259  3.3685
   11MOL   H176 3196   1.476   7.715   7.674 -0.0711  1.4867  0.7721
   11MOL   H177 3197   1.661   7.691   7.519  2.2380 -0.2651 -0.4423
   11MOL   H178 3198   1.645   8.046   7.658 -2.1843 -2.0935  0.4797
   11MOL   H179 3199   1.512   0.065   7.546 -0.5068  0.6840  0.0151
   11MOL   H180 3200   1.416   0.010   7.304  1.7210  1.1858  0.1144
   11MOL   H181 3201   1.464   7.938   7.219 -1.1478  0.1203  1.0735
   11MOL   C182 3202   1.820   7.802   7.635  0.1011 -0.0337 -0.1106
   11MOL   C183 3203   1.917   7.836   7.515  0.8835 -0.7567 -0.0324
   11MOL   C184 3204   2.049   7.889   7.576 -0.1782  0.4041 -0.2643
   11MOL   C185 3205   2.176   7.829   7.547 -0.1265 -0.3641  0.1169
   11MOL   C186 3206   2.295   7.891   7.593  0.2328 -0.6470  0.2696
   11MOL   C187 3207   2.281   8.010   7.664  0.0100 -0.2695  0.2022
   11MOL   C188 3208   2.150   8.062   7.689 -0.2771 -0.3252 -0.4171
   11MOL   N189 3209   2.040   7.999   7.651  0.0286 -0.0958  0.1564
   11MOL   H190 3210   1.875   7.731   7.696  1.2807  0.1890 -0.8851
   11MOL   H191 3211   1.825   7.896   7.690  0.8891  1.6145 -2.8796
   11MOL   H192 3212   1.880   7.928   7.470  2.2597  0.1891  0.7199
   11MOL   H193 3213   2.181   7.729   7.506  1.3779  0.0200 -0.6574
   11MOL   H194 3214   2.394   7.851   7.579  1.3127  1.7765  0.7363
   11MOL   H195 3215   2.373   8.060   7.690 -0.5536  0.8398  0.0832
   11MOL   H196 3216   2.142   0.004   7.742  1.8796 -0.0948 -0.4383
   11MOL   C197 3217   1.931   7.724   7.416  0.1333  0.8131 -0.1684
   11MOL   C198 3218   1.975   7.760   7.272 -0.7903 -0.7676  1.0402
   11MOL   C199 3219   2.011   7.645   7.184 -0.1695  0.6321  0.1790
   11MOL   C200 3220   2.151   7.606   7.176  0.8034  0.0129  0.0155
   11MOL   C201 3221   2.178   7.481   7.111 -0.0189 -0.3402  0.2126
   11MOL   C202 3222   2.072   7.407   7.059 -0.5763 -0.0938 -0.5799
   11MOL   C203 3223   1.937   7.451   7.077  0.0474 -0.0214 -0.0225
   11MOL   N204 3224   1.907   7.563   7.140 -0.3458  0.2856 -0.3123
   11MOL   H205 3225   1.840   7.663   7.416  1.2620 -1.0415  3.8560
   11MOL   H206 3226   2.003   7.649   7.450 -0.7141 -0.0376 -0.2110
   11MOL   H207 3227   2.067   7.818   7.281 -1.0661 -0.0565 -0.5301
   11MOL   H208 3228   2.229   7.663   7.222 -1.4289  4.4347 -1.3911
   11MOL   H209 3229   2.283   7.454   7.107  0.2148  0.5377  0.2986
   11MOL   H210 3230   2.093   7.316   7.006 -1.7736 -0.1406 -0.9920
   11MOL   H211 3231   1.862   7.378   7.053 -0.9467  1.0417 -0.1851
   11MOL   C212 3232   1.876   7.859   7.204  0.1156 -0.5848 -0.5002
   11MOL   C213 3233   1.868   7.879   7.045 -0.1877 -0.7264 -0.1315
   11MOL   C214 3234   1.763   7.987   7.014 -0.1569  0.0070 -0.2816
   11MOL   C215 3235   1.640   7.962   6.950 -0.8150  0.2817 -0.6218
   11MOL   C216 3236   1.545   8.068   6.940  0.0840 -0.3794  0.1881
   11MOL   C217 3237   1.584   0.038   6.986  0.0064 -0.0665  0.7146
   11MOL   C218 3238   1.711   0.060   7.044  0.8417  0.5007 -0.0466
   11MOL   N219 3239   1.795   8.109   7.050  0.1959 -0.5284 -0.8101
   11MOL   H220 3240   1.900   7.956   7.246  0.0520 -1.0691  0.6817
   11MOL   H221 3241   1.780   7.818   7.237  0.7151 -1.9304 -0.3673
   11MOL   H222 3242   1.828   7.784   7.007 -1.1310 -0.3346 -0.1358
   11MOL   H223 3243   1.613   7.861   6.921  0.4562 -0.5344  0.9439
   11MOL   H224 3244   1.457   8.042   6.884  0.0768 -1.3328  0.6341
   11MOL   H225 3245   1.517   0.123   6.975  0.6649  0.1488 -1.9418
   11MOL   H226 3246   1.754   0.155   7.071 -0.5552  0.4239  2.7176
   11MOL   C227 3247   2.001   7.903   6.979 -0.5035  0.3142  0.0029
   11MOL   C228 3248   2.048   7.802   6.881 -0.5642 -0.3135 -0.7902
   11MOL   C229 3249   1.935   7.750   6.791  0.2370 -0.4247  0.2371
   11MOL   C230 3250   1.854   7.834   6.708 -0.5252  0.1124  0.2377
   11MOL   C231 3251   1.739   7.772   6.649  0.1168  0.2108  0.7555
   11MOL   C232 3252   1.714   7.636   6.674 -0.5991 -0.0333 -0.1175
   11MOL   C233 3253   1.804   7.561   6.743 -0.4416 -0.2465  0.0715
   11MOL   N234 3254   1.918   7.616   6.796  0.5331  0.2341 -0.7616
   11MOL   H235 3255   2.081   7.918   7.051  1.3807 -0.0503 -1.9374
   11MOL   H236 3256   1.985   7.995   6.923 -2.0557  0.2903  0.3956
   11MOL   H237 3257   2.084   7.724   6.947  0.0953  0.8599  0.2610
   11MOL   H238 3258   1.870   7.940   6.691 -1.5097  0.0438 -1.2441
   11MOL   H239 3259   1.669   7.825   6.585  2.0666 -0.0045 -1.6577
   11MOL   H240 3260   1.619   7.599   6.639 -0.6923 -0.4278  0.5280
   11MOL   H241 3261   1.778   7.466   6.787 -1.7646  1.3427  2.8435
   11MOL   C242 3262   2.166   7.850   6.795  0.8805 -0.2115 -1.3705
   11MOL   C243 3263   2.229   7.731   6.717  0.1455  0.4456 -0.0045
   11MOL   C244 3264   2.289   7.770   6.586 -0.1468  0.3770  0.0973
   11MOL   C245 3265   2.224   7.738   6.467  0.4663  0.2685  0.1972
   11MOL   C246 3266   2.283   7.779   6.344 -0.3629  0.1955  0.4267
   11MOL   C247 3267   2.405   7.843   6.347 -0.1534 -0.0893 -0.3076
   11MOL   C248 3268   2.471   7.863   6.465  0.5420 -0.0417 -0.3890
   11MOL   N249 3269   2.410   7.838   6.586 -0.1380  0.5905  0.4638
   11MOL   H250 3270   2.234   7.906   6.858 -0.2362 -1.0175  0.5933
   11MOL   H251 3271   2.127   7.931   6.734 -2.4830 -0.2988  0.5324
   11MOL   H252 3272   2.148   7.663   6.690 -0.4573  1.2676 -0.2941
   11MOL   H253 3273   2.129   7.689   6.480  0.3109 -0.0759 -2.0069
   11MOL   H254 3274   2.238   7.759   6.248 -1.2352 -1.2148  1.1201
   11MOL   H255 3275   2.450   7.870   6.253 -1.5479  0.7724 -0.7452
   11MOL   H256 3276   2.574   7.894   6.463  0.4118  0.9540  3.3111
   11MOL   C257 3277   2.332   7.644   6.797 -0.8402 -0.5782  0.1783
   11MOL   C258 3278   2.369   7.505   6.755 -0.1973  0.3613  0.8555
   11MOL   C259 3279   2.492   7.455   6.827  0.4329 -0.3426 -0.0587
   11MOL   C260 3280   2.616   7.446   6.761  0.1688 -0.5119  0.3041
   11MOL   C261 3281   2.731   7.409   6.832  0.5162  0.0416  0.5572
   11MOL   C262 3282   2.718   7.360   6.962  0.5886  0.2498  0.2326
   11MOL   C263 3283   2.588   7.366   7.016  0.6650  0.1909  0.2309
   11MOL   N264 3284   2.476   7.416   6.955 -0.0077 -0.7363 -0.3348
   11MOL   H265 3285   2.287   7.636   6.896  1.9496  0.4463  1.6054
   11MOL   H266 3286   2.422   7.704   6.811 -1.4609  0.8427 -1.7231
   11MOL   H267 3287   2.402   7.519   6.652 -0.4112  0.5687  0.8168
   11MOL   H268 3288   2.625   7.478   6.658 -0.6978 -1.2007  0.0058
   11MOL   H269 3289   2.831   7.400   6.792  0.6418 -4.9537  1.5716
   11MOL   H270 3290   2.792   7.312   7.025  2.0603  1.0315 -0.8652
   11MOL   H271 3291   2.553   7.321   7.108  1.9764  1.1331  1.2020
   11MOL   C272 3292   2.245   7.410   6.766 -0.5620 -0.4647  0.1122
   11MOL   C273 3293   2.222   7.311   6.642  0.6475  0.5764  0.4481
   11MOL   C274 3294   2.120   7.211   6.694 -0.1564 -0.1064 -0.0696
   11MOL   C275 3295   2.158   7.079   6.730 -0.4418 -0.4243 -0.1704
   11MOL   C276 3296   2.057   6.991   6.774  0.1917 -0.1584 -0.1750
   11MOL   C277 3297   1.925   7.026   6.750  0.5603 -0.0890 -0.0338
   11MOL   C278 3298   1.895   7.162   6.722 -0.2647 -0.6017 -0.3495
   11MOL   N279 3299   1.991   7.256   6.694 -0.5299  0.6606 -0.4720
   11MOL   H280 3300   2.150   7.462   6.776 -2.1617 -2.8866 -1.5863
   11MOL   H281 3301   2.240   7.344   6.852 -3.7311 -0.8722 -0.2967
   11MOL   H282 3302   2.314   7.257   6.620 -0.1330 -1.0678  1.1240
   11MOL   H283 3303   2.258   7.041   6.720 -0.4068 -0.8204  1.4635
   11MOL   H284 3304   2.076   6.892   6.813 -2.1580 -0.9602 -0.9620
   11MOL   H285 3305   1.842   6.959   6.763  0.0919 -0.0953 -2.8466
   11MOL   H286 3306   1.797   7.207   6.719 -0.2237 -0.3311  1.5729
   11MOL   C287 3307   2.181   7.379   6.510  0.5395 -0.3323 -0.0560
   11MOL   C288 3308   2.124   7.294   6.395 -0.0380  0.1232 -0.6747
   11MOL   C289 3309   2.237   7.197   6.350  0.2436 -0.5136  0.4243
   11MOL   C290 3310   2.239   7.065   6.399 -0.0871 -0.7872 -0.5634
   11MOL   C291 3311   2.341   6.974   6.360 -0.0156  0.3145 -0.3636
   11MOL   C292 3312   2.441   7.026   6.282 -0.4928 -0.2292 -0.1963
   11MOL   C293 3313   2.432   7.160   6.237  0.2800 -0.1159 -0.1542
   11MOL   N294 3314   2.332   7.247   6.276  0.5180 -0.7092  0.5751
   11MOL   H295 3315   2.256   7.451   6.481  1.0438 -0.7532  0.1942
   11MOL   H296 3316   2.094   7.440   6.535  0.1295 -0.0324 -2.1604
   11MOL   H297 3317   2.084   7.363   6.321 -3.4689 -1.1287 -0.0864
   11MOL   H298 3318   2.160   7.036   6.467  1.3385 -1.0673  1.0130
   11MOL   H299 3319   2.343   6.874   6.400 -3.6954 -0.4532 -1.8828
   11MOL   H300 3320   2.522   6.957   6.264 -1.3911 -0.8025 -2.1625
   11MOL   H301 3321   2.504   7.205   6.170  0.1329  1.8441  0.9626
   11MOL   H302 3322   2.033   7.251   6.437  1.0976 -2.0367 -0.3202
   12MOL     C1 3323   6.265   6.626   7.379  0.0656  0.1483 -0.1399
   12MOL     C2 3324   6.390   6.567   7.436 -1.4919 -0.1562 -0.6508
   12MOL     C3 3325   6.452   6.666   7.543 -0.1873  0.4729  0.4539
   12MOL     C4 3326   6.568   6.738   7.511 -0.1528 -0.5105  0.0796
   12MOL     C5 3327   6.612   6.832   7.608  0.2414 -0.7169 -0.7245
   12MOL     C6 3328   6.533   6.855   7.721 -0.2639  0.6806  0.3290
   12MOL     C7 3329   6.417   6.776   7.740  0.0807 -0.6840  0.3891
   12MOL     N8 3330   6.377   6.684   7.651  0.5315  0.2482  0.4218
   12MOL     H9 3331   6.256   6.735   7.378  0.9516  0.2372  0.7166
   12MOL    H10 3332   6.238   6.587   7.281  2.5397 -0.4668 -0.6075
   12MOL    H11 3333   6.458   6.575   7.351  0.6346 -0.9545  0.9434
   12MOL    H12 3334   6.620   6.722   7.418 -1.7001  0.6191 -1.0014
   12MOL    H13 3335   6.702   6.886   7.585 -0.5659  0.7712 -0.4780
   12MOL    H14 3336   6.559   6.927   7.797  0.8955  1.5994 -0.9218
   12MOL    H15 3337   6.353   6.790   7.826  0.7812 -3.1654  1.3566
   12MOL    H16 3338   6.183   6.600   7.446  0.6508  0.1574  0.5887
   12MOL    C17 3339   6.376   6.424   7.494 -0.4328 -0.1052 -0.2348
   12MOL    C18 3340   6.428   6.324   7.383  0.0286 -1.0249  0.1863
   12MOL    C19 3341   6.582   6.342   7.363  0.2740  0.4444  0.2668
   12MOL    C20 3342   6.633   6.368   7.236 -0.3136  0.2283 -0.0030
   12MOL    C21 3343   6.775   6.373   7.215  0.8945  0.3930 -0.2379
   12MOL    C22 3344   6.855   6.354   7.325  0.7978  0.6211 -0.1872
   12MOL    C23 3345   6.790   6.329   7.449  0.0254  0.0966  0.1730
   12MOL    N24 3346   6.658   6.319   7.471  0.3952  0.0964 -0.2123
   12MOL    H25 3347   6.273   6.399   7.520  1.1373 -3.0485  3.7093
   12MOL    H26 3348   6.438   6.400   7.581  1.3713  1.2631 -1.1048
   12MOL    H27 3349   6.385   6.352   7.287 -1.2323 -0.7202  0.8329
   12MOL    H28 3350   6.570   6.376   7.149 -1.3946  2.7287  0.9778
   12MOL    H29 3351   6.810   6.383   7.113 -0.7200 -0.7233 -0.9323
   12MOL    H30 3352   6.962   6.355   7.313  0.8862  1.0618  0.6066
   12MOL    H31 3353   6.852   6.308   7.535  0.7144  0.7950 -0.1549
   12MOL    C32 3354   6.389   6.178   7.406 -0.0742  0.0732 -0.1901
   12MOL    C33 3355   6.233   6.158   7.420 -0.2822 -0.4624  0.1334
   12MOL    C34 3356   6.157   6.227   7.307  0.0550 -0.5366 -0.1297
   12MOL    C35 3357   6.063   6.326   7.347 -0.3734  0.6146  0.4147
   12MOL    C36 3358   5.995   6.387   7.242 -0.1103 -0.3138 -0.2436
   12MOL    C37 3359   6.030   6.361   7.108 -0.1165 -0.4580  0.2035
   12MOL    C38 3360   6.134   6.268   7.082 -0.1934  0.0685 -0.0428
   12MOL    N39 3361   6.192   6.199   7.180  0.1667  0.2512  0.0895
   12MOL    H40 3362   6.436   6.147   7.499  0.8932  0.2002 -0.6276
   12MOL    H41 3363   6.428   6.119   7.323 -1.3047  1.0993 -1.5266
   12MOL    H42 3364   6.202   6.214   7.508 -0.3223  1.1766 -0.9044
   12MOL    H43 3365   6.051   6.355   7.451 -1.5098  0.9708  0.1782
   12MOL    H44 3366   5.918   6.461   7.257  1.0340  0.9328 -0.4636
   12MOL    H45 3367   5.994   6.417   7.023  0.0437 -0.3596  0.1990
   12MOL    H46 3368   6.172   6.260   6.981  1.5803  0.7049  0.5512
   12MOL    C47 3369   6.188   6.019   7.440  0.7244  0.2968  0.1321
   12MOL    C48 3370   6.049   6.005   7.502 -0.2305  0.0042  0.5455
   12MOL    C49 3371   5.985   5.877   7.468  0.9343  0.3933  0.3728
   12MOL    C50 3372   6.050   5.754   7.478  0.0592  0.1249  0.0828
   12MOL    C51 3373   5.974   5.635   7.474  0.4528 -0.1973  0.3624
   12MOL    C52 3374   5.836   5.647   7.445 -0.1221  0.0381  0.1225
   12MOL    C53 3375   5.780   5.769   7.420  0.5633  0.1862 -0.3691
   12MOL    N54 3376   5.855   5.884   7.427  0.0728 -0.0252 -0.1863
   12MOL    H55 3377   6.261   5.961   7.497 -1.8943 -0.6295  2.6613
   12MOL    H56 3378   6.187   5.969   7.343  1.8303  3.0492 -1.3709
   12MOL    H57 3379   5.987   6.081   7.454 -0.2217  0.6929  1.6322
   12MOL    H58 3380   6.153   5.749   7.511 -0.1946 -2.6658  0.6207
   12MOL    H59 3381   6.008   5.536   7.501 -0.3102 -0.3016  0.9494
   12MOL    H60 3382   5.765   5.566   7.441 -0.0558 -0.0287  0.2987
   12MOL    H61 3383   5.680   5.794   7.387 -0.2082 -2.5513 -0.2549
   12MOL    C62 3384   6.036   6.045   7.651 -0.1668  0.1123 -0.1303
   12MOL    C63 3385   5.901   6.042   7.718  0.0450 -0.7105  0.2510
   12MOL    C64 3386   5.922   6.019   7.866  0.3719 -0.7001 -0.7744
   12MOL    C65 3387   5.913   5.894   7.924 -0.6094  0.1080  0.2844
   12MOL    C66 3388   5.948   5.879   8.058 -0.2455  0.5941 -0.2773
   12MOL    C67 3389   5.992   5.989   8.133  0.5861 -0.1786  0.2423
   12MOL    C68 3390   6.002   6.108   8.071  0.3418  0.8153  0.3801
   12MOL    N69 3391   5.958   6.123   7.942 -0.1990 -0.3184 -0.4459
   12MOL    H70 3392   6.084   6.142   7.662 -1.8617  1.0810 -1.0462
   12MOL    H71 3393   6.099   5.976   7.706  1.1668  2.0113  0.7507
   12MOL    H72 3394   5.848   5.955   7.681  1.0665 -1.8596  1.4412
   12MOL    H73 3395   5.887   5.820   7.849  0.4741 -1.3722  1.3543
   12MOL    H74 3396   5.940   5.778   8.097 -1.4312 -0.0661 -2.1746
   12MOL    H75 3397   6.030   5.972   0.081  0.2319 -1.5323  0.1481
   12MOL    H76 3398   6.039   6.192   8.129  1.5083 -0.7388  1.9403
   12MOL    C77 3399   5.816   6.162   7.689  0.2405 -0.2568 -0.1857
   12MOL    C78 3400   5.659   6.163   7.722 -0.2659 -0.8180  0.5250
   12MOL    C79 3401   5.587   6.031   7.705 -0.1599  0.2531  0.3385
   12MOL    C80 3402   5.500   6.009   7.600  0.0160  0.1217  0.4676
   12MOL    C81 3403   5.432   5.894   7.586  0.7202 -0.3553  0.2291
   12MOL    C82 3404   5.456   5.794   7.684 -0.1458 -0.5076  0.9917
   12MOL    C83 3405   5.545   5.828   7.786  0.6089  0.8055 -0.2462
   12MOL    N84 3406   5.603   5.947   7.808 -0.0657  0.1719 -0.2792
   12MOL    H85 3407   5.817   6.163   7.580  2.9583  0.2992 -0.2029
   12MOL    H86 3408   5.860   6.258   7.718  1.5689  0.1324 -3.3656
   12MOL    H87 3409   5.609   6.216   7.641 -2.0493 -1.9047  0.8840
   12MOL    H88 3410   5.489   6.084   7.523  0.0238  0.8395  1.1609
   12MOL    H89 3411   5.361   5.883   7.505  0.0100  0.5920  0.7196
   12MOL    H90 3412   5.411   5.695   7.684  0.5348 -0.8364 -0.9514
   12MOL    H91 3413   5.556   5.758   7.868  0.2540 -0.9795 -1.6767
   12MOL    C92 3414   5.627   6.229   7.860 -0.3023 -0.1957 -0.0914
   12MOL    C93 3415   5.629   6.381   7.865 -0.3142 -0.2059 -0.3663
   12MOL    C94 3416   5.526   6.460   7.776  0.0448 -0.0711  0.0309
   12MOL    C95 3417   5.399   6.498   7.821 -0.9948 -0.7718  0.0727
   12MOL    C96 3418   5.321   6.583   7.739  0.0735  0.3567  0.5102
   12MOL    C97 3419   5.373   6.624   7.617 -0.4905 -0.3124  0.1513
   12MOL    C98 3420   5.502   6.582   7.583 -0.6410  0.5716  0.4736
   12MOL    N99 3421   5.581   6.499   7.653 -0.4203 -0.1725 -1.3015
   12MOL   H100 3422   5.691   6.187   7.938  0.9895  2.3379  0.2730
   12MOL   H101 3423   5.529   6.205   7.900  0.0268 -1.3983  0.0026
   12MOL   H102 3424   5.719   6.405   7.808  0.3471 -0.9324  0.3758
   12MOL   H103 3425   5.356   6.472   7.917 -1.4692  1.7489  0.5881
   12MOL   H104 3426   5.220   6.610   7.766 -0.0555  1.1915 -0.7289
   12MOL   H105 3427   5.318   6.682   7.545 -0.9554  0.2491  0.9541
   12MOL   H106 3428   5.546   6.617   7.491  0.8676  0.8241  1.2848
   12MOL   C107 3429   5.631   6.448   8.008  0.3488  0.2614 -0.0736
   12MOL   C108 3430   5.762   6.481   8.074 -0.1014 -0.3837  0.2611
   12MOL   C109 3431   5.861   6.567   7.992 -0.5202 -0.5090  0.4555
   12MOL   C110 3432   5.980   6.514   7.939 -0.0675  0.3032 -0.1689
   12MOL   C111 3433   6.075   6.597   7.883  0.1246  0.2873 -1.0828
   12MOL   C112 3434   6.048   6.735   7.873 -0.4017 -0.3176  0.5984
   12MOL   C113 3435   5.919   6.777   7.911 -0.1430  0.2688 -0.4866
   12MOL   N114 3436   5.831   6.698   7.971  0.2772 -0.4480  0.0624
   12MOL   H115 3437   5.568   6.388   8.074  1.0894 -3.0892 -2.2876
   12MOL   H116 3438   5.574   6.541   8.001 -0.9304 -0.3731  1.6116
   12MOL   H117 3439   5.817   6.392   8.102  0.1734 -0.2168  0.2611
   12MOL   H118 3440   5.991   6.408   7.956 -1.2805  0.4396  1.7196
   12MOL   H119 3441   6.168   6.547   7.864 -0.7214 -2.2581  1.0577
   12MOL   H120 3442   6.120   6.800   7.826  0.4886 -0.3996  1.8238
   12MOL   H121 3443   5.882   6.878   7.907 -2.1718 -0.4469 -0.9592
   12MOL   C122 3444   5.737   6.563   0.054 -0.0607  0.5565  0.2042
   12MOL   C123 3445   5.680   6.474   0.169 -0.2040  0.7629 -0.4288
   12MOL   C124 3446   5.796   6.416   0.255  0.2964  0.4583 -0.2768
   12MOL   C125 3447   5.809   6.277   0.279  0.1865 -0.4046  0.2693
   12MOL   C126 3448   5.909   6.229   0.358 -0.0539 -0.3239  0.2444
   12MOL   C127 3449   6.002   6.319   0.415  0.3091  0.5412  0.9276
   12MOL   C128 3450   5.982   6.454   0.386 -0.5136 -0.0655  0.8183
   12MOL   N129 3451   5.890   6.499   0.306 -0.1968 -0.4410 -0.0545
   12MOL   H130 3452   5.664   6.641   0.031  1.1370  1.6922  0.2088
   12MOL   H131 3453   5.829   6.609   0.089  0.0140  0.1091  0.6055
   12MOL   H132 3454   5.632   6.386   0.126  1.0785  0.3977 -1.1478
   12MOL   H133 3455   5.748   6.207   0.224  0.5824  0.7624 -1.6888
   12MOL   H134 3456   5.907   6.121   0.364  0.6215 -0.3376  0.2683
   12MOL   H135 3457   6.086   6.273   0.464 -0.9358  0.0864  2.6889
   12MOL   H136 3458   6.057   6.530   0.399 -1.9914  1.9494 -2.0615
   12MOL   C137 3459   5.585   6.552   0.256 -0.4371 -0.4860  0.3731
   12MOL   C138 3460   5.446   6.567   0.207  0.0531 -0.4691 -0.2584
   12MOL   C139 3461   5.397   6.437   0.142  0.4897  0.2825 -0.9829
   12MOL   C140 3462   5.400   6.327   0.231  0.0069  0.1138  0.8161
   12MOL   C141 3463   5.352   6.203   0.191  0.3071  0.4470  0.1069
   12MOL   C142 3464   5.295   6.199   0.061  0.2021  0.1865 -0.2690
   12MOL   C143 3465   5.282   6.323   8.143  0.7784 -0.1272  0.5071
   12MOL   N144 3466   5.333   6.442   0.026  1.1859 -0.4408  0.4512
   12MOL   H145 3467   5.628   6.651   0.272 -3.2053  1.2780 -2.5549
   12MOL   H146 3468   5.579   6.503   0.353 -0.2985 -2.0155 -0.3684
   12MOL   H147 3469   5.447   6.642   0.128  0.0462 -0.0138  0.1682
   12MOL   H148 3470   5.455   6.344   0.323 -0.3808  1.6691  0.7766
   12MOL   H149 3471   5.372   6.115   0.250 -0.0542 -0.7841 -1.5812
   12MOL   H150 3472   5.263   6.102   0.026 -1.5219 -0.8503  3.9376
   12MOL   H151 3473   5.233   6.323   8.046 -0.3294 -0.1258  1.0519
   12MOL   C152 3474   5.355   6.619   0.317  1.1124  0.2851 -0.2661
   12MOL   C153 3475   5.387   6.757   0.374  0.2656 -0.2298  0.1973
   12MOL   C154 3476   5.339   6.855   0.269  0.2144 -0.2500  0.6026
   12MOL   C155 3477   5.431   6.932   0.196 -0.1582  0.4470  0.1588
   12MOL   C156 3478   5.384   7.007   0.090 -0.2084  0.1929  0.3506
   12MOL   C157 3479   5.247   7.023   0.069  0.4451 -0.1093 -0.1169
   12MOL   C158 3480   5.157   6.950   0.152  0.4059 -0.8623  0.2030
   12MOL   N159 3481   5.208   6.856   0.232 -0.4046 -0.0041 -0.3700
   12MOL   H160 3482   5.356   6.547   0.399 -0.2998  1.0520  0.4230
   12MOL   H161 3483   5.253   6.612   0.281  0.8802 -1.0805  0.6235
   12MOL   H162 3484   5.493   6.780   0.388  0.4496  0.0765 -1.5388
   12MOL   H163 3485   5.535   6.932   0.221  0.2461  0.5788 -1.4394
   12MOL   H164 3486   5.460   7.059   0.034 -0.3691  0.0910  0.0389
   12MOL   H165 3487   5.202   7.080   8.140  1.3840  2.0210  0.8376
   12MOL   H166 3488   5.051   6.950   0.129  0.5245  0.1093 -0.3697
   12MOL   C167 3489   5.320   6.793   0.505  0.5375 -0.8364  0.4884
   12MOL   C168 3490   5.352   6.702   0.631 -0.1135 -0.7320  0.1878
   12MOL   C169 3491   5.494   6.656   0.642 -0.2595  0.0221 -0.3382
   12MOL   C170 3492   5.529   6.521   0.648 -0.2821  0.1521 -0.3288
   12MOL   C171 3493   5.668   6.490   0.645 -0.2618  0.1029 -0.9469
   12MOL   C172 3494   5.766   6.587   0.636 -0.2595 -0.0839  0.1897
   12MOL   C173 3495   5.719   6.721   0.648 -0.2266  0.0156 -0.8988
   12MOL   N174 3496   5.587   6.754   0.655 -0.4534  0.4018  1.1071
   12MOL   H175 3497   5.211   6.793   0.509  0.5413  1.3321  1.4128
   12MOL   H176 3498   5.345   6.894   0.540  1.5821 -1.2627  0.9725
   12MOL   H177 3499   5.294   6.612   0.613 -3.1361  0.9471  1.0860
   12MOL   H178 3500   5.455   6.442   0.643 -0.6474  0.1737  3.3054
   12MOL   H179 3501   5.700   6.387   0.641  1.2851  0.6248 -2.8004
   12MOL   H180 3502   5.872   6.570   0.639 -0.3129 -0.7830 -1.2934
   12MOL   H181 3503   5.777   6.806   0.681 -0.5167 -0.0977 -0.0911
   12MOL   C182 3504   5.316   6.761   0.769 -0.7660 -0.2413 -0.4272
   12MOL   C183 3505   5.186   6.717   0.838  0.3407 -0.2489 -0.0800
   12MOL   C184 3506   5.059   6.718   0.749  0.4364  0.2762  0.1694
   12MOL   C185 3507   4.952   6.809   0.773  0.0983  0.6121  0.7670
   12MOL   C186 3508   4.833   6.791   0.701  0.6035 -0.1168  0.8305
   12MOL   C187 3509   4.825   6.700   0.597  0.5371 -0.5334  0.2987
   12MOL   C188 3510   4.942   6.623   0.572 -0.1438  0.3790  0.4904
   12MOL   N189 3511   5.051   6.627   0.650  0.1054  0.2930 -0.1125
   12MOL   H190 3512   5.292   6.867   0.759 -0.9543 -0.4201 -2.0559
   12MOL   H191 3513   5.396   6.755   0.842  0.6557 -2.0218 -2.0709
   12MOL   H192 3514   5.155   6.788   0.915  0.1071  0.6244 -0.9707
   12MOL   H193 3515   4.959   6.889   0.844 -1.4319  0.7544  0.7707
   12MOL   H194 3516   4.752   6.860   0.718  0.5051 -0.5466  2.1851
   12MOL   H195 3517   4.738   6.708   0.533  2.1638 -1.7859 -2.1354
   12MOL   H196 3518   4.946   6.555   0.489  0.3498  2.2479 -1.0517
   12MOL   C197 3519   5.203   6.578   0.906  0.4931 -0.8193 -0.4463
   12MOL   C198 3520   5.275   6.567   1.035  1.0096  0.4091 -0.1542
   12MOL   C199 3521   5.240   6.677   1.137  0.5162 -0.0837 -0.7101
   12MOL   C200 3522   5.322   6.781   1.157  0.4598 -0.0571  0.0305
   12MOL   C201 3523   5.276   6.896   1.226  0.1970  0.5997  0.2177
   12MOL   C202 3524   5.152   6.882   1.294 -0.5976 -0.0023 -0.9698
   12MOL   C203 3525   5.076   6.765   1.281 -0.0863 -0.2376 -0.8151
   12MOL   N204 3526   5.114   6.679   1.190  0.4264 -0.0269 -0.7531
   12MOL   H205 3527   5.234   6.504   0.832  1.1563 -0.2319 -0.7730
   12MOL   H206 3528   5.100   6.547   0.921  0.6417 -0.4007  1.5058
   12MOL   H207 3529   5.381   6.575   1.010  1.1980  1.2017  0.8609
   12MOL   H208 3530   5.412   6.792   1.098  0.6240  0.4421  0.3612
   12MOL   H209 3531   5.334   6.987   1.222  1.4972 -0.1761  0.9867
   12MOL   H210 3532   5.122   6.968   1.351 -2.1835 -0.7925 -0.5868
   12MOL   H211 3533   4.980   6.758   1.330  0.0903  1.3740 -0.2310
   12MOL   C212 3534   5.248   6.432   1.107 -0.4106 -0.1097 -0.3466
   12MOL   C213 3535   5.334   6.313   1.048  0.5595 -0.2515 -0.0789
   12MOL   C214 3536   5.482   6.321   1.077  0.3420 -0.6232 -0.4650
   12MOL   C215 3537   5.566   6.356   0.972  0.0946 -0.1095 -0.2456
   12MOL   C216 3538   5.700   6.386   1.010 -0.0544  0.0239 -0.1405
   12MOL   C217 3539   5.739   6.388   1.146  0.4089  0.0327  0.0042
   12MOL   C218 3540   5.643   6.356   1.239 -0.0319 -0.8719 -0.4979
   12MOL   N219 3541   5.515   6.320   1.212  0.4597  0.4934  0.4303
   12MOL   H220 3542   5.145   6.401   1.095  0.3654 -3.0886  0.1583
   12MOL   H221 3543   5.264   6.435   1.215  1.0795  0.6146 -0.5755
   12MOL   H222 3544   5.307   6.313   0.942 -1.7186 -0.1295  0.4607
   12MOL   H223 3545   5.528   6.370   0.872  0.2572  0.8009 -0.1899
   12MOL   H224 3546   5.776   6.391   0.933  0.0915 -0.4000 -0.0273
   12MOL   H225 3547   5.841   6.408   1.175  0.5644  0.4213 -0.7834
   12MOL   H226 3548   5.679   6.350   1.340  0.0050 -0.3549 -0.4792
   12MOL   C227 3549   5.265   6.188   1.104  0.2894 -0.1878 -0.0390
   12MOL   C228 3550   5.137   6.117   1.044  0.2905 -0.1365  0.4792
   12MOL   C229 3551   5.122   6.122   0.894  0.2602  0.2038  0.3021
   12MOL   C230 3552   5.017   6.188   0.825 -0.0760  0.3780  0.5536
   12MOL   C231 3553   5.026   6.195   0.681  0.3325  0.0720 -0.2380
   12MOL   C232 3554   5.127   6.123   0.615  0.2406 -0.3450  0.1810
   12MOL   C233 3555   5.212   6.048   0.691  0.2124 -0.2444 -0.4297
   12MOL   N234 3556   5.213   6.050   0.825 -0.2936  0.0715  0.3853
   12MOL   H235 3557   5.256   6.194   1.212  0.4374 -0.7192  0.0067
   12MOL   H236 3558   5.334   6.103   1.100  0.9216  0.3896 -2.7472
   12MOL   H237 3559   5.050   6.174   1.078  0.4679  0.3774  0.0750
   12MOL   H238 3560   4.944   6.240   0.884 -0.3883 -1.7597  2.1268
   12MOL   H239 3561   4.945   6.246   0.631 -1.3449 -1.9908  0.2960
   12MOL   H240 3562   5.146   6.115   0.509 -2.0567 -1.9960 -0.1329
   12MOL   H241 3563   5.287   5.982   0.650 -0.2950 -1.8599  1.2049
   12MOL   C242 3564   5.109   5.973   1.103 -0.5273 -0.3063  0.5305
   12MOL   C243 3565   5.060   5.966   1.253 -0.3775 -0.0215  0.0608
   12MOL   C244 3566   4.909   5.982   1.272 -0.4917 -0.0774 -0.1735
   12MOL   C245 3567   4.847   6.098   1.323  0.0175  0.4579  0.5075
   12MOL   C246 3568   4.711   6.107   1.320 -0.4511 -0.0194  0.2827
   12MOL   C247 3569   4.634   5.998   1.274 -0.6537 -0.7473 -0.0465
   12MOL   C248 3570   4.706   5.880   1.238 -0.0631 -0.2328 -0.1900
   12MOL   N249 3571   4.839   5.868   1.238 -0.1490  0.1372 -0.2361
   12MOL   H250 3572   5.197   5.913   1.077 -1.4880 -0.9188 -1.4658
   12MOL   H251 3573   5.030   5.924   1.046 -1.5237  1.3699  0.4173
   12MOL   H252 3574   5.106   6.048   1.307 -0.4736  0.1066 -0.0513
   12MOL   H253 3575   4.896   6.189   1.357  0.1814  0.8806 -0.8214
   12MOL   H254 3576   4.666   6.200   1.351  0.7966 -0.2600  2.9806
   12MOL   H255 3577   4.527   6.001   1.259 -0.5547  1.7860 -0.4216
   12MOL   H256 3578   4.653   5.790   1.213  0.4695 -0.6119  0.0416
   12MOL   C257 3579   5.122   5.841   1.326 -0.0270  0.1273 -0.0144
   12MOL   C258 3580   5.261   5.849   1.375  0.4550 -0.4621  0.5452
   12MOL   C259 3581   5.300   5.974   1.460  0.1882 -0.1826  0.2553
   12MOL   C260 3582   5.414   6.047   1.431  0.3564  0.5330  0.0552
   12MOL   C261 3583   5.434   6.166   1.510  0.0785 -0.2884 -0.1526
   12MOL   C262 3584   5.337   6.197   1.606 -0.3712 -0.5969  0.4461
   12MOL   C263 3585   5.230   6.105   1.633  0.5006  0.1350 -0.3333
   12MOL   N264 3586   5.221   5.992   1.565  0.3681  0.3723  0.3984
   12MOL   H265 3587   5.113   5.751   1.266 -0.4941 -0.0973  0.3825
   12MOL   H266 3588   5.064   5.818   1.416  0.5202 -1.5986 -0.0914
   12MOL   H267 3589   5.317   5.855   1.282 -2.4250  0.4938 -1.1774
   12MOL   H268 3590   5.488   6.017   1.359 -0.6082  1.7381 -1.4574
   12MOL   H269 3591   5.517   6.232   1.488 -0.7404  0.2942 -1.6311
   12MOL   H270 3592   5.349   6.282   1.671 -1.0183 -0.9951  1.0844
   12MOL   H271 3593   5.159   6.116   1.714  0.8066 -2.8444  0.3819
   12MOL   C272 3594   5.304   5.723   1.458 -0.3175  0.1288 -0.4012
   12MOL   C273 3595   5.443   5.732   1.516  0.2473 -0.4633 -0.0735
   12MOL   C274 3596   5.461   5.631   1.631 -0.5912  0.0939  0.3930
   12MOL   C275 3597   5.482   5.674   1.764 -0.1935  0.0041 -0.1484
   12MOL   C276 3598   5.508   5.572   1.860 -0.0356 -0.0549 -0.5859
   12MOL   C277 3599   5.486   5.440   1.819 -0.2678  0.0615  0.7649
   12MOL   C278 3600   5.456   5.407   1.687 -0.2042  0.5145  1.0120
   12MOL   N279 3601   5.450   5.502   1.594 -0.3358  0.6134  0.1230
   12MOL   H280 3602   5.303   5.634   1.395 -0.2838 -0.3076  0.2143
   12MOL   H281 3603   5.230   5.713   1.538 -0.3271  1.8528 -0.1726
   12MOL   H282 3604   5.466   5.831   1.557  1.0107 -0.0720 -1.4129
   12MOL   H283 3605   5.494   5.777   1.792 -1.3325  0.0161  0.3407
   12MOL   H284 3606   5.530   5.602   1.962  2.7786 -1.4344 -0.7493
   12MOL   H285 3607   5.483   5.364   1.896  1.3672 -1.0816 -0.2616
   12MOL   H286 3608   5.450   5.303   1.661  0.4540  0.5307  0.7646
   12MOL   C287 3609   5.553   5.711   1.404 -0.3030  0.3557  0.6310
   12MOL   C288 3610   5.699   5.732   1.443 -0.5534  0.9193  0.2453
   12MOL   C289 3611   5.723   5.872   1.491  0.5724  0.2911  1.2406
   12MOL   C290 3612   5.731   5.915   1.624 -0.0633  0.0274 -0.0286
   12MOL   C291 3613   5.778   6.045   1.655 -0.8417 -0.3371 -0.3681
   12MOL   C292 3614   5.822   6.123   1.538  0.0077  1.0072  0.0192
   12MOL   C293 3615   5.811   6.073   1.412 -0.7502  0.6106  0.1960
   12MOL   N294 3616   5.767   5.948   1.388 -0.0243  0.1880  0.7677
   12MOL   H295 3617   5.509   5.771   1.324  0.5101  1.2614  0.8476
   12MOL   H296 3618   5.542   5.609   1.367 -1.1536  1.3472 -1.9581
   12MOL   H297 3619   5.771   5.700   1.368 -0.2441 -2.5814  1.8959
   12MOL   H298 3620   5.694   5.851   1.703 -1.4664  1.1875  0.2998
   12MOL   H299 3621   5.796   6.077   1.756  0.6002 -2.0506 -0.0474
   12MOL   H300 3622   5.862   6.222   1.555 -0.1555  1.4818 -2.2982
   12MOL   H301 3623   5.851   6.127   1.327 -1.2538 -1.0822 -1.1514
   12MOL   H302 3624   5.725   5.657   1.519 -1.1319  0.3070 -0.1584
   13MOL     C1 3625   4.628   5.140   2.014  0.2815 -0.4455 -0.0263
   13MOL     C2 3626   4.526   5.022   1.996  0.6464  0.7149  0.2063
   13MOL     C3 3627   4.483   4.964   2.124  1.6592  0.2463 -0.1281
   13MOL     C4 3628   4.525   4.835   2.170  0.3247  0.2526 -0.1731
   13MOL     C5 3629   4.497   4.795   2.301 -0.0972 -0.0009 -0.3472
   13MOL     C6 3630   4.431   4.881   2.386  0.1876 -0.3891 -0.1697
   13MOL     C7 3631   4.395   5.011   2.332  0.2873 -0.1208 -0.1365
   13MOL     N8 3632   4.419   5.053   2.206 -1.2193 -0.0942 -0.3557
   13MOL     H9 3633   4.660   5.186   1.920  0.3162  0.4239  0.4075
   13MOL    H10 3634   4.577   5.215   2.074 -0.0967  0.0200 -0.9196
   13MOL    H11 3635   4.581   4.950   1.935 -1.2171 -0.4489 -0.1458
   13MOL    H12 3636   4.565   4.758   2.106  2.9907  0.0503  1.6185
   13MOL    H13 3637   4.539   4.704   2.340 -4.1440 -1.1978  1.4598
   13MOL    H14 3638   4.406   4.854   2.488  0.0586  1.4204  0.2967
   13MOL    H15 3639   4.326   5.071   2.390  0.1490 -0.3567 -0.0557
   13MOL    H16 3640   4.709   5.084   2.060  0.6049  0.3941  0.4361
   13MOL    C17 3641   4.399   5.060   1.904  0.6517  0.1538  0.2614
   13MOL    C18 3642   4.422   5.094   1.759  0.3419 -0.1086  0.1253
   13MOL    C19 3643   4.504   4.983   1.684 -0.4204  0.0880  0.9990
   13MOL    C20 3644   4.635   5.007   1.646 -0.3750 -0.5966  0.5982
   13MOL    C21 3645   4.704   4.900   1.591 -0.8598  0.2028  0.4718
   13MOL    C22 3646   4.638   4.777   1.568  0.5714  0.3601 -0.2865
   13MOL    C23 3647   4.507   4.764   1.607 -0.1298  0.0990 -0.2678
   13MOL    N24 3648   4.443   4.867   1.665 -0.6219 -0.2236 -0.1553
   13MOL    H25 3649   4.329   5.120   1.963 -1.1999 -0.5940 -1.1336
   13MOL    H26 3650   4.350   4.963   1.906 -0.2899  0.6290  1.8499
   13MOL    H27 3651   4.483   5.184   1.755 -0.9652  0.9182  2.6749
   13MOL    H28 3652   4.669   5.108   1.660  0.2081 -0.3556 -2.3184
   13MOL    H29 3653   4.807   4.915   1.564 -0.1301 -1.2138  2.3271
   13MOL    H30 3654   4.680   4.689   1.521  1.9401  0.8496 -0.0162
   13MOL    H31 3655   4.448   4.677   1.583 -0.2470 -0.2446  1.2048
   13MOL    C32 3656   4.286   5.143   1.676 -0.6026 -0.0699 -0.2955
   13MOL    C33 3657   4.201   5.260   1.716  0.8319  0.1662  0.3686
   13MOL    C34 3658   4.271   5.358   1.809 -0.2334  0.3162 -0.2359
   13MOL    C35 3659   4.231   5.380   1.941  0.1414  0.3012 -0.7995
   13MOL    C36 3660   4.320   5.449   2.028  0.4481 -0.1301 -0.0226
   13MOL    C37 3661   4.427   5.512   1.973 -0.0803 -0.4683  0.8697
   13MOL    C38 3662   4.453   5.506   1.835  0.1218 -0.2855 -0.0497
   13MOL    N39 3663   4.380   5.426   1.760  0.4049 -0.2686  0.5658
   13MOL    H40 3664   4.223   5.055   1.661 -0.4597 -0.6564  2.3230
   13MOL    H41 3665   4.329   5.176   1.581 -2.2880  1.4886 -0.5465
   13MOL    H42 3666   4.128   5.217   1.784  0.3413 -2.1638 -1.5697
   13MOL    H43 3667   4.136   5.346   1.977  1.8491 -2.3457  1.4037
   13MOL    H44 3668   4.299   5.448   2.134  2.0024 -1.9621  0.3026
   13MOL    H45 3669   4.488   5.579   2.031 -1.0855  1.8241 -0.6486
   13MOL    H46 3670   4.530   5.563   1.785 -0.2853  0.5755  0.2901
   13MOL    C47 3671   4.120   5.340   1.607 -0.5210 -0.5463 -0.0327
   13MOL    C48 3672   3.982   5.405   1.644 -0.6592  0.0134 -0.0453
   13MOL    C49 3673   3.875   5.299   1.667 -0.0681 -0.3042 -0.1388
   13MOL    C50 3674   3.769   5.293   1.579 -0.1737 -0.1799  0.3042
   13MOL    C51 3675   3.673   5.190   1.606  0.0951 -0.2044 -0.1290
   13MOL    C52 3676   3.684   5.122   1.728 -0.2340  0.3988 -0.1273
   13MOL    C53 3677   3.797   5.140   1.810 -0.7174  0.1001  0.0965
   13MOL    N54 3678   3.885   5.235   1.784 -0.0409  0.6896 -0.1902
   13MOL    H55 3679   4.102   5.280   1.518  1.7477  0.0989 -0.9398
   13MOL    H56 3680   4.186   5.417   1.568  1.7384 -1.2979  2.2129
   13MOL    H57 3681   3.946   5.454   1.553 -1.3756 -2.4625 -1.1329
   13MOL    H58 3682   3.760   5.354   1.491  2.0360  2.5080  1.8536
   13MOL    H59 3683   3.589   5.166   1.543  0.9059 -0.2152 -1.2056
   13MOL    H60 3684   3.607   5.053   1.757 -0.4095 -0.1532 -1.8287
   13MOL    H61 3685   3.805   5.089   1.904 -0.3956  1.4992  0.8376
   13MOL    C62 3686   3.977   5.507   1.755  0.0926 -0.0827 -0.0139
   13MOL    C63 3687   4.078   5.624   1.735 -0.6468 -0.0605 -0.3787
   13MOL    C64 3688   4.054   5.706   1.606  0.0828 -0.4936  0.2227
   13MOL    C65 3689   3.947   5.793   1.597  0.5149  0.0065 -0.6146
   13MOL    C66 3690   3.932   5.862   1.474 -0.2472  0.7078  0.5293
   13MOL    C67 3691   4.007   5.825   1.362  0.1265  0.1851  0.0743
   13MOL    C68 3692   4.103   5.731   1.381 -0.1775  0.2028  0.7190
   13MOL    N69 3693   4.127   5.671   1.503 -0.1775  0.1073 -0.1149
   13MOL    H70 3694   3.982   5.462   1.855  0.2541 -2.1376 -0.9292
   13MOL    H71 3695   3.872   5.536   1.759 -0.1361 -0.4312 -2.7218
   13MOL    H72 3696   4.170   5.568   1.717 -0.5981 -0.1386  0.1226
   13MOL    H73 3697   3.889   5.831   1.679  1.3678  0.8116 -0.3878
   13MOL    H74 3698   3.861   5.940   1.454 -1.3735 -0.3196  0.4211
   13MOL    H75 3699   3.995   5.874   1.267  1.2186 -1.9567 -1.2168
   13MOL    H76 3700   4.167   5.707   1.298 -2.2840  0.5677 -1.0580
   13MOL    C77 3701   4.092   5.692   1.863  0.5396  0.5668 -0.2211
   13MOL    C78 3702   4.165   5.827   1.858  0.1074  0.1439 -0.0606
   13MOL    C79 3703   4.170   5.891   1.998  0.9172 -0.1111 -0.5510
   13MOL    C80 3704   4.255   5.836   2.089 -0.2022 -0.0676 -0.0002
   13MOL    C81 3705   4.259   5.891   2.223 -0.2010  0.2519  0.5776
   13MOL    C82 3706   4.165   5.988   2.251  0.2704 -1.2021  0.7005
   13MOL    C83 3707   4.067   6.027   2.153  1.0029 -0.1286  0.1029
   13MOL    N84 3708   4.071   5.981   2.028 -0.2987 -0.1268 -0.3520
   13MOL    H85 3709   4.145   5.627   1.932  0.9149  0.4049 -0.6650
   13MOL    H86 3710   3.992   5.704   1.906 -1.8907 -3.6781 -4.2321
   13MOL    H87 3711   4.113   5.898   1.794  0.9781 -1.1341 -2.2055
   13MOL    H88 3712   4.326   5.758   2.067  0.4353  0.3478  0.5723
   13MOL    H89 3713   4.330   5.855   2.296 -0.1216 -1.5916 -0.3844
   13MOL    H90 3714   4.157   6.029   2.351  1.7204  2.7240 -0.6917
   13MOL    H91 3715   3.988   6.094   2.184  0.9139  0.0998 -0.6016
   13MOL    C92 3716   4.311   5.819   1.787 -0.3587  0.0155  0.5175
   13MOL    C93 3717   4.373   5.948   1.724 -0.4307 -0.4202  0.0511
   13MOL    C94 3718   4.519   5.922   1.689  1.0240  0.5771 -0.2352
   13MOL    C95 3719   4.558   5.808   1.615 -0.0101 -0.4111 -0.4317
   13MOL    C96 3720   4.696   5.792   1.597  1.3850  0.0401  0.0647
   13MOL    C97 3721   4.786   5.888   1.638 -0.3567 -0.3978 -0.4070
   13MOL    C98 3722   4.739   6.003   1.698  0.4969 -0.0977 -0.2256
   13MOL    N99 3723   4.610   6.017   1.727 -0.8601  0.3676  0.5409
   13MOL   H100 3724   4.319   5.740   1.713  0.5142  1.0052 -0.4703
   13MOL   H101 3725   4.386   5.788   1.859  0.2014 -0.6564 -0.3416
   13MOL   H102 3726   4.372   6.025   1.802  0.2272 -0.5271  0.1692
   13MOL   H103 3727   4.487   5.734   1.580 -0.6292  0.5029 -1.1373
   13MOL   H104 3728   4.733   5.707   1.542  1.1789  0.1104 -0.1855
   13MOL   H105 3729   4.892   5.877   1.618 -0.2643 -1.3142  0.5548
   13MOL   H106 3730   4.803   6.085   1.727 -0.1044  0.3246 -0.0930
   13MOL   C107 3731   4.293   6.004   1.598  0.0859 -0.0517 -0.3074
   13MOL   C108 3732   4.341   6.136   1.533  0.7060 -0.0908 -0.4046
   13MOL   C109 3733   4.293   6.161   1.393 -0.1494 -0.2483  0.1279
   13MOL   C110 3734   4.160   6.123   1.352 -0.1671  0.0827  0.7089
   13MOL   C111 3735   4.113   6.152   1.227 -0.3588 -0.0820 -0.0393
   13MOL   C112 3736   4.200   6.218   1.137  0.3398  0.2555 -0.1356
   13MOL   C113 3737   4.330   6.253   1.181 -0.8759  0.7496  0.1742
   13MOL   N114 3738   4.378   6.222   1.309 -0.1386  0.3130  0.2094
   13MOL   H115 3739   4.187   6.014   1.623 -0.1496 -3.2648  0.1750
   13MOL   H116 3740   4.289   5.939   1.511  1.0509 -0.4973 -0.0207
   13MOL   H117 3741   4.450   6.138   1.533  0.7448 -1.4586 -1.0214
   13MOL   H118 3742   4.097   6.073   1.425 -0.0778 -1.1233 -0.0340
   13MOL   H119 3743   4.014   6.119   1.197 -0.4617  0.9815 -0.8831
   13MOL   H120 3744   4.172   6.246   1.037  2.0471  1.4758 -0.2855
   13MOL   H121 3745   4.392   6.318   1.122  0.9654  0.5008  1.7966
   13MOL   C122 3746   4.295   6.261   1.611 -0.1385 -0.0435  0.7418
   13MOL   C123 3747   4.356   6.403   1.564  0.2966 -0.3460 -0.4652
   13MOL   C124 3748   4.298   6.516   1.644  0.1040  0.1633 -0.2290
   13MOL   C125 3749   4.195   6.602   1.594  0.6764 -0.0724  0.4791
   13MOL   C126 3750   4.137   6.696   1.683 -0.6063  0.4119 -0.1831
   13MOL   C127 3751   4.187   6.708   1.810 -0.5629 -0.1037  0.4028
   13MOL   C128 3752   4.298   6.621   1.853 -0.0340 -0.1557 -1.0526
   13MOL   N129 3753   4.352   6.524   1.769 -0.4921 -0.8496  0.1016
   13MOL   H130 3754   4.315   6.239   1.716  0.5766 -2.7109  0.0855
   13MOL   H131 3755   4.187   6.274   1.609 -0.4896 -2.7459 -1.4030
   13MOL   H132 3756   4.326   6.431   1.463  2.2147  1.9466 -0.4479
   13MOL   H133 3757   4.161   6.598   1.492 -1.3899 -0.4890  1.1377
   13MOL   H134 3758   4.050   6.753   1.652 -1.4119 -1.4143 -1.3727
   13MOL   H135 3759   4.147   6.787   1.872  1.5701  0.8459  0.5926
   13MOL   H136 3760   4.354   6.639   1.944 -0.3201 -0.8842 -0.7293
   13MOL   C137 3761   4.511   6.407   1.561  0.8414 -0.1882 -0.4423
   13MOL   C138 3762   4.578   6.540   1.550 -0.4699 -0.1517 -0.6006
   13MOL   C139 3763   4.725   6.535   1.568 -0.4022  0.9205 -0.3690
   13MOL   C140 3764   4.781   6.589   1.682  0.3480 -0.7750  0.5197
   13MOL   C141 3765   4.919   6.597   1.682 -0.6257  0.2865 -0.0537
   13MOL   C142 3766   4.998   6.531   1.584  0.1149 -0.1326  0.4319
   13MOL   C143 3767   4.929   6.467   1.484 -0.1204 -0.3224  0.1319
   13MOL   N144 3768   4.797   6.470   1.471 -0.0504  0.4891 -0.1221
   13MOL   H145 3769   4.544   6.346   1.477 -1.1297  0.1260 -1.4659
   13MOL   H146 3770   4.562   6.374   1.652 -0.9025 -1.7581  0.0136
   13MOL   H147 3771   4.552   6.598   1.638 -1.6246  0.4247 -1.3111
   13MOL   H148 3772   4.729   6.646   1.758 -0.1896 -1.4678  0.6766
   13MOL   H149 3773   4.972   6.644   1.763  1.0569  1.3425 -1.7196
   13MOL   H150 3774   5.106   6.533   1.587  0.1697 -1.9205  0.0508
   13MOL   H151 3775   4.977   6.417   1.402 -0.9785 -0.3539 -0.3526
   13MOL   C152 3776   4.526   6.625   1.430  0.1228  1.1717  0.0101
   13MOL   C153 3777   4.554   6.777   1.441  0.2205  0.5611 -0.2311
   13MOL   C154 3778   4.604   6.838   1.311  0.3968  0.4083 -0.2902
   13MOL   C155 3779   4.526   6.832   1.192  0.2326 -0.9068 -0.2874
   13MOL   C156 3780   4.585   6.879   1.072  0.5796  0.1133  0.6441
   13MOL   C157 3781   4.719   6.926   1.072  0.1967  0.2994  0.2813
   13MOL   C158 3782   4.789   6.932   1.192  0.3236  0.2376 -0.1192
   13MOL   N159 3783   4.734   6.879   1.307  0.3251  0.1153  0.0440
   13MOL   H160 3784   4.421   6.615   1.403  0.3306 -2.4943  0.2902
   13MOL   H161 3785   4.580   6.591   1.341 -1.7569 -0.1528 -0.6669
   13MOL   H162 3786   4.639   6.798   1.506 -0.5002 -1.0233  1.2849
   13MOL   H163 3787   4.421   6.807   1.193 -0.2569  1.0416 -0.3840
   13MOL   H164 3788   4.522   6.874   0.984 -1.9644 -2.4137  2.4931
   13MOL   H165 3789   4.764   6.969   0.984 -0.7746 -1.5284 -1.1229
   13MOL   H166 3790   4.883   6.985   1.202  0.7216 -0.0652 -2.0350
   13MOL   C167 3791   4.433   6.862   1.495 -0.2941  0.6338 -0.3618
   13MOL   C168 3792   4.463   7.009   1.529 -1.1299  0.5269  0.5854
   13MOL   C169 3793   4.339   7.093   1.527  0.3796  0.1554 -0.1034
   13MOL   C170 3794   4.335   7.216   1.455 -0.6619  0.0202 -0.1586
   13MOL   C171 3795   4.215   7.278   1.438 -0.5393 -0.6217 -0.3134
   13MOL   C172 3796   4.096   7.220   1.481 -0.2879 -0.5045 -0.4884
   13MOL   C173 3797   4.109   7.100   1.553 -0.0770  0.4864 -0.5723
   13MOL   N174 3798   4.226   7.036   1.575  0.5114  0.3696 -0.4051
   13MOL   H175 3799   4.394   6.811   1.583  0.3879  0.1230 -0.3493
   13MOL   H176 3800   4.359   6.873   1.415 -0.6048  3.3090  0.2541
   13MOL   H177 3801   4.528   7.043   1.449 -2.4536 -0.1965 -0.8346
   13MOL   H178 3802   4.428   7.265   1.427 -0.2162  0.0310  1.3106
   13MOL   H179 3803   4.216   7.373   1.386  0.8972 -0.6510 -0.3803
   13MOL   H180 3804   4.003   7.273   1.466  0.4030  0.8753  0.0535
   13MOL   H181 3805   4.020   7.052   1.592 -1.2619  1.8458 -1.5277
   13MOL   C182 3806   4.540   7.024   1.658 -0.3235  0.0112  0.2698
   13MOL   C183 3807   4.616   7.162   1.655 -0.4680  0.3045 -0.2171
   13MOL   C184 3808   4.634   7.218   1.800  0.0302 -0.5508 -1.0990
   13MOL   C185 3809   4.610   7.349   1.846 -0.5322 -0.3911  0.0810
   13MOL   C186 3810   4.638   7.397   1.972  0.2597  0.2401 -0.5357
   13MOL   C187 3811   4.672   7.297   2.062 -0.3590  0.1234  0.1938
   13MOL   C188 3812   4.685   7.162   2.020 -0.2239  0.0666  0.0990
   13MOL   N189 3813   4.681   7.129   1.891  0.5492  0.4784 -0.0269
   13MOL   H190 3814   4.616   6.947   1.667 -0.3779  0.2527  3.0708
   13MOL   H191 3815   4.478   7.022   1.747  0.5275 -0.6127  0.8558
   13MOL   H192 3816   4.560   7.239   1.602  0.3203  0.5151 -0.7533
   13MOL   H193 3817   4.581   7.429   1.779  2.6787 -0.2172 -1.2315
   13MOL   H194 3818   4.631   7.502   1.994  0.8038  0.4875 -1.4917
   13MOL   H195 3819   4.671   7.316   2.168 -3.9361  0.1213  0.2270
   13MOL   H196 3820   4.702   7.080   2.088 -1.1322  0.5930  0.9808
   13MOL   C197 3821   4.752   7.152   1.579 -1.6644  0.7429 -0.4858
   13MOL   C198 3822   4.800   7.280   1.509 -0.3378 -0.6147  0.1247
   13MOL   C199 3823   4.831   7.399   1.608 -0.0641  0.0606  0.5312
   13MOL   C200 3824   4.935   7.391   1.705  0.7981 -0.0651  0.8465
   13MOL   C201 3825   4.974   7.507   1.773  0.2363  0.3640 -0.1609
   13MOL   C202 3826   4.905   7.626   1.750  0.3935  0.1438  0.3428
   13MOL   C203 3827   4.795   7.617   1.663 -0.4486  0.3003  0.4635
   13MOL   N204 3828   4.756   7.512   1.591 -0.1928  0.2709 -0.2944
   13MOL   H205 3829   4.745   7.078   1.500 -0.9085  0.1832 -0.0250
   13MOL   H206 3830   4.836   7.112   1.635 -1.5972 -0.2521 -1.2806
   13MOL   H207 3831   4.716   7.315   1.449  0.2856  0.0243 -0.3734
   13MOL   H208 3832   4.993   7.301   1.717  2.1121  0.7993  1.0327
   13MOL   H209 3833   5.054   7.486   1.842  0.6107  1.2889 -0.3061
   13MOL   H210 3834   4.929   7.712   1.810  2.9104 -0.9921  1.0303
   13MOL   H211 3835   4.733   7.705   1.651  2.4740  2.3738  0.2151
   13MOL   C212 3836   4.909   7.257   1.406 -0.1351  0.2871  0.1973
   13MOL   C213 3837   4.961   7.387   1.334  0.0442  0.4800 -0.6712
   13MOL   C214 3838   5.082   7.351   1.244  0.3434 -0.6634 -0.0859
   13MOL   C215 3839   5.197   7.421   1.258 -0.3980 -0.8355  0.2783
   13MOL   C216 3840   5.302   7.403   1.167 -0.1894 -0.3280 -0.5627
   13MOL   C217 3841   5.286   7.293   1.080 -0.4276  0.3804  0.1154
   13MOL   C218 3842   5.166   7.224   1.074 -0.1516  0.2131  0.2813
   13MOL   N219 3843   5.062   7.255   1.151 -0.1533 -0.1011 -0.2018
   13MOL   H220 3844   4.875   7.182   1.334 -1.1800  1.0087 -0.0672
   13MOL   H221 3845   5.004   7.220   1.446 -0.2237 -0.2418 -0.0806
   13MOL   H222 3846   4.986   7.462   1.410 -1.5011  0.2766  0.0435
   13MOL   H223 3847   5.202   7.494   1.337 -0.3052 -0.3005 -0.2174
   13MOL   H224 3848   5.399   7.451   1.167  0.5807 -1.7555  1.8461
   13MOL   H225 3849   5.371   7.263   1.020 -1.0209  2.7209 -1.9909
   13MOL   H226 3850   5.154   7.134   1.017 -1.7801  0.8409 -0.3761
   13MOL   C227 3851   4.856   7.446   1.242  0.1713 -0.3150  0.3423
   13MOL   C228 3852   4.879   7.599   1.205  0.2252  0.5229  0.5524
   13MOL   C229 3853   4.766   7.657   1.115  0.4803 -0.4883  0.4831
   13MOL   C230 3854   4.798   7.723   0.992  0.3212  0.1346 -0.0317
   13MOL   C231 3855   4.685   7.774   0.921  0.1193  0.0000  0.2571
   13MOL   C232 3856   4.560   7.759   0.972 -0.3048  0.9184 -0.0438
   13MOL   C233 3857   4.536   7.691   1.092  0.0248 -0.0970  0.0467
   13MOL   N234 3858   4.643   7.645   1.164 -0.1462 -0.7633  0.1386
   13MOL   H235 3859   4.767   7.445   1.305 -0.5942  0.5914 -0.7071
   13MOL   H236 3860   4.831   7.385   1.155 -0.0098 -1.6398  1.2989
   13MOL   H237 3861   4.969   7.591   1.144 -0.3322  0.3605 -0.2605
   13MOL   H238 3862   4.898   7.719   0.952 -0.2579 -0.4170 -1.4783
   13MOL   H239 3863   4.697   7.815   0.822 -2.0237 -1.9665 -0.8696
   13MOL   H240 3864   4.473   7.788   0.915  0.1349  0.7046 -0.8384
   13MOL   H241 3865   4.433   7.686   1.124  0.0672 -0.8593  0.0559
   13MOL   C242 3866   4.903   7.702   1.323 -0.3942 -0.0970  0.2395
   13MOL   C243 3867   4.914   7.855   1.277  0.2305 -0.4461  0.2981
   13MOL   C244 3868   4.861   7.950   1.375  0.0148  0.0175 -0.0816
   13MOL   C245 3869   4.761   8.041   1.336 -0.1900  0.0358  0.6125
   13MOL   C246 3870   4.718   8.136   1.428 -0.3048  0.3432  0.1623
   13MOL   C247 3871   4.762   8.137   1.558  0.4724 -0.3475 -0.2484
   13MOL   C248 3872   4.853   8.033   1.588 -0.2236  1.4541  0.0430
   13MOL   N249 3873   4.911   7.951   1.499 -0.5082  0.3953  0.5998
   13MOL   H250 3874   4.996   7.677   1.373  0.1704  1.0145 -0.2303
   13MOL   H251 3875   4.828   7.685   1.400  0.7381  2.0671  1.8913
   13MOL   H252 3876   4.844   7.876   1.196  1.0938  2.4993  0.2538
   13MOL   H253 3877   4.710   8.032   1.241 -0.0319  3.6380  0.1120
   13MOL   H254 3878   4.649   0.061   1.398 -1.4877 -0.6060  0.4081
   13MOL   H255 3879   4.738   0.066   1.626  2.4131  1.6634 -1.8609
   13MOL   H256 3880   4.904   8.037   1.683  2.6076 -0.3757 -1.3316
   13MOL   C257 3881   5.056   7.892   1.228  0.0450  0.3573  0.1902
   13MOL   C258 3882   5.071   8.027   1.152  0.3672 -0.5354 -0.0749
   13MOL   C259 3883   5.218   8.068   1.134 -0.1838 -0.3908 -0.6893
   13MOL   C260 3884   5.271   0.034   1.193 -0.0650  0.3789 -0.1171
   13MOL   C261 3885   5.403   0.069   1.170  0.5221  0.3600  0.1905
   13MOL   C262 3886   5.479   8.125   1.100  0.3408  0.2427  0.1240
   13MOL   C263 3887   5.423   8.007   1.046  0.4019 -0.3847  0.5054
   13MOL   N264 3888   5.296   7.982   1.062  0.4245  0.2188 -0.0278
   13MOL   H265 3889   5.087   7.815   1.158  1.4505  2.2863 -1.3627
   13MOL   H266 3890   5.124   7.897   1.313  0.8187  0.1862 -0.4215
   13MOL   H267 3891   5.039   8.102   1.223  1.4245  1.7504 -1.9451
   13MOL   H268 3892   5.211   0.109   1.242 -2.1613 -0.6363 -1.0568
   13MOL   H269 3893   5.448   0.152   1.224 -0.0432 -0.8001  2.5294
   13MOL   H270 3894   5.584   8.146   1.089  0.4734 -0.4962 -0.0479
   13MOL   H271 3895   5.487   7.941   0.989 -1.0702 -0.1784 -1.4601
   13MOL   C272 3896   4.998   8.040   1.015 -0.3026 -0.3995 -0.4470
   13MOL   C273 3897   4.962   0.038   0.971  0.3775  0.5727  0.1626
   13MOL   C274 3898   4.876   0.023   0.841 -0.0963 -0.5936  0.0143
   13MOL   C275 3899   4.935   0.045   0.719 -0.9942  0.4873 -0.6319
   13MOL   C276 3900   4.869   0.019   0.603 -0.1214  0.0468  0.2163
   13MOL   C277 3901   4.748   8.107   0.612  0.3756  0.1850 -0.6975
   13MOL   C278 3902   4.690   8.085   0.738  0.0909  0.8093 -0.3898
   13MOL   N279 3903   4.752   8.124   0.847 -0.5989 -0.1171 -0.1829
   13MOL   H280 3904   4.912   7.975   1.010 -1.0648  0.4973  0.7787
   13MOL   H281 3905   5.072   8.006   0.943  1.0649  1.7336 -0.0997
   13MOL   H282 3906   5.058   0.079   0.940  0.2708  0.7224  0.0335
   13MOL   H283 3907   5.033   0.091   0.715 -0.7484  0.0711  0.2457
   13MOL   H284 3908   4.911   0.044   0.507  1.2641 -2.3772  0.1523
   13MOL   H285 3909   4.684   8.095   0.526 -0.5655 -0.6533  0.1150
   13MOL   H286 3910   4.590   8.045   0.734  0.4419 -0.0159 -1.5339
   13MOL   C287 3911   4.889   0.118   1.081  0.6595 -0.3637 -0.2248
   13MOL   C288 3912   4.841   0.264   1.051  0.0475  0.5589  0.0301
   13MOL   C289 3913   4.787   0.329   1.181  0.3860  0.1433 -0.1486
   13MOL   C290 3914   4.654   0.371   1.200 -0.0460 -0.4499 -0.1442
   13MOL   C291 3915   4.622   0.408   1.330  0.5335 -0.1187  0.4297
   13MOL   C292 3916   4.720   0.418   1.430 -0.1992 -0.3626 -0.4514
   13MOL   C293 3917   4.854   0.377   1.397  0.0869  0.1569  0.6409
   13MOL   N294 3918   4.882   0.336   1.275 -0.0805  0.0461  0.1909
   13MOL   H295 3919   4.962   0.127   1.162  2.3283 -0.4108 -1.7071
   13MOL   H296 3920   4.802   0.057   1.107 -0.7676  0.9078 -1.9029
   13MOL   H297 3921   4.761   0.263   0.978 -1.2974 -0.2963  1.4696
   13MOL   H298 3922   4.583   0.363   1.120 -1.1569  0.7411  0.7202
   13MOL   H299 3923   4.519   0.434   1.351  0.2381 -0.0876 -1.0326
   13MOL   H300 3924   4.696   0.450   1.530 -2.4467 -0.5593 -0.9120
   13MOL   H301 3925   4.936   0.377   1.467 -1.2034 -1.3303  2.1755
   13MOL   H302 3926   4.923   0.323   1.011  1.9351 -2.6389 -1.0158
   14MOL     C1 3927   3.362   4.900   5.001 -0.2026  0.3429  0.0340
   14MOL     C2 3928   3.383   5.022   5.089 -0.4509  0.3491  0.2699
   14MOL     C3 3929   3.265   5.052   5.182 -0.0764 -0.0789  0.5893
   14MOL     C4 3930   3.181   4.954   5.235 -0.5789 -0.0912  0.3589
   14MOL     C5 3931   3.068   4.982   5.310  0.0325 -0.1545  0.0498
   14MOL     C6 3932   3.040   5.121   5.329  0.4266  0.5760  0.4831
   14MOL     C7 3933   3.128   5.216   5.271 -0.3102 -0.2531 -0.2307
   14MOL     N8 3934   3.234   5.180   5.198  0.7928 -0.2426  0.0808
   14MOL     H9 3935   3.347   4.815   5.068  0.2978  1.6945  1.8899
   14MOL    H10 3936   3.272   4.906   4.939  0.7499  0.2874 -1.3821
   14MOL    H11 3937   3.373   5.095   5.008  0.3445  0.0518 -0.0942
   14MOL    H12 3938   3.195   4.848   5.219 -0.4146  0.1654 -1.2626
   14MOL    H13 3939   3.008   4.905   5.357  1.5484 -0.4831  1.5085
   14MOL    H14 3940   2.961   5.144   5.398  0.4001  0.4356  0.4996
   14MOL    H15 3941   3.106   5.320   5.294 -1.2434 -0.0483 -2.0142
   14MOL    H16 3942   3.443   4.881   4.931 -0.0376  1.6258 -0.1265
   14MOL    C17 3943   3.523   5.018   5.162  0.4196  1.2477 -0.3939
   14MOL    C18 3944   3.625   5.121   5.122 -0.4138 -0.3035  0.4226
   14MOL    C19 3945   3.738   5.120   5.227 -0.6284 -0.3069  0.0146
   14MOL    C20 3946   3.733   5.210   5.333  0.2559 -0.0840 -0.7241
   14MOL    C21 3947   3.819   5.191   5.444  0.3688  0.1546  0.3060
   14MOL    C22 3948   3.923   5.097   5.437 -0.4728  0.0706 -0.4670
   14MOL    C23 3949   3.923   5.016   5.319 -0.3124 -0.1074  0.7622
   14MOL    N24 3950   3.831   5.024   5.217 -0.1154  0.4258  0.2931
   14MOL    H25 3951   3.582   4.927   5.149 -2.2607 -0.7898  1.1432
   14MOL    H26 3952   3.502   5.027   5.269  2.1941 -1.3980  0.2282
   14MOL    H27 3953   3.580   5.220   5.121  2.3361  1.0256  1.5139
   14MOL    H28 3954   3.648   5.277   5.328  0.9265  0.6541 -2.6023
   14MOL    H29 3955   3.805   5.242   5.539  0.0445  1.4801 -0.4506
   14MOL    H30 3956   3.996   5.087   5.516 -1.2279 -1.5051  0.0574
   14MOL    H31 3957   4.000   4.946   5.288  0.0341 -0.0050  1.3725
   14MOL    C32 3958   3.681   5.098   4.988 -0.0033  1.0781  0.9934
   14MOL    C33 3959   3.742   5.214   4.908 -0.7564  0.6484  0.0475
   14MOL    C34 3960   3.861   5.163   4.826 -0.5380  0.3580 -0.0990
   14MOL    C35 3961   3.989   5.203   4.854  0.1385 -0.6753  1.1121
   14MOL    C36 3962   4.095   5.160   4.770  0.0841 -0.0457  0.4132
   14MOL    C37 3963   4.070   5.072   4.660  0.1280 -0.1749 -0.3808
   14MOL    C38 3964   3.931   5.033   4.647  0.2547  0.4816 -0.4331
   14MOL    N39 3965   3.831   5.077   4.726 -0.1356  0.8532  0.7082
   14MOL    H40 3966   3.603   5.061   4.922  1.9565 -0.3221 -0.5703
   14MOL    H41 3967   3.746   5.011   4.987 -0.7626  0.4563 -3.4653
   14MOL    H42 3968   3.783   5.279   4.986 -1.1978  2.9383 -1.5787
   14MOL    H43 3969   4.013   5.262   4.940  0.9291 -0.3091  0.6450
   14MOL    H44 3970   4.199   5.184   4.789  0.1598 -0.3870  0.4251
   14MOL    H45 3971   4.147   5.034   4.595  1.1674  1.2350  0.0112
   14MOL    H46 3972   3.898   4.975   4.562 -2.6435  1.6386 -0.1285
   14MOL    C47 3973   3.636   5.290   4.826 -0.1286 -0.1903 -0.8987
   14MOL    C48 3974   3.675   5.430   4.774 -0.2784  0.4288  0.7593
   14MOL    C49 3975   3.578   5.489   4.675  0.6537  0.3373 -0.4918
   14MOL    C50 3976   3.619   5.530   4.551 -0.1474 -0.8334 -0.4150
   14MOL    C51 3977   3.529   5.575   4.451 -0.5198  0.5596  0.3307
   14MOL    C52 3978   3.398   5.589   4.493  0.4026 -0.2116  0.2050
   14MOL    C53 3979   3.359   5.551   4.623  0.0748  0.1614  1.5565
   14MOL    N54 3980   3.449   5.503   4.715 -0.0099  0.5913 -0.1486
   14MOL    H55 3981   3.547   5.318   4.883 -0.7031 -2.6707 -0.4850
   14MOL    H56 3982   3.600   5.222   4.748 -1.9133 -1.0590  0.6231
   14MOL    H57 3983   3.772   5.418   4.724  0.7701 -1.2082  3.0919
   14MOL    H58 3984   3.723   5.524   4.520  0.3559  0.7007  0.8876
   14MOL    H59 3985   3.555   5.612   4.353 -0.4642 -2.1354 -0.7137
   14MOL    H60 3986   3.326   5.630   4.425 -2.0551 -1.6235  1.8760
   14MOL    H61 3987   3.255   5.553   4.652  0.2446  1.8061  2.1010
   14MOL    C62 3988   3.706   5.538   4.888 -0.0079 -0.0877  0.1943
   14MOL    C63 3989   3.596   5.585   4.981 -0.4189  0.3223 -0.4964
   14MOL    C64 3990   3.648   5.596   5.129  0.3243  0.4903  0.4097
   14MOL    C65 3991   3.586   5.514   5.223 -0.6663  0.6937 -0.2578
   14MOL    C66 3992   3.598   5.534   5.359 -0.8561 -0.4050  0.4368
   14MOL    C67 3993   3.689   5.636   5.395  0.1695 -0.4909  0.1728
   14MOL    C68 3994   3.752   5.710   5.293  0.2932  0.1573 -0.0193
   14MOL    N69 3995   3.731   5.695   5.162  0.2958 -0.5938 -0.1689
   14MOL    H70 3996   3.752   5.623   4.838 -1.3850  0.8306  0.4530
   14MOL    H71 3997   3.786   5.494   4.948 -0.6847 -2.4964 -0.5978
   14MOL    H72 3998   3.518   5.508   4.986  1.8283 -1.9849  0.1679
   14MOL    H73 3999   3.521   5.435   5.189  2.1144 -1.3175 -1.1047
   14MOL    H74 4000   3.556   5.471   5.436 -0.7227  0.7975  1.5061
   14MOL    H75 4001   3.703   5.651   5.501  2.4632 -0.5364 -0.0830
   14MOL    H76 4002   3.811   5.797   5.320  0.7723 -0.0438 -0.4069
   14MOL    C77 4003   3.534   5.716   4.942  0.2277  0.1128  0.1048
   14MOL    C78 4004   3.379   5.737   4.962  0.5551  0.0830  0.7480
   14MOL    C79 4005   3.338   5.725   5.109 -0.3932  0.5952 -0.1231
   14MOL    C80 4006   3.265   5.611   5.144 -0.0659 -0.3244  0.2488
   14MOL    C81 4007   3.228   5.598   5.278 -0.0822 -0.2201 -0.0192
   14MOL    C82 4008   3.266   5.702   5.365  0.5011  0.6843  0.0388
   14MOL    C83 4009   3.343   5.808   5.319 -0.2121  0.5431 -0.7216
   14MOL    N84 4010   3.379   5.817   5.193 -0.2892 -0.3652 -0.2402
   14MOL    H85 4011   3.563   5.736   4.839 -1.7601 -0.1001 -0.5155
   14MOL    H86 4012   3.595   5.790   4.993  2.2774 -0.3748 -1.5616
   14MOL    H87 4013   3.326   5.657   4.909  1.7679 -0.4123  0.2614
   14MOL    H88 4014   3.254   5.521   5.085 -1.2271 -1.0605  1.5678
   14MOL    H89 4015   3.176   5.512   5.318  1.3160 -0.8943  0.4098
   14MOL    H90 4016   3.226   5.699   5.466 -1.2004 -0.9318 -0.6479
   14MOL    H91 4017   3.380   5.889   5.380  2.2918 -0.9360 -0.2383
   14MOL    C92 4018   3.330   5.873   4.903 -0.3187  0.3574  0.0193
   14MOL    C93 4019   3.176   5.893   4.886  0.6842  0.7073  0.4283
   14MOL    C94 4020   3.159   6.046   4.860  0.1492 -0.0605  1.0796
   14MOL    C95 4021   3.145   6.137   4.967  0.1458 -0.0200  0.6684
   14MOL    C96 4022   3.154   6.273   4.940 -0.0722  0.8948  0.2036
   14MOL    C97 4023   3.167   6.319   4.805  0.4551  0.3335 -0.6319
   14MOL    C98 4024   3.168   6.216   4.705 -0.3294  0.3125 -0.7448
   14MOL    N99 4025   3.161   6.086   4.733 -0.3569  0.8267 -0.2266
   14MOL   H100 4026   3.370   5.892   4.803 -0.6312 -1.5590 -0.4976
   14MOL   H101 4027   3.382   5.951   4.958 -0.1554 -0.7319  1.4476
   14MOL   H102 4028   3.150   5.875   4.991  1.1308 -1.0580  0.2604
   14MOL   H103 4029   3.136   6.104   5.069 -1.1565 -2.1126 -0.0961
   14MOL   H104 4030   3.164   6.350   5.016  2.9851  1.1938 -0.4532
   14MOL   H105 4031   3.195   6.418   4.775  0.8356  1.3244  2.7782
   14MOL   H106 4032   3.180   6.243   4.601 -0.1244  3.0338 -0.0357
   14MOL   C107 4033   3.108   5.799   4.787  0.1415 -0.5061  0.1185
   14MOL   C108 4034   2.955   5.823   4.783  0.1636  0.3675 -0.0879
   14MOL   C109 4035   2.896   5.771   4.647  0.1920  0.2487 -0.8423
   14MOL   C110 4036   2.814   5.855   4.567 -0.4769 -0.6485  0.2618
   14MOL   C111 4037   2.756   5.803   4.451 -0.3185  0.0221 -0.3666
   14MOL   C112 4038   2.801   5.677   4.409 -0.3355  0.0234  0.0751
   14MOL   C113 4039   2.892   5.608   4.486 -0.2232 -0.4775 -0.0794
   14MOL   N114 4040   2.931   5.647   4.607  0.4477  0.3193 -0.4279
   14MOL   H115 4041   3.114   5.692   4.808 -3.0964 -0.8427 -0.4170
   14MOL   H116 4042   3.159   5.813   4.692  0.4718 -0.4198  0.3083
   14MOL   H117 4043   2.926   5.926   4.806 -0.7765 -0.0221  0.5248
   14MOL   H118 4044   2.799   5.958   4.594 -1.4073 -1.0022  1.1182
   14MOL   H119 4045   2.684   5.861   4.395 -0.0749  2.2652  1.5435
   14MOL   H120 4046   2.763   5.645   4.314  0.3264  1.9808 -0.8649
   14MOL   H121 4047   2.930   5.517   4.444  2.3747  0.6997 -0.3219
   14MOL   C122 4048   2.886   5.748   4.906  0.2931 -0.0572  0.0426
   14MOL   C123 4049   2.727   5.743   4.898 -0.1231 -0.2774 -0.8816
   14MOL   C124 4050   2.675   5.618   4.833 -0.5468 -0.2900 -0.7854
   14MOL   C125 4051   2.593   5.615   4.723  0.0133 -0.9769  1.1236
   14MOL   C126 4052   2.540   5.500   4.666  0.1017 -0.4169  0.2348
   14MOL   C127 4053   2.572   5.383   4.739  0.3343 -0.5217  0.1247
   14MOL   C128 4054   2.666   5.387   4.843  0.5523  0.4757  0.3071
   14MOL   N129 4055   2.717   5.504   4.886  1.1546  0.1106  0.3058
   14MOL   H130 4056   2.920   5.811   4.988  3.1263 -0.7823 -0.5303
   14MOL   H131 4057   2.917   5.646   4.926  0.4969 -0.3170 -1.5337
   14MOL   H132 4058   2.701   5.827   4.834 -0.1481  1.7163  1.6708
   14MOL   H133 4059   2.574   5.703   4.663  1.0679 -1.5187 -0.0285
   14MOL   H134 4060   2.492   5.485   4.570  2.7005 -0.3576 -1.1186
   14MOL   H135 4061   2.536   5.288   4.704  0.5950 -0.8810  0.8348
   14MOL   H136 4062   2.684   5.298   4.900  0.1455 -1.1673 -2.0520
   14MOL   C137 4063   2.656   5.765   5.031 -0.2227  0.7601  0.1391
   14MOL   C138 4064   2.668   5.907   5.095  0.2131  0.6087  0.3623
   14MOL   C139 4065   2.621   6.008   4.999 -0.0492 -1.0379 -0.1171
   14MOL   C140 4066   2.710   6.102   4.930 -0.4291  0.4526  0.0799
   14MOL   C141 4067   2.643   6.194   4.850  0.7124  0.3518  0.5783
   14MOL   C142 4068   2.505   6.196   4.841  0.8326 -0.4434 -0.9783
   14MOL   C143 4069   2.430   6.097   4.909  0.3847  0.0849  0.7761
   14MOL   N144 4070   2.487   6.006   4.983 -0.4868 -0.2130 -0.0607
   14MOL   H145 4071   2.685   5.688   5.103 -2.3015 -0.7671 -0.6126
   14MOL   H146 4072   2.552   5.756   4.998  0.3977 -0.5997 -1.5021
   14MOL   H147 4073   2.777   5.915   5.097  0.3820 -1.0661 -0.8640
   14MOL   H148 4074   2.817   6.097   4.936 -0.5005 -2.3862 -0.2883
   14MOL   H149 4075   2.692   6.268   4.788 -1.7345  2.2775  0.8338
   14MOL   H150 4076   2.457   6.267   4.776  3.0068  3.1945  1.2610
   14MOL   H151 4077   2.323   6.104   4.896  0.5642 -0.6429 -1.4056
   14MOL   C152 4078   2.608   5.910   5.238  0.0924 -0.5391 -0.8788
   14MOL   C153 4079   2.691   5.862   5.358 -0.1200 -0.0160  0.0382
   14MOL   C154 4080   2.818   5.947   5.358  0.4390 -0.4981 -0.3936
   14MOL   C155 4081   2.948   5.901   5.330  0.0250 -0.3095  0.7119
   14MOL   C156 4082   3.052   5.996   5.330  0.3367  0.3947 -0.7058
   14MOL   C157 4083   3.025   6.128   5.358 -0.1419  0.8649  0.6197
   14MOL   C158 4084   2.894   6.166   5.396 -0.6657 -0.4953  0.5022
   14MOL   N159 4085   2.790   6.076   5.390  0.6693  0.2646  0.5351
   14MOL   H160 4086   2.511   5.861   5.237 -0.5043  0.6176 -1.4105
   14MOL   H161 4087   2.588   6.015   5.258 -0.6342 -1.0405  1.0743
   14MOL   H162 4088   2.725   5.759   5.345  0.8399  0.3830 -0.6364
   14MOL   H163 4089   2.964   5.797   5.304 -2.7995 -1.1407  2.0290
   14MOL   H164 4090   3.153   5.970   5.301  0.0696 -0.0494 -1.2385
   14MOL   H165 4091   3.104   6.201   5.352 -0.3462  1.0292 -0.2158
   14MOL   H166 4092   2.882   6.271   5.413 -2.1421 -0.2652 -1.7440
   14MOL   C167 4093   2.613   5.861   5.493 -0.3160  0.0679  0.5218
   14MOL   C168 4094   2.677   5.785   5.607 -0.2091 -0.2086 -0.3474
   14MOL   C169 4095   2.799   5.869   5.665 -0.0799  0.3651 -0.0847
   14MOL   C170 4096   2.779   5.976   5.753 -0.0253  0.0438 -0.4662
   14MOL   C171 4097   2.893   6.051   5.798  1.0495 -0.3031  0.2765
   14MOL   C172 4098   3.019   6.003   5.767 -0.4892 -0.6669 -0.2563
   14MOL   C173 4099   3.032   5.897   5.681  0.5511  0.0201 -0.2867
   14MOL   N174 4100   2.924   5.824   5.627  0.4602  0.1429  0.3589
   14MOL   H175 4101   2.528   5.801   5.462  0.9371 -1.9455  0.8677
   14MOL   H176 4102   2.585   5.961   5.526  3.1024  1.7186 -1.2890
   14MOL   H177 4103   2.723   5.695   5.566  0.9959 -0.1882  0.9265
   14MOL   H178 4104   2.677   6.002   5.773  0.6716  2.1666  0.4379
   14MOL   H179 4105   2.884   6.137   5.864  1.0466  0.4504 -0.6985
   14MOL   H180 4106   3.111   6.047   5.805 -1.2416  0.3768  0.3819
   14MOL   H181 4107   3.129   5.865   5.646 -0.9134 -2.6539 -2.0589
   14MOL   C182 4108   2.573   5.732   5.712  0.1717 -0.6675 -0.1279
   14MOL   C183 4109   2.638   5.645   5.822 -0.0289 -0.2820  0.2108
   14MOL   C184 4110   2.561   5.670   5.954  0.4322  0.4545  0.7830
   14MOL   C185 4111   2.630   5.724   6.064 -0.6667 -0.1897 -1.2281
   14MOL   C186 4112   2.566   5.748   6.188 -0.2509 -0.1139  0.0741
   14MOL   C187 4113   2.426   5.718   6.194  0.5592 -0.1174 -0.3279
   14MOL   C188 4114   2.363   5.663   6.077  0.5905  0.4207  0.5645
   14MOL   N189 4115   2.426   5.637   5.960 -0.1408 -0.3234  0.3639
   14MOL   H190 4116   2.486   5.695   5.658 -1.1253  0.6648  1.0330
   14MOL   H191 4117   2.532   5.825   5.751  0.7923 -0.4259 -0.0441
   14MOL   H192 4118   2.734   5.692   5.843 -1.2336  0.9976  3.0941
   14MOL   H193 4119   2.737   5.719   6.052 -0.3985  1.1132  0.4367
   14MOL   H194 4120   2.614   5.764   6.283 -0.0245 -1.5675  0.2244
   14MOL   H195 4121   2.363   5.722   6.282 -1.6522 -2.1856 -1.7585
   14MOL   H196 4122   2.256   5.663   6.070  0.6122 -0.7639  0.0746
   14MOL   C197 4123   2.665   5.503   5.777  1.0225  0.0303 -0.2636
   14MOL   C198 4124   2.718   5.408   5.885 -0.3167 -0.4472  0.5835
   14MOL   C199 4125   2.602   5.318   5.934  0.1361  0.3616 -0.4924
   14MOL   C200 4126   2.554   5.327   6.063 -0.4055 -0.8102  0.1426
   14MOL   C201 4127   2.445   5.254   6.105  0.1594  0.4482 -0.4174
   14MOL   C202 4128   2.381   5.175   6.007  0.4487 -0.3215  0.2760
   14MOL   C203 4129   2.445   5.164   5.878 -0.7772  0.7523 -0.7469
   14MOL   N204 4130   2.559   5.226   5.847  0.3800  0.2844 -0.6201
   14MOL   H205 4131   2.731   5.513   5.691 -0.5707 -0.9074 -1.6283
   14MOL   H206 4132   2.573   5.463   5.733 -1.0009  3.5484  0.5736
   14MOL   H207 4133   2.745   5.465   5.974  2.4141 -0.9584  0.1325
   14MOL   H208 4134   2.593   5.390   6.141 -1.8638  0.3524 -0.0397
   14MOL   H209 4135   2.411   5.261   6.208  1.2908  0.6169 -0.0512
   14MOL   H210 4136   2.289   5.122   6.028  1.2589 -1.6249  0.6006
   14MOL   H211 4137   2.400   5.100   5.804 -0.1760  0.4422 -0.8513
   14MOL   C212 4138   2.846   5.323   5.853 -0.4209 -0.6468 -0.0908
   14MOL   C213 4139   2.861   5.237   5.727  0.5488  0.0883 -0.7625
   14MOL   C214 4140   2.869   5.327   5.607 -0.2736  0.2126  0.4771
   14MOL   C215 4141   2.781   5.310   5.492  0.3645 -0.4266  0.2686
   14MOL   C216 4142   2.787   5.416   5.399 -0.1705  0.3851  0.1576
   14MOL   C217 4143   2.883   5.513   5.416  0.1852 -0.2274 -0.4383
   14MOL   C218 4144   2.967   5.514   5.521  0.5103 -0.6089  0.4809
   14MOL   N219 4145   2.966   5.422   5.613 -0.9996  0.0653 -0.0169
   14MOL   H220 4146   2.868   5.251   5.932  1.0292  0.9424  0.9876
   14MOL   H221 4147   2.927   5.395   5.861 -0.1410 -0.9270 -0.3695
   14MOL   H222 4148   2.770   5.178   5.719 -1.1092  2.4124  0.2162
   14MOL   H223 4149   2.709   5.230   5.480 -0.3886  0.0277  1.6386
   14MOL   H224 4150   2.745   5.396   5.301  0.9263 -2.7867  0.2625
   14MOL   H225 4151   2.899   5.597   5.350  0.7089 -1.0111 -1.3292
   14MOL   H226 4152   3.046   5.588   5.521  1.3389 -1.3954 -3.9239
   14MOL   C227 4153   2.979   5.138   5.734 -0.0600  0.4339 -0.1617
   14MOL   C228 4154   2.958   4.988   5.773  0.5340  0.4639 -0.0976
   14MOL   C229 4155   2.832   4.925   5.714 -0.6274 -0.1372 -0.4444
   14MOL   C230 4156   2.744   4.845   5.801  0.4608  0.2191 -0.1880
   14MOL   C231 4157   2.646   4.766   5.728  0.1793 -0.4111  0.0927
   14MOL   C232 4158   2.629   4.778   5.591 -0.9530  0.5528 -0.0502
   14MOL   C233 4159   2.734   4.843   5.524  0.6351 -0.2879 -0.0055
   14MOL   N234 4160   2.824   4.925   5.577 -0.2997  0.1114  0.0749
   14MOL   H235 4161   3.057   5.186   5.793  1.0050 -0.3605 -0.9197
   14MOL   H236 4162   3.015   5.132   5.632 -0.4832 -1.4703 -0.2140
   14MOL   H237 4163   2.946   4.979   5.881 -1.2896  1.7788 -0.1824
   14MOL   H238 4164   2.766   4.822   5.904  0.5905  1.3157  0.0361
   14MOL   H239 4165   2.592   4.689   5.782  0.4526  1.0086  2.4903
   14MOL   H240 4166   2.567   4.708   5.538 -1.2009  0.7829 -0.0597
   14MOL   H241 4167   2.749   4.823   5.418 -0.2349 -1.1266  0.0206
   14MOL   C242 4168   3.083   4.907   5.741 -0.2371 -0.3009 -0.4124
   14MOL   C243 4169   3.075   4.756   5.747  0.3966  0.5385 -0.5746
   14MOL   C244 4170   3.191   4.689   5.666 -0.2114 -0.3227  0.1743
   14MOL   C245 4171   3.160   4.594   5.567 -0.0265 -0.0669 -0.0010
   14MOL   C246 4172   3.262   4.523   5.498 -0.3979  0.4905  0.1356
   14MOL   C247 4173   3.393   4.565   5.522 -0.1806  0.9530 -0.5055
   14MOL   C248 4174   3.419   4.663   5.617  0.7935 -0.3343 -0.1933
   14MOL   N249 4175   3.324   4.725   5.690 -0.2796 -0.2078  0.3895
   14MOL   H250 4176   3.168   4.949   5.795 -2.7124  0.0888  3.4474
   14MOL   H251 4177   3.099   4.915   5.634 -4.0561  0.4034 -1.0057
   14MOL   H252 4178   2.981   4.722   5.705 -0.2115 -0.0755  1.2106
   14MOL   H253 4179   3.058   4.570   5.540  0.5899 -0.6132 -1.9537
   14MOL   H254 4180   3.231   4.449   5.426 -0.2420  0.6861 -0.1305
   14MOL   H255 4181   3.477   4.526   5.465  0.2189  0.6026  0.3205
   14MOL   H256 4182   3.522   4.695   5.612  0.3808  1.5213  2.2112
   14MOL   C257 4183   3.069   4.695   5.888  0.3202  0.5997 -0.7128
   14MOL   C258 4184   3.031   4.540   5.897 -0.1719 -0.5679 -0.3680
   14MOL   C259 4185   3.004   4.500   6.044 -1.1583 -0.5367  0.4743
   14MOL   C260 4186   3.064   4.381   6.094 -0.0784  0.0063  0.0211
   14MOL   C261 4187   3.033   4.348   6.221  0.0705  0.0794  0.5456
   14MOL   C262 4188   2.942   4.421   6.295 -0.1821 -0.4737  0.3899
   14MOL   C263 4189   2.879   4.532   6.231 -0.0548  1.1169 -0.4024
   14MOL   N264 4190   2.906   4.560   6.103 -0.0405 -0.2825 -0.2982
   14MOL   H265 4191   2.993   4.750   5.944 -1.8266 -2.6895 -0.2750
   14MOL   H266 4192   3.163   4.718   5.937  0.8060  0.0437 -1.3906
   14MOL   H267 4193   3.122   4.488   5.867 -0.2224 -1.3583  0.8259
   14MOL   H268 4194   3.127   4.317   6.034 -0.4872  1.0831 -1.5635
   14MOL   H269 4195   3.104   4.277   6.261  2.2932  0.2263 -2.9434
   14MOL   H270 4196   2.934   4.399   6.400 -0.5770  0.3959  0.5409
   14MOL   H271 4197   2.813   4.596   6.286 -1.7436 -1.2405  0.4020
   14MOL   C272 4198   2.916   4.480   5.808 -0.3490 -0.4449  0.2005
   14MOL   C273 4199   2.903   4.327   5.796 -0.2350  0.1004  0.2781
   14MOL   C274 4200   2.757   4.287   5.752  0.6211 -0.8130 -0.1407
   14MOL   C275 4201   2.663   4.232   5.843  0.2928 -0.1937 -0.6606
   14MOL   C276 4202   2.535   4.206   5.807  0.1123  0.5880  0.0113
   14MOL   C277 4203   2.487   4.237   5.675  0.0021 -0.1156  0.5759
   14MOL   C278 4204   2.585   4.300   5.593  0.2118  0.0516 -0.3792
   14MOL   N279 4205   2.713   4.326   5.629  0.1670  0.4686 -0.1317
   14MOL   H280 4206   2.917   4.515   5.705 -1.1304 -2.0580 -0.3721
   14MOL   H281 4207   2.820   4.519   5.843 -0.1333 -0.6797  1.0676
   14MOL   H282 4208   2.913   4.281   5.895  0.5678 -2.3779 -0.9026
   14MOL   H283 4209   2.699   4.209   5.942 -1.5073  0.1251  0.0736
   14MOL   H284 4210   2.471   4.152   5.876 -1.3169  0.6460 -1.2462
   14MOL   H285 4211   2.387   4.218   5.637 -0.1281 -1.3907  1.5330
   14MOL   H286 4212   2.562   4.332   5.492  1.2064  3.5965  0.4424
   14MOL   C287 4213   3.016   4.266   5.705 -0.5894 -0.1399 -0.3880
   14MOL   C288 4214   3.024   4.113   5.717  0.3146  0.3812  0.0795
   14MOL   C289 4215   3.071   4.070   5.852 -0.5540  0.5757 -1.5881
   14MOL   C290 4216   3.202   4.079   5.889 -0.1471  0.8552 -0.1532
   14MOL   C291 4217   3.237   4.042   6.022  0.3720  0.2421 -0.4533
   14MOL   C292 4218   3.140   3.999   6.110 -0.3869 -0.5144 -0.1197
   14MOL   C293 4219   3.006   3.986   6.061  0.1575 -0.3065  0.2008
   14MOL   N294 4220   2.972   4.023   5.936  0.0606  0.8002  0.3669
   14MOL   H295 4221   3.118   4.303   5.719 -0.2076 -1.5511  0.6431
   14MOL   H296 4222   2.986   4.275   5.601  0.4686  0.7828 -0.6238
   14MOL   H297 4223   3.103   4.075   5.652  0.6415  0.3575  0.4954
   14MOL   H298 4224   3.278   4.097   5.816  1.6603  0.0818  1.4976
   14MOL   H299 4225   3.342   4.048   6.048 -0.2920  1.2259  2.1239
   14MOL   H300 4226   3.164   3.956   6.206  0.1933 -0.1868 -0.1134
   14MOL   H301 4227   2.928   3.947   6.124  1.7101  0.1564  2.4835
   14MOL   H302 4228   2.929   4.070   5.684  0.6920 -0.2983 -0.1426
   15MOL     C1 4229   2.888   2.950   0.484  0.5814  0.0307 -0.2428
   15MOL     C2 4230   2.993   2.920   0.378 -0.1046  0.2702  0.3602
   15MOL     C3 4231   2.964   2.785   0.306  0.5600  0.1271  0.3525
   15MOL     C4 4232   3.061   2.691   0.292 -0.1199  0.7523 -0.2464
   15MOL     C5 4233   3.027   2.570   0.230 -0.1624  0.6913  0.6512
   15MOL     C6 4234   2.892   2.552   0.191 -0.8140 -0.5567  0.1473
   15MOL     C7 4235   2.797   2.654   0.206 -0.4612  0.4776 -0.0649
   15MOL     N8 4236   2.839   2.771   0.260 -0.1672  0.3117  0.2829
   15MOL     H9 4237   2.790   2.972   0.442  0.3913  2.5344  1.4057
   15MOL    H10 4238   2.886   2.856   0.539 -1.5358 -1.1436 -2.2355
   15MOL    H11 4239   3.084   2.910   0.437 -0.3898 -0.3585  0.6943
   15MOL    H12 4240   3.160   2.713   0.329  0.0720  0.5471 -0.6355
   15MOL    H13 4241   3.098   2.490   0.216 -2.5598 -1.1838 -1.1816
   15MOL    H14 4242   2.873   2.459   0.142 -0.9315 -0.8479  0.7384
   15MOL    H15 4243   2.696   2.651   0.169 -1.5012  0.0729  2.7067
   15MOL    H16 4244   2.915   3.028   0.554  1.7873 -0.8569  0.3005
   15MOL    C17 4245   3.004   3.025   0.267  0.0123 -0.5030 -0.2701
   15MOL    C18 4246   3.027   3.168   0.324 -0.7066 -0.1057  0.2122
   15MOL    C19 4247   3.167   3.183   0.378  0.3975  0.3657  0.6037
   15MOL    C20 4248   3.185   3.239   0.506  0.5287  0.1901 -0.1201
   15MOL    C21 4249   3.308   3.271   0.548 -0.2352  0.8501 -0.4056
   15MOL    C22 4250   3.418   3.251   0.466 -0.0138  0.2144  0.0383
   15MOL    C23 4251   3.393   3.190   0.341  0.0511 -0.0927 -0.8317
   15MOL    N24 4252   3.269   3.158   0.297 -0.2812 -0.5240  0.7749
   15MOL    H25 4253   2.914   3.016   0.207 -1.0562  0.4843  1.1624
   15MOL    H26 4254   3.087   2.985   0.208  1.4083  1.5301  0.2437
   15MOL    H27 4255   2.964   3.187   0.411  0.3389  1.5846  0.6310
   15MOL    H28 4256   3.100   3.269   0.564  0.6590 -1.5958  1.0171
   15MOL    H29 4257   3.317   3.305   0.650 -2.0744  1.6410 -0.4839
   15MOL    H30 4258   3.516   3.266   0.509 -0.4524  0.1362  1.0880
   15MOL    H31 4259   3.479   3.166   0.280 -0.3988 -1.0443 -1.1022
   15MOL    C32 4260   3.001   3.282   0.227  0.1991 -0.0526 -0.5135
   15MOL    C33 4261   2.858   3.289   0.158 -1.1711 -0.0338  0.2689
   15MOL    C34 4262   2.751   3.309   0.262  0.1487  0.8242  0.8150
   15MOL    C35 4263   2.636   3.227   0.253 -0.7498  0.2001 -1.1145
   15MOL    C36 4264   2.533   3.260   0.349 -0.6845 -0.2548 -0.4121
   15MOL    C37 4265   2.543   3.371   0.435  0.2808  0.2763  0.3728
   15MOL    C38 4266   2.666   3.444   0.424  0.4066 -0.5511 -0.4208
   15MOL    N39 4267   2.769   3.416   0.344  0.6233 -0.1445  0.1804
   15MOL    H40 4268   3.076   3.281   0.148 -0.3510 -2.7969 -1.0439
   15MOL    H41 4269   3.017   3.382   0.268 -2.4697 -0.1794  0.9135
   15MOL    H42 4270   2.834   3.191   0.118  2.1964 -1.4430  1.5181
   15MOL    H43 4271   2.633   3.140   0.190  0.4741  0.8012 -2.0137
   15MOL    H44 4272   2.443   3.200   0.355  0.2787 -1.3819  4.6017
   15MOL    H45 4273   2.459   3.395   0.497 -1.4805 -0.8571 -1.5056
   15MOL    H46 4274   2.682   3.525   0.494  2.3538 -1.4972  0.2704
   15MOL    C47 4275   2.856   3.403   0.053 -0.8999 -0.1242  0.1175
   15MOL    C48 4276   2.945   3.382   8.080  0.3640 -0.0103 -0.0028
   15MOL    C49 4277   2.932   3.235   8.031 -0.3484 -0.3948  0.5362
   15MOL    C50 4278   3.047   3.153   8.027 -0.2580 -0.6864  0.0870
   15MOL    C51 4279   3.028   3.011   7.994  0.3035  0.1875  0.3139
   15MOL    C52 4280   2.898   2.967   7.966 -0.5796  0.6576 -0.3994
   15MOL    C53 4281   2.794   3.059   7.970 -0.2232  0.3681 -0.2096
   15MOL    N54 4282   2.805   3.191   8.003  0.4185 -0.6176  0.4743
   15MOL    H55 4283   2.878   3.499   0.099  0.7015 -0.6517  0.5199
   15MOL    H56 4284   2.754   3.418   0.018 -1.5757 -0.2913  1.9741
   15MOL    H57 4285   3.049   3.388   8.115  0.3015  1.1762 -0.0179
   15MOL    H58 4286   3.140   3.206   8.043 -0.9273  0.0566  1.6746
   15MOL    H59 4287   3.107   2.937   7.985 -1.6905 -2.0041  0.2205
   15MOL    H60 4288   2.877   2.863   7.945 -1.2505  0.6318  0.4052
   15MOL    H61 4289   2.691   3.030   7.957  0.0885  0.1418 -2.3595
   15MOL    C62 4290   2.916   3.472   7.960 -0.4004 -0.0903 -0.2776
   15MOL    C63 4291   2.951   3.622   7.982 -0.0618  0.4869 -0.8888
   15MOL    C64 4292   3.083   3.637   8.051  0.6920  0.0112  0.0787
   15MOL    C65 4293   3.099   3.714   0.016  0.6580  0.0923 -0.2975
   15MOL    C66 4294   3.236   3.729   0.057  0.6460 -0.8606  0.0644
   15MOL    C67 4295   3.335   3.655   0.002 -0.4100 -0.0170  0.2871
   15MOL    C68 4296   3.303   3.573   8.040 -0.8225 -1.0163  0.7023
   15MOL    N69 4297   3.181   3.576   7.990  0.3522 -0.0771  0.2414
   15MOL    H70 4298   2.815   3.458   7.922 -0.2775  1.6287 -1.2884
   15MOL    H71 4299   2.976   3.451   7.871  0.1427  0.0097  0.0611
   15MOL    H72 4300   2.882   3.662   8.057  0.9144 -1.4133  1.0648
   15MOL    H73 4301   3.022   3.766   0.070  0.0579  0.0897 -1.1495
   15MOL    H74 4302   3.260   3.781   0.148  3.2317 -1.4369 -0.2642
   15MOL    H75 4303   3.432   3.657   0.051 -0.2136 -0.7859 -0.0616
   15MOL    H76 4304   3.378   3.513   7.990 -0.0464  0.9362 -0.5225
   15MOL    C77 4305   2.940   3.704   7.851 -0.0704 -0.5667 -0.2856
   15MOL    C78 4306   2.811   3.759   7.795 -0.3104 -0.6833  0.0858
   15MOL    C79 4307   2.704   3.776   7.898 -0.6590 -0.0870 -0.2711
   15MOL    C80 4308   2.581   3.708   7.885 -0.4466 -0.1785 -0.2900
   15MOL    C81 4309   2.482   3.736   7.984 -0.3449  0.1812  0.0382
   15MOL    C82 4310   2.520   3.824   8.086  0.3266 -0.0172  0.7627
   15MOL    C83 4311   2.642   3.895   8.079 -0.0195 -0.3399  0.2478
   15MOL    N84 4312   2.735   3.868   7.992 -0.1295 -0.2666  0.0264
   15MOL    H85 4313   2.994   3.661   7.767 -2.0717 -1.1766 -1.2923
   15MOL    H86 4314   2.994   3.797   7.870  2.4740 -1.5912 -2.1906
   15MOL    H87 4315   2.783   3.673   7.734 -0.6237 -0.9854  0.6521
   15MOL    H88 4316   2.561   3.633   7.810  1.7425 -0.5117 -0.5723
   15MOL    H89 4317   2.392   3.678   7.988 -2.0172  2.5895 -1.3751
   15MOL    H90 4318   2.446   3.844   0.010  0.0055  0.4194  0.3313
   15MOL    H91 4319   2.668   3.974   8.149 -0.5469  0.3471 -0.3278
   15MOL    C92 4320   2.830   3.890   7.710 -0.2303 -0.4868  0.0832
   15MOL    C93 4321   2.912   3.882   7.581  0.1993  0.0586 -0.2950
   15MOL    C94 4322   2.834   3.814   7.476  0.1529  0.5218 -0.4055
   15MOL    C95 4323   2.859   3.683   7.435  0.7519 -0.1446  0.2718
   15MOL    C96 4324   2.774   3.619   7.351 -0.7373  0.0148  0.1524
   15MOL    C97 4325   2.662   3.690   7.302  0.2382 -0.4924 -0.0441
   15MOL    C98 4326   2.645   3.824   7.342  0.0727 -0.6013  0.4138
   15MOL    N99 4327   2.720   3.880   7.434 -0.0984 -0.0661 -0.2939
   15MOL   H100 4328   2.867   3.975   7.767 -0.5485  0.2703 -0.8244
   15MOL   H101 4329   2.734   3.927   7.675  0.7011  0.9729 -0.9728
   15MOL   H102 4330   3.004   3.825   7.592  1.3912  1.7237 -1.5250
   15MOL   H103 4331   2.947   3.632   7.474  1.8907  1.4841 -0.1175
   15MOL   H104 4332   2.789   3.518   7.314  0.9925 -0.2013  1.4084
   15MOL   H105 4333   2.602   3.637   7.230  2.2046 -0.2577 -1.9182
   15MOL   H106 4334   2.563   3.882   7.303  1.5720  0.6421 -0.9631
   15MOL   C107 4335   2.956   4.025   7.541 -0.1344  0.1086 -0.4905
   15MOL   C108 4336   3.068   4.078   7.633  0.2896  0.4215 -0.0859
   15MOL   C109 4337   3.208   4.022   7.601 -1.1442  0.1727  0.2547
   15MOL   C110 4338   3.259   3.916   7.678 -0.1265  0.6479  1.2507
   15MOL   C111 4339   3.386   3.864   7.649  0.6510  0.3575 -0.0866
   15MOL   C112 4340   3.448   3.912   7.532  0.5507 -0.1444 -0.1459
   15MOL   C113 4341   3.394   4.019   7.461  0.6515  0.7750  0.0919
   15MOL   N114 4342   3.273   4.071   7.498  0.4474 -0.1659  0.2654
   15MOL   H115 4343   2.871   4.094   7.547 -1.5192 -1.4410 -1.6504
   15MOL   H116 4344   2.993   4.029   7.439  1.1016  1.0224 -0.0038
   15MOL   H117 4345   3.060   4.039   7.734  0.1180  0.7356  0.0226
   15MOL   H118 4346   3.203   3.876   7.760 -1.5390 -0.2919 -0.1384
   15MOL   H119 4347   3.432   3.782   7.703  0.0027  0.1869  0.2129
   15MOL   H120 4348   3.542   3.869   7.500  0.7680 -0.0268  0.3241
   15MOL   H121 4349   3.454   4.061   7.382  1.0774 -1.6671 -0.9111
   15MOL   C122 4350   3.079   4.235   7.643  0.3320 -0.6027  0.0263
   15MOL   C123 4351   2.984   4.305   7.746  0.2105  0.2160  0.8324
   15MOL   C124 4352   2.984   4.245   7.880  0.7553 -0.0459  0.0323
   15MOL   C125 4353   2.861   4.214   7.943  0.2165  0.0296 -0.7449
   15MOL   C126 4354   2.867   4.155   8.072  0.3655  0.0863  0.7714
   15MOL   C127 4355   2.994   4.134   8.132  0.5542 -0.4299 -0.1420
   15MOL   C128 4356   3.105   4.175   8.059 -0.6061  0.1255  0.2623
   15MOL   N129 4357   3.104   4.227   7.936 -0.1043  0.3052 -0.7098
   15MOL   H130 4358   3.055   4.279   7.546 -2.9870 -4.1981 -0.8821
   15MOL   H131 4359   3.175   4.278   7.672 -0.7415  0.5788  1.9931
   15MOL   H132 4360   2.880   4.304   7.713  0.2610 -0.2339  0.6809
   15MOL   H133 4361   2.767   4.254   7.908 -1.6404 -2.5225  1.1685
   15MOL   H134 4362   2.770   4.128   8.111 -0.4248 -1.2690 -2.0505
   15MOL   H135 4363   3.008   4.097   0.081 -0.9687 -1.6050 -0.3475
   15MOL   H136 4364   3.203   4.167   8.104 -0.0736  2.1582 -0.4554
   15MOL   C137 4365   3.018   4.462   7.761 -0.7056 -0.6067 -0.1410
   15MOL   C138 4366   2.988   4.549   7.639  0.4940 -0.6677  0.0309
   15MOL   C139 4367   2.842   4.518   7.598 -0.3658 -0.5350  0.1178
   15MOL   C140 4368   2.817   4.456   7.473 -0.1481 -0.1069 -0.2602
   15MOL   C141 4369   2.683   4.438   7.431 -0.2781 -0.0483  0.7365
   15MOL   C142 4370   2.577   4.473   7.518  0.1653  0.6176  0.4229
   15MOL   C143 4371   2.607   4.533   7.645 -0.3526  0.2599 -0.9884
   15MOL   N144 4372   2.738   4.551   7.680 -0.0991 -0.0788 -0.6649
   15MOL   H145 4373   3.117   4.482   7.800 -0.5334 -0.3383 -0.7004
   15MOL   H146 4374   2.952   4.504   7.837 -2.1541 -0.6137 -1.3521
   15MOL   H147 4375   3.064   4.518   7.566 -0.6470 -2.2116 -0.5189
   15MOL   H148 4376   2.895   4.429   7.403  0.1509 -0.4864  0.2128
   15MOL   H149 4377   2.673   4.392   7.334 -1.5181 -1.4904  1.5159
   15MOL   H150 4378   2.471   4.473   7.498  0.4796 -0.9300 -1.3472
   15MOL   H151 4379   2.526   4.569   7.705 -0.9793 -0.2365 -1.5206
   15MOL   C152 4380   3.006   4.705   7.655  0.0802 -0.1124  0.0745
   15MOL   C153 4381   3.141   4.778   7.619  0.2096 -0.4660  0.0960
   15MOL   C154 4382   3.260   4.730   7.693  0.6567 -0.0286  0.5128
   15MOL   C155 4383   3.338   4.806   7.785 -0.0562  0.2925  0.0020
   15MOL   C156 4384   3.437   4.751   7.863 -0.7515  0.4805  0.3743
   15MOL   C157 4385   3.466   4.614   7.832  0.1512 -0.3997 -0.3797
   15MOL   C158 4386   3.399   4.549   7.726 -0.4697 -0.5573  0.1956
   15MOL   N159 4387   3.298   4.605   7.658 -0.2665  0.1025  0.4147
   15MOL   H160 4388   2.969   4.730   7.754 -1.4519 -1.6136 -0.0990
   15MOL   H161 4389   2.933   4.763   7.599 -0.6583 -1.9952 -0.9602
   15MOL   H162 4390   3.130   4.878   7.661 -2.6347 -0.5922 -0.2569
   15MOL   H163 4391   3.300   4.905   7.808 -0.0829 -0.1949  2.2249
   15MOL   H164 4392   3.500   4.807   7.930  0.6182  0.0566 -0.5581
   15MOL   H165 4393   3.549   4.574   7.888  0.7167 -0.4848 -1.2658
   15MOL   H166 4394   3.428   4.451   7.690 -2.5839 -1.2519  0.3154
   15MOL   C167 4395   3.173   4.794   7.460 -1.0080 -0.2755 -0.6511
   15MOL   C168 4396   3.068   4.867   7.375 -0.3054  0.2232 -0.4762
   15MOL   C169 4397   3.005   4.978   7.444 -0.2503 -0.3205  0.8987
   15MOL   C170 4398   3.080   5.091   7.489 -0.0498 -0.1813 -0.1037
   15MOL   C171 4399   3.016   5.195   7.554  0.1256  0.5808 -0.3353
   15MOL   C172 4400   2.878   5.178   7.578  0.5919 -0.2838  0.5911
   15MOL   C173 4401   2.816   5.062   7.534  0.3182 -0.4870  0.4914
   15MOL   N174 4402   2.870   4.970   7.463 -0.3286  0.1259  0.1500
   15MOL   H175 4403   3.198   4.697   7.417  1.6509 -0.1701  0.5375
   15MOL   H176 4404   3.267   4.849   7.464 -0.2595 -1.6125  0.2741
   15MOL   H177 4405   2.984   4.799   7.361 -1.3981  1.1180  1.5603
   15MOL   H178 4406   3.186   5.085   7.474 -0.0055  0.6605 -0.1644
   15MOL   H179 4407   3.068   5.274   7.604  0.0795 -1.4879  3.1867
   15MOL   H180 4408   2.826   5.262   7.621  1.7830  0.0990  1.3155
   15MOL   H181 4409   2.711   5.041   7.552 -0.2099  0.5968 -1.2462
   15MOL   C182 4410   3.130   4.918   7.243  0.5176  0.1672  0.5690
   15MOL   C183 4411   3.035   4.963   7.135  0.0868 -0.6499  0.6030
   15MOL   C184 4412   3.104   5.059   7.041 -0.2536 -0.3686 -0.0025
   15MOL   C185 4413   3.208   5.015   6.957  0.0517  0.3825 -0.0202
   15MOL   C186 4414   3.267   5.119   6.879  0.2218 -0.4256  0.1296
   15MOL   C187 4415   3.228   5.253   6.901  0.8578 -0.5272  0.1900
   15MOL   C188 4416   3.131   5.280   6.998  0.9622 -0.2187  0.1152
   15MOL   N189 4417   3.067   5.186   7.064  0.0579  0.1131 -0.4540
   15MOL   H190 4418   3.194   4.845   7.194  0.3524  1.1638 -1.2096
   15MOL   H191 4419   3.213   4.988   7.254  1.1415 -0.1331 -1.9479
   15MOL   H192 4420   2.956   5.021   7.184 -0.4210 -0.5771 -0.2989
   15MOL   H193 4421   3.239   4.914   6.938  2.7430  1.4046 -1.2897
   15MOL   H194 4422   3.345   5.092   6.809 -1.3804 -3.8349 -0.4839
   15MOL   H195 4423   3.264   5.332   6.836  0.8664  0.2047  1.0919
   15MOL   H196 4424   3.103   5.383   7.016  1.6607 -0.3020  1.7631
   15MOL   C197 4425   2.984   4.842   7.057 -0.7219 -0.0325 -0.0283
   15MOL   C198 4426   2.876   4.871   6.953  0.0317 -0.2758  0.5580
   15MOL   C199 4427   2.941   4.911   6.812 -0.1242  1.0225 -0.0825
   15MOL   C200 4428   2.936   5.037   6.758  0.9250 -0.3161 -0.1944
   15MOL   C201 4429   3.006   5.066   6.641 -0.0871  0.1846  0.3424
   15MOL   C202 4430   3.078   4.956   6.581 -0.2556 -0.2412  0.8535
   15MOL   C203 4431   3.079   4.833   6.643 -0.2002 -0.1205 -0.2054
   15MOL   N204 4432   3.017   4.810   6.760  0.0652  0.5854 -0.3314
   15MOL   H205 4433   2.935   4.790   7.140 -1.5426  0.4833 -0.1813
   15MOL   H206 4434   3.055   4.768   7.021 -0.1300  0.4339  0.1782
   15MOL   H207 4435   2.823   4.960   6.987  0.1164 -0.2092  0.5164
   15MOL   H208 4436   2.877   5.119   6.797  0.2410 -0.0858 -1.7133
   15MOL   H209 4437   3.005   5.164   6.595 -1.6026  2.2074  4.4051
   15MOL   H210 4438   3.146   4.969   6.498 -1.9217 -1.5636 -0.7470
   15MOL   H211 4439   3.141   4.752   6.606 -0.2436 -0.7610  1.0715
   15MOL   C212 4440   2.772   4.760   6.936  0.3136 -0.1791  0.0572
   15MOL   C213 4441   2.645   4.789   6.855 -0.0856  0.5844  0.0439
   15MOL   C214 4442   2.583   4.663   6.790  0.0944 -0.4952 -0.3435
   15MOL   C215 4443   2.555   4.666   6.656 -0.6921  0.1048  0.0393
   15MOL   C216 4444   2.499   4.549   6.595  0.2267  0.5111  0.6229
   15MOL   C217 4445   2.454   4.447   6.675  0.5186 -0.1725 -0.0517
   15MOL   C218 4446   2.485   4.454   6.813 -0.1296 -0.1140 -0.9218
   15MOL   N219 4447   2.546   4.562   6.871 -0.0035  0.6350 -0.0209
   15MOL   H220 4448   2.754   4.715   7.034  0.7347  0.3213  0.3678
   15MOL   H221 4449   2.817   4.675   6.884 -1.1752  0.2745 -2.0421
   15MOL   H222 4450   2.677   4.858   6.777  2.6076 -2.2132 -1.4188
   15MOL   H223 4451   2.584   4.755   6.601  2.4465  0.1304  1.6307
   15MOL   H224 4452   2.484   4.560   6.488  0.0725 -0.2753  0.5629
   15MOL   H225 4453   2.397   4.366   6.632 -1.0417  2.3007 -2.8439
   15MOL   H226 4454   2.435   4.388   6.883  0.2500 -0.3720 -0.8971
   15MOL   C227 4455   2.533   4.860   6.937  1.2892 -0.5324  0.1169
   15MOL   C228 4456   2.406   4.892   6.856  0.9875 -0.6151  0.2894
   15MOL   C229 4457   2.282   4.818   6.903 -0.3308  1.1352 -0.2493
   15MOL   C230 4458   2.211   4.729   6.818 -0.1581  0.4088  0.1603
   15MOL   C231 4459   2.103   4.660   6.868 -0.4397  0.5464 -0.5334
   15MOL   C232 4460   2.064   4.688   7.001 -0.2484  0.4259  0.4151
   15MOL   C233 4461   2.143   4.772   7.082  0.5023  0.5466 -0.7402
   15MOL   N234 4462   2.250   4.839   7.035  0.2158 -0.0277  0.0240
   15MOL   H235 4463   2.574   4.954   6.974  3.2839 -1.8283  1.3008
   15MOL   H236 4464   2.497   4.793   7.016  1.0252 -0.7987 -0.2266
   15MOL   H237 4465   2.413   4.866   6.750 -0.3157  0.5673 -0.0988
   15MOL   H238 4466   2.244   4.725   6.715 -0.7765 -2.1693  0.0375
   15MOL   H239 4467   2.049   4.590   6.807 -0.4663 -1.8241  2.0886
   15MOL   H240 4468   1.974   4.641   7.037 -1.1705  1.5613 -0.3856
   15MOL   H241 4469   2.113   4.802   7.181 -1.8060 -0.4378 -1.1126
   15MOL   C242 4470   2.379   5.039   6.853 -0.1186 -0.2007  0.6643
   15MOL   C243 4471   2.469   5.132   6.763 -0.5082  0.1017 -0.0826
   15MOL   C244 4472   2.481   5.080   6.622  0.5900 -0.2071 -0.8635
   15MOL   C245 4473   2.606   5.046   6.567  0.1946 -0.7555  0.3659
   15MOL   C246 4474   2.615   5.014   6.430 -0.4193 -0.4760  0.0039
   15MOL   C247 4475   2.498   5.008   6.357 -0.1110 -0.4939 -0.3214
   15MOL   C248 4476   2.376   5.044   6.420  0.4512  0.0653 -0.4021
   15MOL   N249 4477   2.365   5.079   6.550 -0.2071 -0.5466 -0.5498
   15MOL   H250 4478   2.387   5.074   6.956 -1.7886  2.5185 -0.0839
   15MOL   H251 4479   2.277   5.046   6.815 -0.4610  1.2653  1.8528
   15MOL   H252 4480   2.567   5.129   6.810 -0.4610 -2.1810 -0.2300
   15MOL   H253 4481   2.694   5.052   6.630  0.2358 -3.2512  0.6071
   15MOL   H254 4482   2.714   4.991   6.393 -0.4533  0.8956 -0.9662
   15MOL   H255 4483   2.497   4.991   6.251  0.8635 -0.7853 -0.2856
   15MOL   H256 4484   2.279   5.035   6.372  0.8905 -1.2461 -1.0889
   15MOL   C257 4485   2.415   5.281   6.766 -0.0079  0.6234  0.4059
   15MOL   C258 4486   2.415   5.357   6.907  0.0073 -0.2680  0.0005
   15MOL   C259 4487   2.538   5.327   6.997 -0.0307  0.3516  0.9252
   15MOL   C260 4488   2.521   5.275   7.126 -0.2204  0.0496  0.3594
   15MOL   C261 4489   2.632   5.250   7.209 -0.0588  0.3492  0.7588
   15MOL   C262 4490   2.758   5.263   7.151  0.3608 -0.2488  0.2092
   15MOL   C263 4491   2.764   5.323   7.021 -0.3814  0.0624  0.3585
   15MOL   N264 4492   2.657   5.354   6.948  0.1437 -0.7541  0.5238
   15MOL   H265 4493   2.320   5.304   6.720 -0.6154 -2.4237  0.0004
   15MOL   H266 4494   2.484   5.326   6.695 -0.3605 -1.0951 -1.0742
   15MOL   H267 4495   2.324   5.315   6.950 -0.4355 -0.4084 -1.0633
   15MOL   H268 4496   2.422   5.261   7.166 -0.4931  1.1084  0.0959
   15MOL   H269 4497   2.621   5.221   7.313  1.1564 -1.6029  0.3539
   15MOL   H270 4498   2.849   5.231   7.199  0.1870  1.3228  1.6563
   15MOL   H271 4499   2.861   5.352   6.986 -0.8096  1.1784  0.0753
   15MOL   C272 4500   2.384   5.515   6.880  0.7548  0.5761 -0.1820
   15MOL   C273 4501   2.403   5.608   6.996 -0.3369 -0.1784  0.0897
   15MOL   C274 4502   2.406   5.759   6.949  0.3571  0.5236 -0.7477
   15MOL   C275 4503   2.531   5.823   6.947 -0.0078 -0.1096  0.2387
   15MOL   C276 4504   2.530   5.957   6.919  0.3298  0.2884 -0.6714
   15MOL   C277 4505   2.407   6.024   6.892  0.0071  0.5951 -0.5323
   15MOL   C278 4506   2.288   5.942   6.891  0.2506 -0.5876  0.4254
   15MOL   N279 4507   2.288   5.815   6.919  0.3612 -0.0924  0.5244
   15MOL   H280 4508   2.287   5.531   6.833 -0.3356 -1.1891  1.3923
   15MOL   H281 4509   2.462   5.539   6.807  1.5789 -0.9185  0.1753
   15MOL   H282 4510   2.501   5.589   7.041 -0.4967 -2.3067 -0.3843
   15MOL   H283 4511   2.624   5.777   6.976 -0.9269 -1.5680  0.9396
   15MOL   H284 4512   2.621   6.015   6.920  0.6240 -0.1720  1.3820
   15MOL   H285 4513   2.399   6.130   6.876 -0.0940  1.2109  3.2079
   15MOL   H286 4514   2.189   5.984   6.881  1.7068  3.1329  0.9315
   15MOL   C287 4515   2.313   5.578   7.113 -1.1988 -0.2307  0.0319
   15MOL   C288 4516   2.328   5.667   7.238  0.2238  0.6368  0.1906
   15MOL   C289 4517   2.460   5.665   7.307  0.4281  0.3271  0.3600
   15MOL   C290 4518   2.550   5.770   7.294 -0.0195  0.1205 -0.5326
   15MOL   C291 4519   2.664   5.770   7.378  0.8090 -0.0110 -0.1990
   15MOL   C292 4520   2.692   5.658   7.453 -0.3743 -0.0389  0.0772
   15MOL   C293 4521   2.609   5.544   7.440  0.3256 -0.4007  0.0199
   15MOL   N294 4522   2.496   5.549   7.369  0.1159  0.4548  0.3402
   15MOL   H295 4523   2.336   5.479   7.152 -0.1127 -1.0265 -2.5742
   15MOL   H296 4524   2.209   5.582   7.079 -1.0648 -0.1132 -0.3566
   15MOL   H297 4525   2.258   5.628   7.312  1.4647  0.1338  1.1168
   15MOL   H298 4526   2.524   5.854   7.232 -1.4795  2.5544  3.2464
   15MOL   H299 4527   2.728   5.857   7.376 -0.8253  1.1977 -0.8325
   15MOL   H300 4528   2.774   5.664   7.523  0.1574  1.0865 -0.6119
   15MOL   H301 4529   2.629   5.452   7.493  1.4561  0.3320  0.8953
   15MOL   H302 4530   2.281   5.764   7.217  1.7016  0.9820 -1.6297
   16MOL     C1 4531   2.951   1.099   5.729 -0.1593 -0.0024 -1.0352
   16MOL     C2 4532   2.902   0.995   5.631 -0.1624  0.3337 -0.0079
   16MOL     C3 4533   2.753   1.015   5.592  0.3393  0.3111  1.4487
   16MOL     C4 4534   2.658   0.923   5.631 -0.1855  0.1346  0.1606
   16MOL     C5 4535   2.521   0.951   5.592 -0.2866 -0.0904  0.4071
   16MOL     C6 4536   2.493   1.076   5.530  0.0806  0.8679 -0.8424
   16MOL     C7 4537   2.595   1.160   5.499  0.0508  0.0350 -0.9105
   16MOL     N8 4538   2.720   1.131   5.525 -0.7614  0.1237  0.1929
   16MOL     H9 4539   2.931   1.197   5.684 -0.6793 -0.0341 -0.8782
   16MOL    H10 4540   2.902   1.103   5.826  1.1964 -2.3253 -0.2254
   16MOL    H11 4541   2.910   0.896   5.676 -0.8152  0.5779  0.6585
   16MOL    H12 4542   2.674   0.827   5.678 -0.1497  0.3364  0.5592
   16MOL    H13 4543   2.444   0.886   5.631 -1.8219 -0.1368 -2.5792
   16MOL    H14 4544   2.390   1.104   5.514 -0.3714  0.7981  1.6031
   16MOL    H15 4545   2.585   1.249   5.439  1.7888  0.8876  0.0438
   16MOL    H16 4546   3.058   1.094   5.746 -0.0547  0.2222 -1.5857
   16MOL    C17 4547   2.995   0.996   5.512  0.1217 -0.1693 -0.5437
   16MOL    C18 4548   2.947   0.931   5.381 -0.1002 -0.0880 -0.3596
   16MOL    C19 4549   3.026   0.969   5.255  0.4747 -0.1376  0.9952
   16MOL    C20 4550   2.957   1.025   5.142  0.1467  0.5602 -0.5026
   16MOL    C21 4551   3.029   1.042   5.023 -0.3557  1.0656  0.6420
   16MOL    C22 4552   3.156   0.982   5.008 -0.1519 -0.3948  0.0493
   16MOL    C23 4553   3.210   0.935   5.128 -0.0175  0.2291 -0.6547
   16MOL    N24 4554   3.157   0.934   5.248 -0.2223  0.0158  0.3751
   16MOL    H25 4555   3.088   0.956   5.551 -1.1306 -0.5227  2.2396
   16MOL    H26 4556   3.013   1.098   5.480 -0.6650  0.2882  0.4430
   16MOL    H27 4557   2.847   0.972   5.368 -0.0820  0.5616  1.4513
   16MOL    H28 4558   2.852   1.049   5.142  0.3802  1.7101  1.1186
   16MOL    H29 4559   3.000   1.098   4.936  1.0589  1.6263  0.5158
   16MOL    H30 4560   3.199   0.983   4.909 -1.4032  0.1990 -0.4958
   16MOL    H31 4561   3.306   0.884   5.129 -0.0173  0.2231 -0.8333
   16MOL    C32 4562   2.930   0.780   5.408 -0.0297 -0.5744  0.1700
   16MOL    C33 4563   2.874   0.710   5.275  0.0442  0.3659  0.0195
   16MOL    C34 4564   2.877   0.554   5.282 -0.1896  0.0424 -0.0207
   16MOL    C35 4565   2.969   0.478   5.212 -0.0417  0.3184 -0.1304
   16MOL    C36 4566   2.970   0.338   5.234 -0.1597 -0.4441  0.2728
   16MOL    C37 4567   2.879   0.288   5.324  0.2105  0.0783 -0.8073
   16MOL    C38 4568   2.791   0.369   5.390  0.3859 -0.4515 -0.0050
   16MOL    N39 4569   2.783   0.501   5.368 -1.1213 -0.0651  0.5459
   16MOL    H40 4570   2.868   0.770   5.498 -0.8183  0.3191 -0.2542
   16MOL    H41 4571   3.022   0.733   5.441 -1.0400 -2.0043  1.0215
   16MOL    H42 4572   2.953   0.737   5.205  0.4019  1.1767  0.7109
   16MOL    H43 4573   3.045   0.516   5.145  1.1384 -1.6508  0.0470
   16MOL    H44 4574   3.040   0.266   5.195  0.2765 -0.0204  0.2720
   16MOL    H45 4575   2.888   0.182   5.338  1.9925  0.2911 -0.2063
   16MOL    H46 4576   2.739   0.342   5.481  1.0008 -0.9524  0.2067
   16MOL    C47 4577   2.728   0.741   5.223  0.0219  0.2227  0.2670
   16MOL    C48 4578   2.695   0.684   5.076  0.1218 -0.2683 -0.2614
   16MOL    C49 4579   2.551   0.721   5.044  0.0056 -0.2355  0.6541
   16MOL    C50 4580   2.452   0.622   5.021  0.7706 -0.0262  0.1861
   16MOL    C51 4581   2.325   0.648   4.980 -0.1952 -0.2472  0.6992
   16MOL    C52 4582   2.292   0.788   4.971  0.0669 -0.8213  0.4622
   16MOL    C53 4583   2.388   0.886   4.999  0.3719 -0.2248 -0.5732
   16MOL    N54 4584   2.515   0.848   5.033 -0.1688 -0.3024 -0.3922
   16MOL    H55 4585   2.728   0.850   5.215  1.0744  0.0936 -1.9535
   16MOL    H56 4586   2.657   0.717   5.302  0.4933 -1.1499  0.2884
   16MOL    H57 4587   2.704   0.576   5.073  1.0270 -0.3017  2.4265
   16MOL    H58 4588   2.494   0.523   5.025  0.5450 -0.1308 -0.0563
   16MOL    H59 4589   2.263   0.563   4.956 -1.4051  0.8183 -0.0857
   16MOL    H60 4590   2.194   0.807   4.928  0.1697 -0.6395  0.3087
   16MOL    H61 4591   2.371   0.992   4.987  1.8502  0.1350  0.4155
   16MOL    C62 4592   2.797   0.733   4.974  0.3330  0.2880 -0.6929
   16MOL    C63 4593   2.763   0.725   4.821  0.3288 -0.0509 -0.2956
   16MOL    C64 4594   2.856   0.820   4.742  0.2039 -0.6011  1.0665
   16MOL    C65 4595   2.816   0.947   4.687 -0.5476 -0.9447  0.6639
   16MOL    C66 4596   2.913   1.032   4.631 -0.6276 -0.6362 -0.6624
   16MOL    C67 4597   3.046   0.986   4.620 -0.3557  0.1689 -0.5249
   16MOL    C68 4598   3.076   0.856   4.669  0.6651  1.0839 -0.0513
   16MOL    N69 4599   2.987   0.780   4.741  0.6560 -0.0484 -0.0139
   16MOL    H70 4600   2.892   0.682   4.994 -0.3639 -2.0218 -2.9962
   16MOL    H71 4601   2.808   0.838   5.000  3.1375  0.1824 -1.3180
   16MOL    H72 4602   2.665   0.768   4.801  0.6162 -0.3410 -2.4509
   16MOL    H73 4603   2.714   0.980   4.699 -0.6788 -1.1294  0.0778
   16MOL    H74 4604   2.893   1.133   4.600  1.0192 -0.2693 -0.5832
   16MOL    H75 4605   3.121   1.030   4.556 -0.4366 -1.9598 -2.1583
   16MOL    H76 4606   3.176   0.815   4.663 -0.6661 -2.6712  1.6869
   16MOL    C77 4607   2.749   0.584   4.759  0.2540 -0.8343  0.3165
   16MOL    C78 4608   2.669   0.573   4.624  1.2745  0.0257  0.4909
   16MOL    C79 4609   2.699   0.433   4.559  0.8407  0.2527  0.0255
   16MOL    C80 4610   2.760   0.425   4.437  0.0781 -0.1433 -0.7710
   16MOL    C81 4611   2.752   0.305   4.376  0.4022 -0.0635 -0.0609
   16MOL    C82 4612   2.700   0.195   4.441 -0.2867  0.1949  0.4065
   16MOL    C83 4613   2.658   0.210   4.576  0.4768  0.5301  0.4973
   16MOL    N84 4614   2.652   0.331   4.633  0.5073  0.1381 -0.5191
   16MOL    H85 4615   2.700   0.531   4.841 -0.4997 -0.1898  0.2862
   16MOL    H86 4616   2.844   0.534   4.740 -0.4495 -1.1375 -2.6365
   16MOL    H87 4617   2.692   0.654   4.554 -0.3202 -1.1727 -1.4899
   16MOL    H88 4618   2.809   0.509   4.390 -1.7588  3.0686  2.8939
   16MOL    H89 4619   2.807   0.297   4.283  1.0840 -1.5786  0.4499
   16MOL    H90 4620   2.705   0.095   4.400  0.7900  0.4655 -0.1225
   16MOL    H91 4621   2.633   0.124   4.637 -0.8190 -0.8633 -1.8912
   16MOL    C92 4622   2.520   0.594   4.648 -0.6466  0.1256 -0.3617
   16MOL    C93 4623   2.429   0.640   4.537  0.0546 -0.6375  0.2939
   16MOL    C94 4624   2.423   0.546   4.419  0.2669  0.0764  0.3953
   16MOL    C95 4625   2.493   0.574   4.300  0.5962 -0.4794 -0.0584
   16MOL    C96 4626   2.516   0.479   4.201 -0.4207 -0.4279  0.0813
   16MOL    C97 4627   2.455   0.358   4.222  0.3738  0.1339  1.1644
   16MOL    C98 4628   2.372   0.330   4.338  0.7193 -0.7990  0.8530
   16MOL    N99 4629   2.361   0.422   4.434  0.2890 -0.6250 -0.2999
   16MOL   H100 4630   2.511   0.670   4.726 -0.4246 -0.9303  0.7148
   16MOL   H101 4631   2.473   0.502   4.682 -1.4642  0.2054 -1.2600
   16MOL   H102 4632   2.482   0.730   4.504 -3.7579  1.0641 -1.4482
   16MOL   H103 4633   2.548   0.665   4.279 -1.0130  0.7898  1.0232
   16MOL   H104 4634   2.575   0.509   4.115  0.0355  0.7368  0.7829
   16MOL   H105 4635   2.453   0.283   4.145 -1.8754  0.8527  0.4900
   16MOL   H106 4636   2.324   0.236   4.356  1.1279 -1.2749 -0.4261
   16MOL   C107 4637   2.289   0.684   4.587  0.1124  0.5605  0.6584
   16MOL   C108 4638   2.197   0.741   4.473  0.8978 -0.4204 -0.2498
   16MOL   C109 4639   2.059   0.771   4.543 -0.1686  0.0591 -0.1168
   16MOL   C110 4640   1.952   0.690   4.506  0.3396  0.2301  0.1873
   16MOL   C111 4641   1.824   0.729   4.558  0.4307  0.7034  0.0831
   16MOL   C112 4642   1.823   0.833   4.656 -0.0519 -0.1239  0.0415
   16MOL   C113 4643   1.940   0.894   4.703  0.1486  0.2578 -0.3039
   16MOL   N114 4644   2.055   0.862   4.639 -0.3353 -0.4844  0.3110
   16MOL   H115 4645   2.296   0.755   4.670  0.5102 -0.7162  1.7279
   16MOL   H116 4646   2.237   0.596   4.624 -3.2530  2.5017  0.7811
   16MOL   H117 4647   2.182   0.660   4.403  0.8395 -0.2982 -0.3785
   16MOL   H118 4648   1.973   0.617   4.430  0.6094 -0.7319  1.1718
   16MOL   H119 4649   1.734   0.680   4.525  1.7309 -2.1631  0.6212
   16MOL   H120 4650   1.728   0.869   4.692  1.0616 -0.1444  3.1296
   16MOL   H121 4651   1.957   0.971   4.777  2.0779  1.2694 -1.7420
   16MOL   C122 4652   2.264   0.858   4.399  0.4617 -0.1647 -0.2299
   16MOL   C123 4653   2.183   0.928   4.288  0.2472  0.6117 -0.0147
   16MOL   C124 4654   2.260   1.047   4.237 -0.4062 -0.2468 -0.5920
   16MOL   C125 4655   2.217   1.181   4.246  0.3965  0.2301  0.2889
   16MOL   C126 4656   2.291   1.284   4.183  0.3380  0.1419  0.2492
   16MOL   C127 4657   2.414   1.244   4.126 -0.2666  0.4206 -0.5382
   16MOL   C128 4658   2.454   1.109   4.130 -0.8270 -0.0853  0.5545
   16MOL   N129 4659   2.377   1.013   4.185 -0.0509  0.0555 -0.1651
   16MOL   H130 4660   2.357   0.815   4.363  0.3971  1.1968 -2.0817
   16MOL   H131 4661   2.285   0.924   4.483 -0.6331  1.2167 -1.0261
   16MOL   H132 4662   2.093   0.966   4.335 -1.6848 -0.1538 -2.9114
   16MOL   H133 4663   2.132   1.207   4.307 -0.5966  0.9168 -1.3678
   16MOL   H134 4664   2.263   1.386   4.202  2.3663  0.9553 -0.9623
   16MOL   H135 4665   2.483   1.323   4.099  0.4828  0.3745  1.1419
   16MOL   H136 4666   2.556   1.084   4.102 -0.8619  0.8443 -0.4429
   16MOL   C137 4667   2.142   0.833   4.164 -0.2214 -0.4383 -1.0949
   16MOL   C138 4668   2.089   0.906   4.043 -0.0656  0.7832 -0.1712
   16MOL   C139 4669   2.084   0.816   3.920  0.4730  0.0874  0.2766
   16MOL   C140 4670   2.151   0.841   3.804 -0.1424 -0.3995  0.8187
   16MOL   C141 4671   2.129   0.747   3.701  0.5775 -0.0547  1.2387
   16MOL   C142 4672   2.034   0.642   3.719  0.5094 -0.1143 -0.9021
   16MOL   C143 4673   1.972   0.629   3.837 -0.0809  0.1607 -0.9878
   16MOL   N144 4674   2.003   0.714   3.941 -0.3684  0.4479 -0.2398
   16MOL   H145 4675   2.069   0.758   4.197  0.3043 -0.4006  0.2033
   16MOL   H146 4676   2.224   0.772   4.125  0.8115 -0.3683  0.8911
   16MOL   H147 4677   2.152   0.989   4.012 -1.6309  2.0072 -0.1471
   16MOL   H148 4678   2.207   0.933   3.797  1.1666 -1.1984  0.6291
   16MOL   H149 4679   2.179   0.755   3.606 -0.3207 -1.5896  0.6252
   16MOL   H150 4680   2.026   0.566   3.643 -0.6071 -0.5553 -0.3638
   16MOL   H151 4681   1.899   0.551   3.847 -0.7464  0.9060  0.0764
   16MOL   C152 4682   1.953   0.969   4.071  0.3497 -0.2086 -0.1404
   16MOL   C153 4683   1.914   1.079   3.962  0.0290 -0.5917  0.3573
   16MOL   C154 4684   1.766   1.103   3.971 -0.0986 -0.1443 -0.6729
   16MOL   C155 4685   1.707   1.187   4.071 -0.1531  0.4113  0.5415
   16MOL   C156 4686   1.564   1.204   4.073  0.2128  0.5153 -0.0969
   16MOL   C157 4687   1.490   1.149   3.966 -0.0171 -0.5708 -0.5463
   16MOL   C158 4688   1.557   1.067   3.876  0.5368  0.7401 -0.1237
   16MOL   N159 4689   1.686   1.038   3.884  0.0998 -0.1359 -0.0070
   16MOL   H160 4690   1.942   1.023   4.165 -1.9413 -0.5587 -0.1587
   16MOL   H161 4691   1.872   0.895   4.075  1.4419 -1.3802  0.6202
   16MOL   H162 4692   1.941   1.038   3.865 -0.8761  1.0457 -0.5869
   16MOL   H163 4693   1.760   1.225   4.157  1.0812  2.3697 -1.0122
   16MOL   H164 4694   1.509   1.259   4.148 -3.4618 -2.0443 -0.7425
   16MOL   H165 4695   1.384   1.170   3.960  0.3896  1.5254 -0.9475
   16MOL   H166 4696   1.504   1.024   3.792  1.6384 -1.0701  0.0752
   16MOL   C167 4697   2.004   1.202   3.964  0.4473 -0.6367 -0.0018
   16MOL   C168 4698   1.964   1.324   3.877 -0.7601 -0.3340  0.5129
   16MOL   C169 4699   1.991   1.449   3.951  0.2851  0.1770  0.2433
   16MOL   C170 4700   1.890   1.527   3.995 -0.4574  0.6544  0.0824
   16MOL   C171 4701   1.915   1.642   4.069 -0.3320 -0.4462 -0.0640
   16MOL   C172 4702   2.047   1.680   4.097 -0.0775 -0.8679 -0.3598
   16MOL   C173 4703   2.148   1.601   4.042  0.0673  0.4824  0.0069
   16MOL   N174 4704   2.120   1.478   3.985  0.0981  0.1349  0.4197
   16MOL   H175 4705   2.108   1.174   3.945  1.0696  0.0029  2.3005
   16MOL   H176 4706   2.015   1.231   4.069 -0.8765 -0.8520  0.2021
   16MOL   H177 4707   1.856   1.314   3.866 -0.5770 -1.1349 -0.6971
   16MOL   H178 4708   1.789   1.491   3.979  1.5583 -4.5729 -1.8403
   16MOL   H179 4709   1.830   1.695   4.111  1.1784  1.1193  1.0891
   16MOL   H180 4710   2.070   1.774   4.145 -1.0228 -1.0025  0.3676
   16MOL   H181 4711   2.253   1.626   4.040  0.1441  0.0962 -1.5923
   16MOL   C182 4712   2.008   1.315   3.737  0.3870 -0.8951 -0.2237
   16MOL   C183 4713   2.158   1.350   3.710 -0.1439 -0.3795 -0.1280
   16MOL   C184 4714   2.208   1.253   3.599 -0.8925 -0.4387 -0.1579
   16MOL   C185 4715   2.304   1.153   3.628 -0.5884 -0.0604  0.4581
   16MOL   C186 4716   2.353   1.075   3.524  0.3051  0.3187 -0.1777
   16MOL   C187 4717   2.299   1.099   3.392  0.5968  0.1263 -0.1642
   16MOL   C188 4718   2.186   1.190   3.375  0.7632 -0.8098  0.4923
   16MOL   N189 4719   2.145   1.271   3.475 -0.8987  0.1636  0.7592
   16MOL   H190 4720   1.941   1.364   3.667  1.4478  0.3251 -0.4161
   16MOL   H191 4721   2.000   1.213   3.699  3.2821 -0.9954 -0.7309
   16MOL   H192 4722   2.213   1.316   3.799 -1.7180 -0.8258  0.6896
   16MOL   H193 4723   2.336   1.132   3.729 -3.0628 -0.4996  1.1975
   16MOL   H194 4724   2.427   0.997   3.533 -1.4680 -1.2295  1.3083
   16MOL   H195 4725   2.329   1.029   3.315  1.4119 -1.3066  1.4141
   16MOL   H196 4726   2.135   1.208   3.282  1.8315  0.4262  0.1351
   16MOL   C197 4727   2.181   1.504   3.682  0.0174 -0.2117  0.2467
   16MOL   C198 4728   2.312   1.544   3.610  0.0490 -0.8988 -0.1853
   16MOL   C199 4729   2.312   1.692   3.572  0.3861 -0.4304 -0.9651
   16MOL   C200 4730   2.327   1.730   3.444 -0.5175 -0.3179  0.0951
   16MOL   C201 4731   2.343   1.868   3.411 -0.5354 -0.0254 -0.4941
   16MOL   C202 4732   2.345   1.959   3.522 -1.0172  0.4440 -0.3771
   16MOL   C203 4733   2.333   1.910   3.656 -0.4737 -0.0220 -0.0314
   16MOL   N204 4734   2.317   1.777   3.679 -0.3846  0.3232 -0.2778
   16MOL   H205 4735   2.159   1.568   3.767 -0.6986 -0.8019  0.5155
   16MOL   H206 4736   2.106   1.527   3.606  2.1750 -0.0608 -1.8838
   16MOL   H207 4737   2.302   1.487   3.517  1.4425  0.1216 -0.9799
   16MOL   H208 4738   2.319   1.655   3.367 -0.5345  0.8642 -1.0597
   16MOL   H209 4739   2.367   1.904   3.312  0.3506  0.0438 -0.2636
   16MOL   H210 4740   2.373   2.062   3.504 -0.2066  0.4028  0.6243
   16MOL   H211 4741   2.335   1.972   3.744 -0.2476  0.0747 -0.1050
   16MOL   C212 4742   2.447   1.508   3.689 -0.4128  0.7724  0.9363
   16MOL   C213 4743   2.553   1.440   3.602  0.2679 -0.0799  0.0835
   16MOL   C214 4744   2.577   1.497   3.463  0.8669 -0.6197  0.1801
   16MOL   C215 4745   2.541   1.429   3.343 -0.2674  0.2002 -0.2738
   16MOL   C216 4746   2.558   1.498   3.218 -0.7663 -0.5300 -0.2600
   16MOL   C217 4747   2.604   1.630   3.214  0.0411 -0.3627  0.2189
   16MOL   C218 4748   2.636   1.691   3.335  0.3481 -0.5002 -0.1992
   16MOL   N219 4749   2.631   1.625   3.456 -0.2351 -0.6080 -0.6051
   16MOL   H220 4750   2.429   1.449   3.778  1.3084  0.4809  1.1130
   16MOL   H221 4751   2.491   1.588   3.747 -0.9062  1.6433  0.1293
   16MOL   H222 4752   2.508   1.345   3.573  2.9107 -1.1932 -0.5179
   16MOL   H223 4753   2.490   1.333   3.344  0.2696 -0.0844  1.2154
   16MOL   H224 4754   2.523   1.448   3.129 -3.1362  0.2162  0.2179
   16MOL   H225 4755   2.601   1.686   3.122 -0.3637  0.6433  0.8395
   16MOL   H226 4756   2.647   1.798   3.343 -2.3628  0.0401 -2.7369
   16MOL   C227 4757   2.685   1.406   3.669  0.2470 -0.5995  0.3585
   16MOL   C228 4758   2.691   1.322   3.794  0.3676  0.2072  0.0088
   16MOL   C229 4759   2.682   1.169   3.773 -0.1017  0.3124 -1.0919
   16MOL   C230 4760   2.586   1.090   3.838 -0.8926  0.7767 -0.9134
   16MOL   C231 4761   2.589   0.951   3.808  0.6707  0.2776 -0.5273
   16MOL   C232 4762   2.689   0.897   3.728  0.2458 -0.0900  0.2962
   16MOL   C233 4763   2.794   0.983   3.685  0.2229 -0.3492 -0.0585
   16MOL   N234 4764   2.793   1.116   3.708  0.2392  0.4883  0.4443
   16MOL   H235 4765   2.735   1.502   3.677 -1.2715  0.5385 -2.9295
   16MOL   H236 4766   2.749   1.359   3.594 -0.1169 -0.9953  0.2921
   16MOL   H237 4767   2.608   1.353   3.859  1.6066 -0.0879  1.7782
   16MOL   H238 4768   2.498   1.127   3.889  0.4355  2.2025  0.4002
   16MOL   H239 4769   2.517   0.880   3.846 -0.9673  1.4458 -1.4261
   16MOL   H240 4770   2.682   0.791   3.712  1.3704 -0.1695  0.3094
   16MOL   H241 4771   2.870   0.952   3.614  0.4662 -0.7324  0.3637
   16MOL   C242 4772   2.820   1.347   3.884  0.7236 -0.6894  0.2226
   16MOL   C243 4773   2.850   1.493   3.928 -0.5042  0.4058 -0.5656
   16MOL   C244 4774   2.727   1.566   3.972  0.3793  0.2846  0.2113
   16MOL   C245 4775   2.681   1.682   3.902  0.1753 -0.5272  0.4203
   16MOL   C246 4776   2.574   1.754   3.952  0.8957  0.0272  0.0614
   16MOL   C247 4777   2.507   1.696   4.059 -0.0051  0.4373 -0.2102
   16MOL   C248 4778   2.553   1.576   4.114  0.2123  0.0072 -0.0270
   16MOL   N249 4779   2.662   1.510   4.079  0.4651  0.3854  0.2396
   16MOL   H250 4780   2.910   1.311   3.835  0.4928 -1.0394  0.0537
   16MOL   H251 4781   2.819   1.294   3.979 -0.7034  0.0035  0.6042
   16MOL   H252 4782   2.897   1.537   3.840 -0.6954  0.4384 -0.6512
   16MOL   H253 4783   2.738   1.710   3.814 -0.2029 -1.8719 -0.2763
   16MOL   H254 4784   2.532   1.842   3.906 -2.0285 -0.4472  1.7501
   16MOL   H255 4785   2.418   1.740   4.101  1.0058  1.6172  0.7280
   16MOL   H256 4786   2.522   1.542   4.212  0.4599 -0.7046 -0.1930
   16MOL   C257 4787   2.965   1.496   4.030 -0.1047 -0.6636 -0.1738
   16MOL   C258 4788   3.007   1.637   4.082  0.1611  0.4878 -0.6350
   16MOL   C259 4789   3.088   1.613   4.202 -0.6503 -0.7359  0.4259
   16MOL   C260 4790   3.026   1.616   4.336  0.1105 -0.0176  0.5657
   16MOL   C261 4791   3.102   1.569   4.442 -0.1926 -0.1205  0.0910
   16MOL   C262 4792   3.236   1.524   4.419 -0.4489  0.0496  0.4289
   16MOL   C263 4793   3.286   1.534   4.284 -0.2283  0.5202  0.1815
   16MOL   N264 4794   3.211   1.572   4.186  0.6783 -0.2717 -0.1805
   16MOL   H265 4795   3.054   1.446   3.991  0.7373  0.5989  0.1133
   16MOL   H266 4796   2.933   1.434   4.114 -0.0883 -0.0141  0.3136
   16MOL   H267 4797   2.915   1.680   4.122 -0.4304 -2.0118  0.8210
   16MOL   H268 4798   2.924   1.642   4.362  0.2335  0.3989  0.6466
   16MOL   H269 4799   3.056   1.565   4.539  0.2231  0.8769  0.3413
   16MOL   H270 4800   3.304   1.493   4.497 -0.9924  1.1272  1.3456
   16MOL   H271 4801   3.384   1.500   4.256 -0.4435  1.6359 -2.0148
   16MOL   C272 4802   3.068   1.748   3.993  0.4510  0.3247 -0.4020
   16MOL   C273 4803   3.193   1.721   3.913 -0.5143  0.1259  0.1620
   16MOL   C274 4804   3.184   1.601   3.813  0.6944 -0.2181 -0.0200
   16MOL   C275 4805   3.107   1.596   3.697 -0.1816 -0.8055 -0.1445
   16MOL   C276 4806   3.108   1.485   3.609  0.1773 -0.8565 -0.2091
   16MOL   C277 4807   3.192   1.381   3.644 -0.2564 -0.4727 -0.5301
   16MOL   C278 4808   3.269   1.389   3.761 -0.2654  0.7815 -0.1259
   16MOL   N279 4809   3.263   1.497   3.845  0.4034  0.1729 -0.2271
   16MOL   H280 4810   3.075   1.838   4.054 -1.5577  0.9390 -1.0497
   16MOL   H281 4811   2.987   1.766   3.923 -0.0628  1.6173  0.5131
   16MOL   H282 4812   3.260   1.695   3.995  1.4068  2.8176 -0.4913
   16MOL   H283 4813   3.034   1.674   3.680  1.2839  0.5070 -0.5747
   16MOL   H284 4814   3.049   1.475   3.519  2.3441 -0.0043 -1.7572
   16MOL   H285 4815   3.190   1.291   3.585  0.9062 -0.9050  0.0740
   16MOL   H286 4816   3.307   1.291   3.784 -4.0744 -0.5854  0.6809
   16MOL   C287 4817   3.236   1.855   3.846  0.2997  0.2969 -0.0732
   16MOL   C288 4818   3.365   1.850   3.766  0.6903  0.8252 -0.2794
   16MOL   C289 4819   3.384   1.978   3.687 -0.3109  0.3068 -0.1659
   16MOL   C290 4820   3.452   2.089   3.745  0.9688  0.5422  0.2371
   16MOL   C291 4821   3.449   2.220   3.679 -0.1045 -0.0183 -0.1528
   16MOL   C292 4822   3.400   2.217   3.545  0.3735  0.0579  0.4821
   16MOL   C293 4823   3.338   2.099   3.497  0.0968  0.1062  0.4686
   16MOL   N294 4824   3.325   1.982   3.565 -0.5091 -0.0340 -0.5189
   16MOL   H295 4825   3.239   1.928   3.926  1.9831  0.9792 -0.7320
   16MOL   H296 4826   3.151   1.885   3.784 -2.0960  0.6878  3.2852
   16MOL   H297 4827   3.362   1.763   3.699 -1.5266  0.0807  0.7404
   16MOL   H298 4828   3.488   2.088   3.847  0.2228 -2.3153  0.5044
   16MOL   H299 4829   3.496   2.308   3.718 -2.7973  1.7985 -0.8791
   16MOL   H300 4830   3.407   2.310   3.490 -1.8387  1.1757  1.9773
   16MOL   H301 4831   3.308   2.078   3.396  1.2198 -0.5900  0.2677
   16MOL   H302 4832   3.448   1.833   3.834 -0.9962  0.9064  1.8500
   17MOL     C1 4833   4.955   0.371   5.139  0.4814 -0.5460 -0.5148
   17MOL     C2 4834   4.850   0.380   5.249 -0.2103 -0.5576 -0.2390
   17MOL     C3 4835   4.717   0.418   5.195 -0.5784  0.4415 -0.5239
   17MOL     C4 4836   4.680   0.552   5.198  0.5886 -0.3731 -0.0827
   17MOL     C5 4837   4.565   0.595   5.135  0.8817  0.1297 -0.0705
   17MOL     C6 4838   4.497   0.503   5.063 -0.1204  0.0517  0.0785
   17MOL     C7 4839   4.546   0.376   5.054  0.1315 -0.2075  0.9372
   17MOL     N8 4840   4.646   0.328   5.126 -0.4067  0.1766 -0.1523
   17MOL     H9 4841   4.927   0.290   5.072 -2.0832  1.7172 -2.2747
   17MOL    H10 4842   4.966   0.464   5.082  0.3342 -0.4788 -0.4337
   17MOL    H11 4843   4.878   0.462   5.315 -0.4858  0.8712 -1.8616
   17MOL    H12 4844   4.739   0.633   5.240 -0.2748 -0.0022  0.4162
   17MOL    H13 4845   4.526   0.696   5.143  0.0371 -0.1113 -0.9362
   17MOL    H14 4846   4.404   0.531   5.015  1.3336  2.3960 -1.4554
   17MOL    H15 4847   4.494   0.308   4.988  1.8531  1.0182 -1.7562
   17MOL    H16 4848   5.056   0.350   5.175  0.2230 -0.5325  0.2327
   17MOL    C17 4849   4.836   0.250   5.341  1.3227 -0.0671  0.1252
   17MOL    C18 4850   4.955   0.214   5.424 -0.8322  0.5545  0.3194
   17MOL    C19 4851   5.011   0.328   5.507 -0.1744  0.5935  0.0894
   17MOL    C20 4852   5.147   0.358   5.507  0.7113 -0.4291  0.5533
   17MOL    C21 4853   5.197   0.438   5.618 -0.0734  0.1348 -0.0946
   17MOL    C22 4854   5.103   0.494   5.701  0.1669 -0.5044 -0.0616
   17MOL    C23 4855   4.964   0.475   5.675 -0.1222 -0.5269  0.2531
   17MOL    N24 4856   4.921   0.382   5.592 -0.6104 -0.1426  0.3565
   17MOL    H25 4857   4.817   0.161   5.280 -2.7077  0.6582  0.1852
   17MOL    H26 4858   4.745   0.258   5.401  0.1485  2.5081 -1.8977
   17MOL    H27 4859   5.033   0.193   5.351 -0.0036  1.1366  1.0254
   17MOL    H28 4860   5.220   0.319   5.439 -0.7139 -1.2250 -0.5357
   17MOL    H29 4861   5.300   0.463   5.637 -0.3686  1.1177  0.2674
   17MOL    H30 4862   5.128   0.550   5.789 -0.0853 -2.3697  1.2242
   17MOL    H31 4863   4.901   0.536   5.738  0.8708 -0.7353  1.4486
   17MOL    C32 4864   4.930   0.086   5.510 -0.3842  0.2046 -0.3385
   17MOL    C33 4865   5.034   0.039   5.610 -0.2669 -0.7377 -0.2975
   17MOL    C34 4866   4.977   8.071   5.690  0.3904  0.0752  0.0024
   17MOL    C35 4867   4.947   8.081   5.830 -0.2038  0.4305 -0.0169
   17MOL    C36 4868   4.906   7.968   5.898 -0.9316 -0.3121 -0.1875
   17MOL    C37 4869   4.897   7.848   5.835  0.3258 -0.1421 -0.4481
   17MOL    C38 4870   4.924   7.845   5.695  0.3786 -0.6671  0.5162
   17MOL    N39 4871   4.966   7.952   5.626 -0.1937  0.3691  0.7020
   17MOL    H40 4872   4.902   0.004   5.443  0.2217 -0.5154  0.2816
   17MOL    H41 4873   4.837   0.107   5.564 -0.3581  0.4374 -0.3840
   17MOL    H42 4874   5.053   0.105   5.694 -1.2853  0.1252 -0.7379
   17MOL    H43 4875   4.966   0.024   5.878  3.0994 -0.9091  1.4354
   17MOL    H44 4876   4.891   7.970   6.005  1.5351 -0.3688  0.2074
   17MOL    H45 4877   4.866   7.761   5.892 -0.5807  0.9071  0.6805
   17MOL    H46 4878   4.920   7.751   5.643 -1.5377 -0.5188  0.3746
   17MOL    C47 4879   5.167   0.010   5.533  0.7613  0.5444  0.3286
   17MOL    C48 4880   5.268   8.064   5.602  0.5518  0.3667  0.6913
   17MOL    C49 4881   5.386   8.033   5.504 -0.7578  0.5146  0.2067
   17MOL    C50 4882   5.400   7.910   5.437  0.1899  0.3297 -0.2723
   17MOL    C51 4883   5.497   7.902   5.332  0.0574  0.1417 -0.2006
   17MOL    C52 4884   5.583   8.012   5.307  0.5808  0.6426  0.5586
   17MOL    C53 4885   5.553   8.134   5.371 -0.2403  0.5619 -0.7877
   17MOL    N54 4886   5.459   8.140   5.469 -0.5774  1.0315 -0.1456
   17MOL    H55 4887   5.215   0.103   5.505  1.0251  0.4718  0.5395
   17MOL    H56 4888   5.137   8.116   5.439  0.9215  1.2861 -0.0767
   17MOL    H57 4889   5.219   7.968   5.619 -0.6403  0.5911 -1.3692
   17MOL    H58 4890   5.352   7.817   5.461  0.1380 -0.1107 -2.0071
   17MOL    H59 4891   5.513   7.803   5.292  0.8229  0.9720 -2.0256
   17MOL    H60 4892   5.654   8.013   5.225  0.3710  2.9319  0.3724
   17MOL    H61 4893   5.597   0.078   5.346 -1.3497  0.9722 -1.1720
   17MOL    C62 4894   5.323   8.111   5.736  0.2869 -0.0706 -0.0373
   17MOL    C63 4895   5.450   8.032   5.804  0.0632  0.4387  0.4868
   17MOL    C64 4896   5.511   8.121   5.909  0.7583  0.1593  0.3980
   17MOL    C65 4897   5.636   0.031   5.878 -0.3222  0.2937 -0.4316
   17MOL    C66 4898   5.692   0.122   5.965 -0.0853  0.0139  0.5295
   17MOL    C67 4899   5.621   0.160   6.077 -0.5374  0.2916 -0.7053
   17MOL    C68 4900   5.499   0.101   6.101  0.6842 -0.8615 -0.2015
   17MOL    N69 4901   5.447   0.008   6.022 -0.6550  0.4992  0.7327
   17MOL    H70 4902   5.241   8.130   5.806  1.4523 -0.6838  1.5190
   17MOL    H71 4903   5.361   0.056   5.705  1.8312 -0.3744  0.8661
   17MOL    H72 4904   5.531   8.006   5.736 -1.1385  0.2585 -0.8919
   17MOL    H73 4905   5.684   0.002   5.785  0.3380 -0.3262  0.0966
   17MOL    H74 4906   5.795   0.149   5.947 -0.0436  0.1896  1.0298
   17MOL    H75 4907   5.674   0.225   6.145 -1.5091  1.0649 -0.6848
   17MOL    H76 4908   5.447   0.119   6.194  0.6988 -1.2616 -0.1155
   17MOL    C77 4909   5.404   7.900   5.865 -0.0652  0.2552  0.0330
   17MOL    C78 4910   5.505   7.794   5.898  0.6371 -0.2540  0.2217
   17MOL    C79 4911   5.561   7.706   5.785  0.2575  0.7051 -0.3583
   17MOL    C80 4912   5.536   7.572   5.765  0.3343  0.2986 -0.7536
   17MOL    C81 4913   5.583   7.505   5.651  0.5155  1.3187  0.0133
   17MOL    C82 4914   5.659   7.572   5.554  0.2703 -0.4900 -0.2036
   17MOL    C83 4915   5.698   7.704   5.588 -0.6515  0.4603 -0.4207
   17MOL    N84 4916   5.642   7.767   5.692  0.4996  0.5386 -0.6701
   17MOL    H85 4917   5.332   7.861   5.793  0.5664 -0.4748 -0.2196
   17MOL    H86 4918   5.340   7.915   5.952  0.9411  1.2420  0.6211
   17MOL    H87 4919   5.442   7.725   5.953  0.4411  0.6460  1.1524
   17MOL    H88 4920   5.472   7.523   5.837  0.3396  2.1917  0.5703
   17MOL    H89 4921   5.562   7.400   5.639  1.1629  1.3096 -1.0557
   17MOL    H90 4922   5.691   7.518   5.466  0.4269 -0.5495 -0.1090
   17MOL    H91 4923   5.750   7.769   5.519 -0.0892  1.0296  0.5299
   17MOL    C92 4924   5.627   7.840   5.989 -0.4998 -0.0429  0.1008
   17MOL    C93 4925   5.608   7.866   6.138 -0.5234  0.4195 -0.1749
   17MOL    C94 4926   5.511   7.764   6.199  0.0982  0.9866  0.1832
   17MOL    C95 4927   5.390   7.805   6.264  0.1308  0.3858 -0.8655
   17MOL    C96 4928   5.305   7.713   6.327  0.3380  0.3647 -0.3392
   17MOL    C97 4929   5.336   7.577   6.304  0.0715 -0.2339  0.3563
   17MOL    C98 4930   5.454   7.544   6.235 -0.7492 -0.0767 -0.0270
   17MOL    N99 4931   5.544   7.642   6.196 -0.2108  0.9613 -0.2726
   17MOL   H100 4932   5.679   7.922   5.939  0.1302 -0.9551 -0.7713
   17MOL   H101 4933   5.700   7.760   5.975  2.2464  2.8111 -2.5163
   17MOL   H102 4934   5.545   7.954   6.146 -1.0235 -0.0714  1.3562
   17MOL   H103 4935   5.360   7.909   6.262 -0.2480  0.2575 -2.8549
   17MOL   H104 4936   5.212   7.749   6.368  0.8489 -0.6459  1.7937
   17MOL   H105 4937   5.261   7.511   6.345 -0.3593  1.5998  2.5998
   17MOL   H106 4938   5.484   7.441   6.219 -3.0325 -1.1268  2.0811
   17MOL   C107 4939   5.742   7.883   6.214  0.2535  0.2347 -0.1263
   17MOL   C108 4940   5.750   8.018   6.288 -0.5780  0.0352  0.5134
   17MOL   C109 4941   5.641   8.028   6.398  0.3451 -0.1839  0.0167
   17MOL   C110 4942   5.643   7.929   6.501  0.3216  0.1326  0.2735
   17MOL   C111 4943   5.541   7.941   6.599 -0.1193  0.3670  0.6143
   17MOL   C112 4944   5.452   8.050   6.598  0.1274  0.1971  0.4074
   17MOL   C113 4945   5.466   8.147   6.502 -0.4488  0.1870 -0.2334
   17MOL   N114 4946   5.557   8.133   6.405  0.2707  0.4094  0.4774
   17MOL   H115 4947   5.822   7.889   6.141  1.9160 -3.2615  1.3146
   17MOL   H116 4948   5.765   7.800   6.281  0.3178  2.3893  2.6330
   17MOL   H117 4949   5.716   8.093   6.217 -1.0047 -1.2901 -0.6817
   17MOL   H118 4950   5.719   7.852   6.507 -0.6147 -1.0066 -1.9042
   17MOL   H119 4951   5.542   7.858   6.669 -0.6881 -0.4050 -0.2851
   17MOL   H120 4952   5.369   8.059   6.667  0.1631 -0.3682  0.5260
   17MOL   H121 4953   5.412   0.088   6.508  1.7989  1.7002 -2.3194
   17MOL   C122 4954   5.890   8.043   6.346 -0.5006 -0.5445 -0.1213
   17MOL   C123 4955   6.021   8.007   6.260  0.7037 -0.5680 -0.4197
   17MOL   C124 4956   6.035   8.111   6.154 -0.5989 -0.3454  0.0799
   17MOL   C125 4957   6.039   8.068   6.018 -0.5898 -0.5890  0.3393
   17MOL   C126 4958   6.069   0.011   5.917 -0.2574  0.0473  0.0499
   17MOL   C127 4959   6.078   0.146   5.951  0.0340  0.9393  0.8497
   17MOL   C128 4960   6.086   0.176   6.088 -0.0938  0.7600  0.3408
   17MOL   N129 4961   6.066   0.088   6.189  0.2183 -0.3960  0.5907
   17MOL   H130 4962   5.891   7.997   6.445  1.3720 -0.0624  0.1120
   17MOL   H131 4963   5.895   8.148   6.376 -1.2827 -1.2595  2.6541
   17MOL   H132 4964   5.998   7.908   6.220 -2.5876  1.0374 -2.8239
   17MOL   H133 4965   6.026   7.965   5.990 -0.9754 -1.2731  2.9222
   17MOL   H134 4966   6.050   8.126   5.817  0.2782  0.2844 -0.1389
   17MOL   H135 4967   6.085   0.225   5.877 -2.6120 -0.6122 -1.1767
   17MOL   H136 4968   6.094   0.278   6.120 -0.6556  0.4242  1.5856
   17MOL   C137 4969   6.147   7.997   6.352 -0.5358 -0.3066  0.0721
   17MOL   C138 4970   6.146   7.898   6.475 -0.1620 -0.1647 -0.2699
   17MOL   C139 4971   6.117   7.756   6.425  1.2079  0.4675  0.1654
   17MOL   C140 4972   6.224   7.666   6.407  0.8405  0.2733  0.2939
   17MOL   C141 4973   6.194   7.529   6.392 -0.5726 -0.0286  0.5662
   17MOL   C142 4974   6.060   7.492   6.382  0.4053  0.5582 -1.1500
   17MOL   C143 4975   5.963   7.592   6.387  0.4726 -0.7134 -0.2597
   17MOL   N144 4976   5.990   7.722   6.410 -0.0701 -0.0257 -0.6211
   17MOL   H145 4977   6.171   8.100   6.379  0.4851 -0.2136 -1.1437
   17MOL   H146 4978   6.237   7.975   6.295 -1.0582  0.7271 -1.1739
   17MOL   H147 4979   6.073   7.936   6.546 -0.8480 -0.9626 -0.5337
   17MOL   H148 4980   6.328   7.693   6.399  0.8939  0.2456  0.8941
   17MOL   H149 4981   6.265   7.451   6.370 -0.1727  1.3167 -3.2919
   17MOL   H150 4982   6.044   7.392   6.345 -2.4686  0.0573  1.2307
   17MOL   H151 4983   5.861   7.559   6.374  1.1792 -2.9488 -0.2950
   17MOL   C152 4984   6.276   7.915   6.559  0.5069  0.4630 -0.0381
   17MOL   C153 4985   6.296   8.058   6.618 -0.1646  0.4699  0.3082
   17MOL   C154 4986   6.172   8.130   6.667  0.4823 -0.3843  0.3436
   17MOL   C155 4987   6.150   0.120   6.631 -0.1267  0.0642  0.5674
   17MOL   C156 4988   6.037   0.188   6.682 -0.7630 -0.2265 -0.0808
   17MOL   C157 4989   5.955   0.116   6.770 -0.3495 -0.7091 -0.6790
   17MOL   C158 4990   5.994   8.138   6.816 -0.0547  0.5984 -0.0187
   17MOL   N159 4991   6.093   8.068   6.754 -0.5628 -0.1018 -0.3310
   17MOL   H160 4992   6.360   7.882   6.498  0.9072 -0.9545  1.2731
   17MOL   H161 4993   6.284   7.840   6.638  0.8154 -0.4627 -0.9425
   17MOL   H162 4994   6.326   8.130   6.542 -0.8792 -0.7392 -1.1497
   17MOL   H163 4995   6.214   0.159   6.553 -2.2425 -2.3965 -2.5092
   17MOL   H164 4996   6.008   0.287   6.653 -0.0651  0.0072  0.0055
   17MOL   H165 4997   5.867   0.159   6.814  1.1354  1.3926  0.3135
   17MOL   H166 4998   5.931   8.084   6.884  1.3842 -2.4872 -1.0515
   17MOL   C167 4999   6.403   8.057   6.729  0.4511  0.1102 -0.1578
   17MOL   C168 5000   6.544   8.028   6.681 -0.0463 -0.2367 -0.2367
   17MOL   C169 5001   6.599   8.145   6.587 -0.0256 -0.1407 -0.2169
   17MOL   C170 5002   6.661   0.102   6.645 -0.2473 -0.8111  0.2011
   17MOL   C171 5003   6.706   0.209   6.560  0.3532 -0.2389  0.0240
   17MOL   C172 5004   6.681   0.200   6.421 -0.0137 -0.6995  0.5072
   17MOL   C173 5005   6.611   0.086   6.370  0.4986  0.3570 -0.1658
   17MOL   N174 5006   6.573   8.140   6.451  0.0919  0.5133 -0.2546
   17MOL   H175 5007   6.368   7.979   6.797  1.2528 -0.0010  0.1293
   17MOL   H176 5008   6.411   0.001   6.781 -1.2615 -0.1319  0.5959
   17MOL   H177 5009   6.536   7.936   6.623 -1.7978  0.3057 -0.9047
   17MOL   H178 5010   6.685   0.105   6.750 -0.0024 -2.4958  0.2154
   17MOL   H179 5011   6.745   0.303   6.595 -0.8811  0.6701 -0.9780
   17MOL   H180 5012   6.707   0.283   6.356 -0.2668 -1.1777 -0.2109
   17MOL   H181 5013   6.586   0.072   6.266  1.2977  0.2554 -0.3449
   17MOL   C182 5014   6.645   7.976   6.792  0.0644  0.5082 -0.5225
   17MOL   C183 5015   6.792   7.975   6.758 -0.0877 -0.1667 -0.0998
   17MOL   C184 5016   6.881   7.948   6.879 -0.2276  0.0433  0.0768
   17MOL   C185 5017   6.984   8.035   6.918 -0.0431 -0.1878 -0.3984
   17MOL   C186 5018   7.070   8.000   7.028 -0.1163  0.1126 -0.6333
   17MOL   C187 5019   7.033   7.886   7.103  0.6086  0.0647 -0.8429
   17MOL   C188 5020   6.931   7.798   7.052 -0.2775 -0.6386 -0.5918
   17MOL   N189 5021   6.863   7.832   6.941 -0.1276 -0.3610 -0.1949
   17MOL   H190 5022   6.613   7.880   6.831 -1.1059  1.3708  0.6909
   17MOL   H191 5023   6.622   8.042   6.876 -1.3073 -0.7069  0.0668
   17MOL   H192 5024   6.824   8.073   6.723 -0.8240 -0.3470 -1.2840
   17MOL   H193 5025   7.009   8.123   6.861  1.5037 -1.3826 -1.6005
   17MOL   H194 5026   7.154   8.063   7.054 -1.0062 -0.9036  5.3987
   17MOL   H195 5027   7.085   7.858   7.194  2.9147  4.8144 -0.5393
   17MOL   H196 5028   6.915   7.702   7.098  1.3854 -0.2630  0.8272
   17MOL   C197 5029   6.829   7.864   6.657 -0.2750 -0.4603  0.0470
   17MOL   C198 5030   6.976   7.870   6.608  0.2530  0.0866 -0.1535
   17MOL   C199 5031   7.002   7.750   6.517  0.2614  0.4963 -0.5843
   17MOL   C200 5032   7.089   7.651   6.563  0.8373  0.9958  0.4997
   17MOL   C201 5033   7.126   7.545   6.472  0.6088 -0.2458  0.3378
   17MOL   C202 5034   7.061   7.547   6.346 -0.2083 -0.2609  0.2037
   17MOL   C203 5035   6.980   7.654   6.311  1.0192 -0.0476  0.4504
   17MOL   N204 5036   6.941   7.751   6.392 -0.4805 -0.7292 -0.3981
   17MOL   H205 5037   6.762   7.869   6.572 -0.2965  1.8970  0.1722
   17MOL   H206 5038   6.796   7.767   6.695  0.5138 -0.7516 -0.0002
   17MOL   H207 5039   7.042   7.868   6.694 -1.2703  0.1277  1.0458
   17MOL   H208 5040   7.142   7.651   6.657  0.7867 -0.8520  0.5471
   17MOL   H209 5041   7.194   7.465   6.495  3.5544  1.8572 -0.6260
   17MOL   H210 5042   7.083   7.475   6.269 -0.6383  3.1758 -3.2570
   17MOL   H211 5043   6.931   7.655   6.214  0.6011 -0.7302  0.6488
   17MOL   C212 5044   7.012   7.999   6.532  0.3392 -0.2566  0.0051
   17MOL   C213 5045   7.167   8.019   6.511  0.2477  0.1290 -0.1407
   17MOL   C214 5046   7.229   8.061   6.643 -0.2583  0.4221 -0.0468
   17MOL   C215 5047   7.267   7.964   6.741  0.0602  0.2994  0.5089
   17MOL   C216 5048   7.340   8.014   6.852  0.3407 -0.5397  0.7981
   17MOL   C217 5049   7.359   0.000   6.866 -0.5195  0.2063 -0.1135
   17MOL   C218 5050   7.322   0.087   6.761  0.6007 -0.6943  0.0530
   17MOL   N219 5051   7.261   0.039   6.656 -0.0508  0.7369 -0.4526
   17MOL   H220 5052   6.976   8.080   6.596 -0.7263 -1.1323  0.5339
   17MOL   H221 5053   6.963   8.002   6.435 -1.6893  0.7260  1.0184
   17MOL   H222 5054   7.164   8.109   6.450  2.5437  1.1778  1.2140
   17MOL   H223 5055   7.248   7.859   6.728  4.9180 -0.4765 -1.8056
   17MOL   H224 5056   7.376   7.936   6.919  0.8493 -1.4072 -0.4753
   17MOL   H225 5057   7.426   0.033   6.945  0.4090  1.3212 -1.3291
   17MOL   H226 5058   7.344   0.192   6.770  0.9984 -0.9854  2.9528
   17MOL   C227 5059   7.249   7.916   6.432  0.1961 -0.2539  0.2056
   17MOL   C228 5060   7.381   7.964   6.369  0.1333  0.8308  0.0606
   17MOL   C229 5061   7.486   8.008   6.473  0.7875 -0.3526 -0.1407
   17MOL   C230 5062   7.557   8.130   6.459 -0.3179 -0.2629  0.0668
   17MOL   C231 5063   7.661   0.005   6.554  1.2301  0.6427 -0.0204
   17MOL   C232 5064   7.692   8.061   6.652  0.5985 -0.1892  0.2894
   17MOL   C233 5065   7.621   7.939   6.654  0.4636  0.1776 -0.4104
   17MOL   N234 5066   7.519   7.915   6.569  0.2822 -0.2472 -0.1821
   17MOL   H235 5067   7.191   7.894   6.342 -0.2169  0.4064  0.3083
   17MOL   H236 5068   7.257   7.829   6.497 -2.1789 -1.6437 -1.2741
   17MOL   H237 5069   7.362   8.051   6.306  0.7191  1.4443  0.7150
   17MOL   H238 5070   7.532   0.045   6.378  3.3728  0.2152 -0.7331
   17MOL   H239 5071   7.725   0.091   6.543  0.2686  1.4085  0.2523
   17MOL   H240 5072   7.775   8.092   6.714  1.4277  0.8018 -1.2840
   17MOL   H241 5073   7.652   7.859   6.720 -2.2823 -0.6430 -0.0630
   17MOL   C242 5074   7.442   7.848   6.292  0.3251 -0.4115 -0.0411
   17MOL   C243 5075   7.376   7.800   6.165  0.1031 -0.6387  0.4188
   17MOL   C244 5076   7.309   7.907   6.084 -0.4054 -0.2438  0.5345
   17MOL   C245 5077   7.191   7.878   6.009 -0.3825 -0.0133  0.8319
   17MOL   C246 5078   7.143   7.966   5.909 -0.5049 -0.2789 -0.1338
   17MOL   C247 5079   7.223   8.074   5.883  0.2910  0.1022  0.2337
   17MOL   C248 5080   7.341   8.096   5.953 -0.0268  0.0832  0.2910
   17MOL   N249 5081   7.385   8.018   6.060  0.3604 -0.4489  0.0929
   17MOL   H250 5082   7.459   7.770   6.367 -0.7175 -0.1354  0.4801
   17MOL   H251 5083   7.532   7.901   6.261  1.6865 -0.9224  2.8095
   17MOL   H252 5084   7.301   7.727   6.195 -0.0418 -0.1545  1.2688
   17MOL   H253 5085   7.128   7.791   6.021 -0.1931 -0.2090  0.4005
   17MOL   H254 5086   7.060   7.943   5.843 -1.1622  2.3664 -0.2934
   17MOL   H255 5087   7.206   8.139   5.798 -3.4333  1.9576  2.2835
   17MOL   H256 5088   7.403   0.029   5.931 -1.0678  0.3287 -1.8334
   17MOL   C257 5089   7.477   7.733   6.071  0.4052  0.0396 -0.1500
   17MOL   C258 5090   7.552   7.599   6.117 -0.3460 -0.2941 -0.0398
   17MOL   C259 5091   7.454   7.491   6.166  0.3172 -0.2728  0.3022
   17MOL   C260 5092   7.453   7.446   6.300  0.0776  0.3118 -0.1454
   17MOL   C261 5093   7.367   7.344   6.344 -0.3131 -0.0588 -0.7297
   17MOL   C262 5094   7.288   7.281   6.246  0.1447  0.3617 -0.6086
   17MOL   C263 5095   7.289   7.338   6.119 -0.2705 -0.3792  0.6369
   17MOL   N264 5096   7.364   7.446   6.078 -0.4000 -0.4080 -0.0883
   17MOL   H265 5097   7.546   7.816   6.054 -3.5476  3.3479 -0.8424
   17MOL   H266 5098   7.427   7.713   5.977  1.7745  1.4181 -1.2100
   17MOL   H267 5099   7.616   7.634   6.198 -0.6881 -1.2269  0.6451
   17MOL   H268 5100   7.511   7.503   6.371  1.6476 -0.6201 -0.6546
   17MOL   H269 5101   7.358   7.311   6.446 -0.8104 -0.1714 -0.8053
   17MOL   H270 5102   7.213   7.208   6.272  0.7808 -0.3108 -0.6425
   17MOL   H271 5103   7.220   7.298   6.046 -1.2824 -1.1777  2.0290
   17MOL   C272 5104   7.644   7.543   6.010  0.1956  0.1062  0.5026
   17MOL   C273 5105   7.751   7.441   6.059  0.4632  0.7587  0.2274
   17MOL   C274 5106   7.818   7.354   5.945 -0.1771  0.2005 -0.9237
   17MOL   C275 5107   7.803   7.218   5.925  0.4693  0.0671 -0.3727
   17MOL   C276 5108   7.874   7.151   5.826 -0.4241 -0.2041  0.4781
   17MOL   C277 5109   7.952   7.222   5.736 -0.3094  0.5320  0.0177
   17MOL   C278 5110   7.955   7.363   5.754  0.0026 -0.3379 -0.3789
   17MOL   N279 5111   7.892   7.426   5.855 -0.2358  0.2625 -0.2753
   17MOL   H280 5112   7.691   7.629   5.962 -1.1243  0.7262  0.2845
   17MOL   H281 5113   7.590   7.504   5.924 -0.4879 -0.2109  1.0659
   17MOL   H282 5114   7.695   7.372   6.122  1.2097 -0.7792 -0.7555
   17MOL   H283 5115   7.735   7.162   5.987  1.5897  0.7927  1.5554
   17MOL   H284 5116   7.869   7.043   5.817 -2.2818 -0.1624  0.9233
   17MOL   H285 5117   8.011   7.174   5.659  1.1905  1.4012  0.5987
   17MOL   H286 5118   8.022   7.431   5.703 -1.1588 -0.9098 -2.7129
   17MOL   C287 5119   7.859   7.507   6.150  0.0285  0.8645  0.1380
   17MOL   C288 5120   7.921   7.415   6.256  0.6211 -0.4482 -0.1115
   17MOL   C289 5121   7.843   7.364   6.372 -0.5716  0.0168  0.3360
   17MOL   C290 5122   7.752   7.258   6.359 -0.0213 -0.0368 -0.4557
   17MOL   C291 5123   7.676   7.220   6.474  0.4617 -0.2791  0.1036
   17MOL   C292 5124   7.692   7.292   6.592 -0.6185  0.8428 -0.8524
   17MOL   C293 5125   7.781   7.394   6.594 -0.2643  0.1271 -0.3300
   17MOL   N294 5126   7.851   7.437   6.487  0.6081  0.6463  0.0762
   17MOL   H295 5127   7.818   7.584   6.216  0.6398  0.8208  0.5738
   17MOL   H296 5128   7.938   7.547   6.087 -0.2039  0.0735 -0.6656
   17MOL   H297 5129   8.004   7.475   6.292  0.0604  0.3432 -0.1379
   17MOL   H298 5130   7.739   7.196   6.272  0.4997  0.0446 -0.5924
   17MOL   H299 5131   7.603   7.140   6.476  0.5790 -0.4298 -1.1561
   17MOL   H300 5132   7.633   7.269   6.680 -1.2085  0.2295 -1.4016
   17MOL   H301 5133   7.794   7.455   6.682  1.1470  1.7157 -1.6139
   17MOL   H302 5134   7.965   7.328   6.207  0.4843 -0.3191 -0.4649
   18MOL     C1 5135   4.761   5.416   1.670  0.2424 -0.1532 -0.3979
   18MOL     C2 5136   4.905   5.378   1.636  0.3435 -0.9160 -0.0420
   18MOL     C3 5137   4.988   5.340   1.764  0.3264 -0.3976  0.1158
   18MOL     C4 5138   5.097   5.421   1.809  0.4464  0.3694 -0.4234
   18MOL     C5 5139   5.166   5.385   1.923 -0.3470 -0.0918  0.6039
   18MOL     C6 5140   5.137   5.260   1.982  0.2972 -0.4172  0.1699
   18MOL     C7 5141   5.024   5.190   1.937 -0.3267 -0.1462 -0.0313
   18MOL     N8 5142   4.948   5.232   1.835  0.1039 -0.1365 -0.1713
   18MOL     H9 5143   4.692   5.423   1.585 -1.2957  1.2636  0.9147
   18MOL    H10 5144   4.704   5.348   1.733  0.2349  0.8399  0.6829
   18MOL    H11 5145   4.961   5.458   1.588 -0.1241 -1.0903 -0.8906
   18MOL    H12 5146   5.128   5.511   1.758 -1.5012  1.1449 -0.2713
   18MOL    H13 5147   5.237   5.451   1.970  0.7352 -1.0480  0.3480
   18MOL    H14 5148   5.191   5.225   2.069 -0.6750 -0.6405  0.6909
   18MOL    H15 5149   4.991   5.104   1.993  0.4382 -0.8700 -0.6672
   18MOL    H16 5150   4.752   5.512   1.721  1.4686  0.1514 -0.7352
   18MOL    C17 5151   4.906   5.265   1.530 -0.0400 -0.3745 -0.1183
   18MOL    C18 5152   5.044   5.254   1.453 -0.4244  0.2996 -0.4714
   18MOL    C19 5153   5.067   5.104   1.423 -0.3106 -0.0658  0.4029
   18MOL    C20 5154   5.168   5.022   1.486 -0.1218  0.1621  0.2139
   18MOL    C21 5155   5.172   4.885   1.458  1.0939  0.1578  0.0863
   18MOL    C22 5156   5.075   4.828   1.378 -0.4502 -0.0469  0.4851
   18MOL    C23 5157   4.976   4.912   1.317 -0.7377  0.6725  0.0261
   18MOL    N24 5158   4.970   5.043   1.342  0.6614  0.0710 -0.1391
   18MOL    H25 5159   4.831   5.275   1.452 -0.7942  0.2374  0.6625
   18MOL    H26 5160   4.873   5.177   1.586  0.2593 -0.9024 -0.7768
   18MOL    H27 5161   5.130   5.272   1.517 -0.5816 -0.7844  0.0671
   18MOL    H28 5162   5.234   5.068   1.558 -0.0641 -0.5015  0.5924
   18MOL    H29 5163   5.249   4.821   1.500 -1.3650 -3.3654 -0.5316
   18MOL    H30 5164   5.075   4.723   1.353  4.0519 -0.0540  0.1411
   18MOL    H31 5165   4.908   4.875   1.242  0.1064 -0.4578 -0.1873
   18MOL    C32 5166   5.050   5.345   1.326 -0.1538  0.3947  0.4755
   18MOL    C33 5167   5.172   5.315   1.229 -0.2949  0.5974 -0.5629
   18MOL    C34 5168   5.174   5.418   1.115 -0.3113 -0.4339 -0.4047
   18MOL    C35 5169   5.262   5.532   1.115  0.4683 -0.7297 -0.8500
   18MOL    C36 5170   5.266   5.614   1.002  0.1692  0.2374  0.6916
   18MOL    C37 5171   5.180   5.595   0.895 -0.0737 -0.2053  0.0357
   18MOL    C38 5172   5.094   5.483   0.902 -0.4151  0.0660 -0.0516
   18MOL    N39 5173   5.091   5.397   1.011  1.3199  0.3510  1.0340
   18MOL    H40 5174   5.049   5.448   1.360 -0.2422  1.7255 -3.3260
   18MOL    H41 5175   4.959   5.342   1.265  0.3345 -2.6875 -0.1895
   18MOL    H42 5176   5.148   5.221   1.180  0.7478  0.0474 -0.0260
   18MOL    H43 5177   5.331   5.547   1.197 -1.2118 -2.1458  0.8986
   18MOL    H44 5178   5.330   5.701   0.999 -1.6410  1.5743 -2.9417
   18MOL    H45 5179   5.184   5.661   0.809 -2.0328 -1.2252 -0.8707
   18MOL    H46 5180   5.042   5.452   0.813 -0.8023  0.6767 -0.0455
   18MOL    C47 5181   5.304   5.312   1.310  0.1529  0.6098  0.1254
   18MOL    C48 5182   5.428   5.266   1.221  0.2700  0.3410  0.4060
   18MOL    C49 5183   5.556   5.293   1.292 -0.3966 -0.4761 -0.1125
   18MOL    C50 5184   5.651   5.373   1.229 -0.1277 -0.4039 -0.2616
   18MOL    C51 5185   5.775   5.397   1.293 -0.7920  0.5373  0.1762
   18MOL    C52 5186   5.792   5.330   1.418 -0.1401 -0.2294  0.4735
   18MOL    C53 5187   5.693   5.254   1.476 -0.3083 -0.2823  0.1645
   18MOL    N54 5188   5.575   5.228   1.413 -0.2522 -0.0178 -0.4737
   18MOL    H55 5189   5.292   5.247   1.397  1.4017  0.4098  0.1536
   18MOL    H56 5190   5.326   5.406   1.362 -0.9158  1.5301 -1.0319
   18MOL    H57 5191   5.432   5.332   1.134 -3.8003 -0.8669 -0.8098
   18MOL    H58 5192   5.642   5.403   1.126 -0.6060  0.6766  0.0896
   18MOL    H59 5193   5.850   5.462   1.251  1.1555 -0.7911  1.5548
   18MOL    H60 5194   5.886   5.355   1.467 -0.4093  1.4171  0.1617
   18MOL    H61 5195   5.695   5.192   1.564 -2.4909  0.6269  0.8839
   18MOL    C62 5196   5.425   5.121   1.174  0.0485 -0.5170 -0.1299
   18MOL    C63 5197   5.376   5.095   1.026 -0.4341 -1.1877 -0.9082
   18MOL    C64 5198   5.427   5.179   0.915 -0.0526 -0.1085 -0.0352
   18MOL    C65 5199   5.329   5.247   0.830  0.1534  0.3292 -0.1788
   18MOL    C66 5200   5.377   5.330   0.729  0.5632  0.0004  0.6847
   18MOL    C67 5201   5.515   5.361   0.735 -0.1712 -0.9157 -0.7936
   18MOL    C68 5202   5.604   5.291   0.818 -0.5017 -0.1747 -0.3120
   18MOL    N69 5203   5.561   5.207   0.913 -0.3060  0.0547 -0.5682
   18MOL    H70 5204   5.369   5.053   1.239 -0.5408 -1.0872 -1.2123
   18MOL    H71 5205   5.527   5.085   1.186  0.1981  0.4725  1.7032
   18MOL    H72 5206   5.268   5.110   1.031 -0.1362  0.3949  1.9353
   18MOL    H73 5207   5.224   5.224   0.828 -0.5193  3.0994  0.9029
   18MOL    H74 5208   5.318   5.370   0.648  1.3903 -1.1831 -0.5289
   18MOL    H75 5209   5.551   5.439   0.670  0.5422 -0.9208 -0.4140
   18MOL    H76 5210   5.712   5.295   0.811 -0.2056 -0.5150  3.0822
   18MOL    C77 5211   5.404   4.939   0.999 -0.2177 -0.4003  0.4974
   18MOL    C78 5212   5.339   4.888   0.870  1.4387  0.4233  0.3688
   18MOL    C79 5213   5.440   4.874   0.760 -0.3678  0.4062 -1.2659
   18MOL    C80 5214   5.453   4.966   0.656  0.7495 -0.5315 -0.4039
   18MOL    C81 5215   5.571   4.958   0.573 -0.0128 -0.0168  0.9473
   18MOL    C82 5216   5.669   4.865   0.608  0.6931 -0.2544 -0.0573
   18MOL    C83 5217   5.637   4.772   0.709  0.2977  0.2050 -0.1583
   18MOL    N84 5218   5.524   4.776   0.780 -0.2995  0.3440  0.0456
   18MOL    H85 5219   5.377   4.873   1.082 -1.6554 -0.2339  0.1659
   18MOL    H86 5220   5.511   4.918   0.993 -0.0577  0.7055 -0.4957
   18MOL    H87 5221   5.266   4.963   0.838  0.8971 -0.5759 -0.7775
   18MOL    H88 5222   5.387   5.048   0.632  2.8266  0.7150 -2.1447
   18MOL    H89 5223   5.577   5.032   0.494 -1.2856 -3.0872 -2.1140
   18MOL    H90 5224   5.761   4.856   0.550 -0.1380  3.3534 -2.0855
   18MOL    H91 5225   5.723   4.715   0.737  0.6437  0.2958 -1.0250
   18MOL    C92 5226   5.260   4.761   0.879  0.1133 -0.2810  0.0789
   18MOL    C93 5227   5.126   4.771   0.956  0.1200  0.0908  0.4186
   18MOL    C94 5228   5.036   4.885   0.901 -0.1380 -0.7563  0.2568
   18MOL    C95 5229   5.016   5.001   0.978  0.3210  0.4418 -0.5352
   18MOL    C96 5230   4.944   5.106   0.922  0.4855  0.2639 -0.1872
   18MOL    C97 5231   4.900   5.097   0.789  0.5579 -0.5160  0.8214
   18MOL    C98 5232   4.911   4.972   0.722 -0.4250  0.9490  0.4441
   18MOL    N99 5233   4.979   4.872   0.778  0.1914 -0.2692 -0.0696
   18MOL   H100 5234   5.329   4.689   0.922  0.6471  0.5476  0.6174
   18MOL   H101 5235   5.244   4.728   0.776  3.0286  0.3975 -0.6222
   18MOL   H102 5236   5.147   4.783   1.063  0.7328  1.4255  0.1490
   18MOL   H103 5237   5.061   5.017   1.075 -0.0983 -1.9945  0.1051
   18MOL   H104 5238   4.936   5.198   0.979 -3.4861 -0.2559  0.2099
   18MOL   H105 5239   4.855   5.177   0.733 -1.4858 -1.1082  1.5733
   18MOL   H106 5240   4.854   4.950   0.633  2.0887  1.7441 -1.4166
   18MOL   C107 5241   5.056   4.632   0.956  0.1368 -0.1968  0.0345
   18MOL   C108 5242   5.140   4.510   0.991 -0.3042  0.1835  0.3040
   18MOL   C109 5243   5.198   4.512   1.131 -0.0376 -0.6630  0.3711
   18MOL   C110 5244   5.341   4.520   1.151 -0.7591  0.5006  0.5288
   18MOL   C111 5245   5.396   4.503   1.280 -0.4256 -0.3330  0.0088
   18MOL   C112 5246   5.309   4.475   1.388  0.1904 -0.1134 -0.6899
   18MOL   C113 5247   5.173   4.478   1.357 -0.5239 -0.4439 -0.8648
   18MOL   N114 5248   5.116   4.493   1.237 -0.4670 -0.1442  0.3136
   18MOL   H115 5249   4.995   4.621   0.866 -0.1805 -2.7302  0.5319
   18MOL   H116 5250   4.979   4.645   1.032 -2.5100 -1.6379 -2.2821
   18MOL   H117 5251   5.224   4.508   0.921 -0.4847 -0.5865  0.1000
   18MOL   H118 5252   5.414   4.539   1.074 -0.4389 -0.8358  0.4918
   18MOL   H119 5253   5.502   4.514   1.297  0.2056 -3.7208 -1.3636
   18MOL   H120 5254   5.353   4.458   1.485 -0.5606 -2.2103 -0.6833
   18MOL   H121 5255   5.103   4.465   1.439  0.9817  0.6473  0.6214
   18MOL   C122 5256   5.050   4.385   0.971  0.2980  0.4995  0.5973
   18MOL   C123 5257   4.999   4.346   0.834 -0.1474  0.7897  0.1072
   18MOL   C124 5258   5.109   4.321   0.734 -0.4021  0.0166 -0.4695
   18MOL   C125 5259   5.109   4.399   0.616  0.1334  0.4790  0.0313
   18MOL   C126 5260   5.221   4.379   0.525 -0.3057 -0.5153  0.2383
   18MOL   C127 5261   5.307   4.268   0.549  0.0092  0.4443 -0.5419
   18MOL   C128 5262   5.294   4.190   0.667  0.1036 -0.5469  0.9322
   18MOL   N129 5263   5.201   4.222   0.760  0.2274 -0.1054  0.5891
   18MOL   H130 5264   4.957   4.389   1.027  0.5823  2.0610  0.9625
   18MOL   H131 5265   5.111   4.300   1.002  1.9907  1.1341 -0.8957
   18MOL   H132 5266   4.937   4.426   0.795 -2.0567  0.2118  1.8483
   18MOL   H133 5267   5.032   4.470   0.589  0.3749  0.5817 -0.3964
   18MOL   H134 5268   5.233   4.436   0.434 -1.4413 -0.1185  0.3361
   18MOL   H135 5269   5.391   4.244   0.485  1.2058 -0.7270  1.4084
   18MOL   H136 5270   5.357   4.104   0.683  2.1411  0.7628  0.1825
   18MOL   C137 5271   4.917   4.216   0.841  0.2407 -0.4685  0.2946
   18MOL   C138 5272   4.775   4.233   0.909  0.4089 -0.4645 -0.0414
   18MOL   C139 5273   4.686   4.341   0.847 -0.8312 -0.4537  0.3646
   18MOL   C140 5274   4.628   4.445   0.923  0.1557  0.0874  0.5258
   18MOL   C141 5275   4.549   4.544   0.867 -0.1588 -0.9155  0.1441
   18MOL   C142 5276   4.549   4.542   0.722 -0.1763  0.0960  0.0674
   18MOL   C143 5277   4.614   4.437   0.656 -0.9431 -0.2237 -0.1363
   18MOL   N144 5278   4.679   4.335   0.711  0.2136  0.0274 -1.2618
   18MOL   H145 5279   4.973   4.146   0.902  0.7659 -0.2683  0.0402
   18MOL   H146 5280   4.900   4.168   0.745 -0.6648 -0.8905  0.6485
   18MOL   H147 5281   4.796   4.264   1.011 -3.9071  1.7587  0.3137
   18MOL   H148 5282   4.642   4.441   1.030 -0.1223  0.5715  0.5779
   18MOL   H149 5283   4.495   4.616   0.926  1.4269  0.4747 -0.0347
   18MOL   H150 5284   4.488   4.609   0.663  0.0639 -1.0875 -1.5340
   18MOL   H151 5285   4.627   4.435   0.548  0.7767  0.9349  0.0396
   18MOL   C152 5286   4.697   4.109   0.923  0.2792  0.8353  0.2529
   18MOL   C153 5287   4.744   3.997   1.020  0.3406  0.2055 -0.3030
   18MOL   C154 5288   4.839   4.053   1.132 -0.2162  0.2623  0.1701
   18MOL   C155 5289   4.981   4.036   1.128 -0.5350 -0.1172 -0.2072
   18MOL   C156 5290   5.060   4.090   1.229 -0.3385  0.7040 -0.2932
   18MOL   C157 5291   4.996   4.145   1.343 -0.7173  0.3606  0.0649
   18MOL   C158 5292   4.857   4.159   1.334 -0.6402  0.5237 -0.2831
   18MOL   N159 5293   4.779   4.123   1.229 -0.2358 -0.1650 -0.1585
   18MOL   H160 5294   4.671   4.074   0.823 -0.1311  2.9012 -0.3845
   18MOL   H161 5295   4.603   4.142   0.967  0.2303  1.5777 -0.3995
   18MOL   H162 5296   4.810   3.933   0.962  2.4519  0.8914  1.2646
   18MOL   H163 5297   5.019   3.980   1.044  0.5999  1.7495 -0.9614
   18MOL   H164 5298   5.166   4.068   1.222 -0.3715  0.8333 -1.1971
   18MOL   H165 5299   5.054   4.176   1.429 -3.0705 -0.3840  1.9838
   18MOL   H166 5300   4.807   4.218   1.409  2.1959 -1.3935  3.2447
   18MOL   C167 5301   4.631   3.901   1.073  0.2596  0.3110 -0.8580
   18MOL   C168 5302   4.547   3.843   0.960  0.6206  0.8004 -0.9948
   18MOL   C169 5303   4.610   3.718   0.892 -0.4759 -0.1357 -0.2231
   18MOL   C170 5304   4.653   3.608   0.973  0.4984  0.1947  0.0125
   18MOL   C171 5305   4.709   3.504   0.910  0.1098  0.1521  0.2143
   18MOL   C172 5306   4.748   3.514   0.781 -0.1954 -0.9297 -0.4088
   18MOL   C173 5307   4.705   3.622   0.704  0.4201  0.0204  0.4420
   18MOL   N174 5308   4.634   3.723   0.757 -0.0477 -0.1532  0.1947
   18MOL   H175 5309   4.570   3.969   1.133 -0.3822  0.7291 -1.9709
   18MOL   H176 5310   4.667   3.826   1.144  0.1989  0.5664 -0.5532
   18MOL   H177 5311   4.539   3.915   0.878  0.7124  0.4668 -1.2956
   18MOL   H178 5312   4.631   3.610   1.079  1.9318  1.0874  0.2976
   18MOL   H179 5313   4.733   3.411   0.959 -0.9833  0.7518  1.9137
   18MOL   H180 5314   4.800   3.432   0.735 -0.5997 -2.2150  1.3699
   18MOL   H181 5315   4.736   3.643   0.603  0.9455 -1.6368  0.2385
   18MOL   C182 5316   4.396   3.818   1.012  0.1114  0.0360  0.9992
   18MOL   C183 5317   4.303   3.928   0.962 -0.6305 -0.9423 -0.2771
   18MOL   C184 5318   4.297   3.946   0.805 -0.2078 -0.3525  0.3188
   18MOL   C185 5319   4.364   4.058   0.745  0.1806  0.0512  0.3828
   18MOL   C186 5320   4.363   4.067   0.608 -0.5418  0.0395 -0.6595
   18MOL   C187 5321   4.290   3.979   0.534 -0.3858 -0.1947  0.2270
   18MOL   C188 5322   4.228   3.873   0.601 -0.5166  0.0027 -0.3769
   18MOL   N189 5323   4.229   3.858   0.733 -0.1205 -0.3449  0.0565
   18MOL   H190 5324   4.397   3.797   1.119  1.4017 -3.9047  0.3246
   18MOL   H191 5325   4.353   3.725   0.974  0.4166  1.1813 -2.3688
   18MOL   H192 5326   4.341   4.017   1.014  1.1305 -1.8773  0.0718
   18MOL   H193 5327   4.416   4.132   0.803  1.4160 -0.4407 -0.0888
   18MOL   H194 5328   4.410   4.147   0.552 -3.4235  2.0286 -0.3436
   18MOL   H195 5329   4.281   3.990   0.426  0.8191 -1.2894  0.0040
   18MOL   H196 5330   4.153   3.813   0.551  0.5356  0.0005 -1.9976
   18MOL   C197 5331   4.155   3.919   1.022  0.7046 -0.4491  0.4115
   18MOL   C198 5332   4.056   4.027   0.978  0.3697  0.5576 -0.6063
   18MOL   C199 5333   3.915   3.996   1.028  0.1372  0.1603  0.1531
   18MOL   C200 5334   3.805   3.973   0.943 -0.1145 -0.5992  0.1899
   18MOL   C201 5335   3.689   3.920   1.007 -0.0972  0.3037  0.2283
   18MOL   C202 5336   3.673   3.930   1.144 -0.6005  0.5919  0.3638
   18MOL   C203 5337   3.783   3.965   1.224 -0.3179 -0.0899  0.2843
   18MOL   N204 5338   3.902   3.989   1.167  0.1556 -0.0284 -0.6007
   18MOL   H205 5339   4.162   3.927   1.130  0.8274 -2.1138  0.5419
   18MOL   H206 5340   4.117   3.818   1.006  1.3494 -0.5516 -0.5363
   18MOL   H207 5341   4.049   4.015   0.870 -2.6761  1.4121 -0.5468
   18MOL   H208 5342   3.813   3.968   0.835 -0.0510  0.4087  0.1502
   18MOL   H209 5343   3.612   3.887   0.937 -1.0977 -3.9012  3.1285
   18MOL   H210 5344   3.583   3.904   1.198 -1.7867  0.7561 -1.5254
   18MOL   H211 5345   3.782   3.972   1.331 -0.3424  0.8156  0.2267
   18MOL   C212 5346   4.092   4.182   1.001  0.0966 -0.2079 -0.4308
   18MOL   C213 5347   4.099   4.234   1.146 -0.7307  0.2980 -0.5552
   18MOL   C214 5348   4.219   4.192   1.223 -0.1212 -0.1328 -0.4687
   18MOL   C215 5349   4.206   4.121   1.346  0.3037  0.0839 -0.2886
   18MOL   C216 5350   4.318   4.097   1.423 -0.4159  0.6181  0.2208
   18MOL   C217 5351   4.446   4.130   1.372  0.6599 -0.4773  0.2638
   18MOL   C218 5352   4.451   4.194   1.245 -0.1973  0.0165 -0.2498
   18MOL   N219 5353   4.343   4.231   1.174  0.3179 -0.4130  0.5608
   18MOL   H220 5354   4.019   4.242   0.946 -2.0461 -2.0296  0.4006
   18MOL   H221 5355   4.176   4.211   0.937  0.5132 -0.6047 -0.0650
   18MOL   H222 5356   4.011   4.198   1.199 -1.5499  2.0904 -0.6527
   18MOL   H223 5357   4.111   4.098   1.392 -0.8012 -0.4986 -2.7721
   18MOL   H224 5358   4.315   4.034   1.510  0.8926 -1.8808 -1.4879
   18MOL   H225 5359   4.530   4.102   1.433  0.8526 -0.7963 -0.1465
   18MOL   H226 5360   4.539   4.217   1.187 -0.0966 -0.4073 -0.2645
   18MOL   C227 5361   4.066   4.388   1.147 -0.3692 -0.0616  0.4322
   18MOL   C228 5362   4.029   4.435   1.290  0.6696  0.0901 -0.3595
   18MOL   C229 5363   4.058   4.583   1.307  0.0721  0.2292  0.5141
   18MOL   C230 5364   4.146   4.640   1.407 -0.7029 -0.0266 -0.1335
   18MOL   C231 5365   4.168   4.778   1.413  0.4338  0.2708  0.2591
   18MOL   C232 5366   4.106   4.857   1.320 -0.4849  0.7706 -0.3970
   18MOL   C233 5367   4.022   4.793   1.222 -0.9553 -0.1428  0.1239
   18MOL   N234 5368   4.006   4.663   1.214 -0.2877  0.2705  0.5398
   18MOL   H235 5369   3.980   4.411   1.085 -0.7263 -3.3695 -0.4080
   18MOL   H236 5370   4.151   4.439   1.101  0.7331 -2.3938 -0.2171
   18MOL   H237 5371   4.095   4.388   1.363 -0.3908 -0.0765  0.5064
   18MOL   H238 5372   4.203   4.580   1.476 -2.9099  0.5039  2.2488
   18MOL   H239 5373   4.248   4.812   1.477  0.1245 -0.4893  1.0660
   18MOL   H240 5374   4.117   4.964   1.334  1.2664  0.6909 -1.1265
   18MOL   H241 5375   3.973   4.851   1.145 -0.4288  0.4292  0.2175
   18MOL   C242 5376   3.881   4.395   1.318  0.1921  1.0476 -0.2077
   18MOL   C243 5377   3.831   4.410   1.465  0.1686  0.0221  0.1299
   18MOL   C244 5378   3.681   4.364   1.474  0.2337  0.7496 -0.1601
   18MOL   C245 5379   3.575   4.442   1.530  0.0354  0.2918  0.2277
   18MOL   C246 5380   3.438   4.387   1.545 -0.0471 -0.5077  1.1573
   18MOL   C247 5381   3.424   4.265   1.485 -0.5197 -0.1367  0.0855
   18MOL   C248 5382   3.529   4.197   1.431 -0.5757  0.2858  0.1577
   18MOL   N249 5383   3.656   4.244   1.429  0.2426  0.4355  0.1295
   18MOL   H250 5384   3.872   4.290   1.291  0.9569  1.3677 -1.7612
   18MOL   H251 5385   3.807   4.446   1.256  0.2024 -0.0133 -1.1111
   18MOL   H252 5386   3.822   4.518   1.469 -0.5203  0.0652 -1.7682
   18MOL   H253 5387   3.602   4.539   1.568 -0.6144 -0.2000  2.0157
   18MOL   H254 5388   3.365   4.441   1.604  0.0025  2.0657 -1.0633
   18MOL   H255 5389   3.332   4.210   1.492 -0.5029 -0.2581 -0.6422
   18MOL   H256 5390   3.526   4.098   1.388  1.3325  0.2607  0.0076
   18MOL   C257 5391   3.914   4.343   1.582  1.2202  0.3953  0.5272
   18MOL   C258 5392   3.891   4.397   1.725  0.2568 -0.1578 -0.0827
   18MOL   C259 5393   3.931   4.540   1.738 -0.0053  0.1076  0.2987
   18MOL   C260 5394   4.064   4.564   1.783 -0.5737 -0.4885 -0.5965
   18MOL   C261 5395   4.106   4.700   1.805 -0.2543 -0.8047  0.3002
   18MOL   C262 5396   4.022   4.802   1.771  0.1118 -0.4716  0.0773
   18MOL   C263 5397   3.898   4.765   1.712  0.3391 -0.2503 -0.6444
   18MOL   N264 5398   3.848   4.637   1.692  0.0414 -0.0051 -0.0061
   18MOL   H265 5399   4.020   4.366   1.571  1.6665 -1.1566  1.4689
   18MOL   H266 5400   3.911   4.234   1.588 -1.9896  0.3246 -0.9010
   18MOL   H267 5401   3.969   4.353   1.787  0.9781 -1.3663 -1.8177
   18MOL   H268 5402   4.131   4.486   1.817 -2.2747 -1.2539  1.0287
   18MOL   H269 5403   4.204   4.711   1.849  0.4236 -0.9589 -1.1474
   18MOL   H270 5404   4.052   4.903   1.795 -1.4333  0.2640 -0.9614
   18MOL   H271 5405   3.827   4.842   1.688 -0.0293 -0.4423 -0.1729
   18MOL   C272 5406   3.761   4.369   1.790 -0.5630  0.1333  0.0160
   18MOL   C273 5407   3.753   4.369   1.950  0.2803 -0.7674  0.8676
   18MOL   C274 5408   3.824   4.251   2.020 -0.2804 -0.4216 -0.1828
   18MOL   C275 5409   3.757   4.172   2.121 -0.2037  0.1525  0.5073
   18MOL   C276 5410   3.829   4.084   2.197  0.4807  0.2267 -0.1596
   18MOL   C277 5411   3.963   4.060   2.169  0.6395 -0.1488  0.9979
   18MOL   C278 5412   4.023   4.139   2.068  0.0953 -0.6642  0.3914
   18MOL   N279 5413   3.954   4.228   1.994  0.7257 -0.3168  0.4725
   18MOL   H280 5414   3.727   4.273   1.751 -0.6909  0.6293 -1.1247
   18MOL   H281 5415   3.688   4.446   1.761 -1.6763 -0.5832  0.8753
   18MOL   H282 5416   3.648   4.347   1.968 -0.1440  0.1828 -0.4422
   18MOL   H283 5417   3.649   4.182   2.129 -0.3558 -1.1231  0.1697
   18MOL   H284 5418   3.774   4.012   2.256  0.0562 -0.5026 -1.4121
   18MOL   H285 5419   4.016   3.981   2.219  3.3746  0.6876 -0.5075
   18MOL   H286 5420   4.127   4.120   2.049  0.1437  0.6087 -0.7113
   18MOL   C287 5421   3.788   4.497   2.026 -0.1094 -1.0690 -0.4143
   18MOL   C288 5422   3.699   4.627   2.016 -0.5863 -0.7734 -0.4044
   18MOL   C289 5423   3.549   4.602   1.989  0.4608 -0.1573  0.2937
   18MOL   C290 5424   3.500   4.628   1.863 -0.2564  0.1830  0.3167
   18MOL   C291 5425   3.362   4.607   1.841  0.1292  0.6602 -0.0111
   18MOL   C292 5426   3.279   4.560   1.945  0.2178  0.5250 -0.1395
   18MOL   C293 5427   3.341   4.541   2.071  0.2010  0.2080 -0.6187
   18MOL   N294 5428   3.472   4.568   2.094  0.1200  0.5132  0.2550
   18MOL   H295 5429   3.894   4.522   2.031 -0.4129 -0.0775  1.7491
   18MOL   H296 5430   3.765   4.467   2.129 -4.4454  1.3143 -0.5850
   18MOL   H297 5431   3.734   4.697   1.941  0.0075 -1.3151 -0.6310
   18MOL   H298 5432   3.561   4.658   1.779  0.1391  0.6212  0.7611
   18MOL   H299 5433   3.322   4.630   1.743 -1.0480 -0.6213  0.1539
   18MOL   H300 5434   3.177   4.532   1.927  0.4146  0.0301 -0.4758
   18MOL   H301 5435   3.285   4.502   2.154  1.2461 -0.2674 -0.1270
   18MOL   H302 5436   3.709   4.687   2.107 -1.0579 -0.3219 -0.6506
   19MOL     C1 5437   0.522   5.442   5.013  0.6505 -0.6064 -1.0332
   19MOL     C2 5438   0.544   5.355   4.886 -0.4667 -0.3588 -0.3892
   19MOL     C3 5439   0.542   5.448   4.765 -0.1133  0.0675 -0.7754
   19MOL     C4 5440   0.464   5.434   4.656  0.3873 -0.1272  0.2110
   19MOL     C5 5441   0.459   5.536   4.560 -0.5262 -0.0425 -0.4641
   19MOL     C6 5442   0.553   5.638   4.560  0.2133  0.0786  0.1066
   19MOL     C7 5443   0.635   5.637   4.665 -0.4851  0.0747  0.6618
   19MOL     N8 5444   0.631   5.548   4.766 -0.4610 -0.4732  0.1681
   19MOL     H9 5445   0.614   5.497   5.034  0.5670 -0.8272 -0.0495
   19MOL    H10 5446   0.438   5.508   4.997  0.4811 -0.5894 -0.1096
   19MOL    H11 5447   0.466   5.278   4.881 -0.7072 -0.1127 -0.4300
   19MOL    H12 5448   0.395   5.351   4.647  0.1187 -0.0031  1.1008
   19MOL    H13 5449   0.387   5.532   4.479  0.0850  3.0404 -1.2208
   19MOL    H14 5450   0.569   5.709   4.480  2.1371 -0.1932  0.2307
   19MOL    H15 5451   0.717   5.708   4.673  0.7098 -0.8297 -2.5474
   19MOL    H16 5452   0.509   5.383   5.104  1.2789 -1.2090 -1.3286
   19MOL    C17 5453   0.670   5.259   4.899 -0.2517  0.4528  0.2477
   19MOL    C18 5454   0.734   5.194   4.771 -0.7878 -0.0161 -0.0721
   19MOL    C19 5455   0.883   5.157   4.807  0.1316  0.7451  0.2083
   19MOL    C20 5456   0.989   5.227   4.745 -0.0187  0.4941 -0.9059
   19MOL    C21 5457   1.117   5.188   4.773  0.3090 -0.3533  0.8913
   19MOL    C22 5458   1.142   5.117   4.892 -0.0807  0.0709 -0.1099
   19MOL    C23 5459   1.029   5.066   4.963 -0.4898  0.8498  0.6254
   19MOL    N24 5460   0.905   5.088   4.922 -0.0788  0.2644  0.9010
   19MOL    H25 5461   0.641   5.182   4.970 -3.1951  0.8998 -0.4367
   19MOL    H26 5462   0.749   5.315   4.950 -1.3108  1.7768  0.4369
   19MOL    H27 5463   0.740   5.284   4.710 -0.4875 -0.5915 -0.9041
   19MOL    H28 5464   0.972   5.287   4.657 -0.8721 -2.3635 -2.7539
   19MOL    H29 5465   1.193   5.238   4.714 -0.4663 -2.7872 -2.3675
   19MOL    H30 5466   1.235   5.113   4.947  0.1477 -0.7275 -0.5362
   19MOL    H31 5467   1.043   5.000   5.047 -0.7162 -1.9795 -1.4866
   19MOL    C32 5468   0.660   5.074   4.707 -0.5997 -0.6632  0.5991
   19MOL    C33 5469   0.689   5.046   4.554 -0.5836  0.4946 -0.2608
   19MOL    C34 5470   0.665   5.168   4.463 -0.4170 -0.0331 -0.5905
   19MOL    C35 5471   0.559   5.172   4.370 -0.5287  0.1774  0.2233
   19MOL    C36 5472   0.567   5.276   4.281 -0.2089 -0.2684 -0.0274
   19MOL    C37 5473   0.663   5.377   4.286 -0.7948  0.1857  0.7648
   19MOL    C38 5474   0.760   5.361   4.391 -0.2545  0.0310 -0.1295
   19MOL    N39 5475   0.759   5.258   4.476 -0.6176 -0.3580 -0.4244
   19MOL    H40 5476   0.555   5.104   4.715 -0.2402  0.9122 -0.5007
   19MOL    H41 5477   0.670   4.987   4.772 -1.2679 -1.9669 -1.0077
   19MOL    H42 5478   0.610   4.976   4.523 -1.7961  1.4317  0.6673
   19MOL    H43 5479   0.483   5.098   4.352 -2.0006  1.6221  0.3689
   19MOL    H44 5480   0.495   5.275   4.200 -0.1695 -0.2859 -0.0618
   19MOL    H45 5481   0.660   5.468   4.228 -0.2200  0.1714  0.7088
   19MOL    H46 5482   0.834   5.434   4.419  0.8942 -0.2163 -2.4019
   19MOL    C47 5483   0.828   4.981   4.518 -0.9624  0.5331 -0.0492
   19MOL    C48 5484   0.855   4.825   4.526 -0.0033  0.6558 -0.0469
   19MOL    C49 5485   0.981   4.772   4.459  0.1697  0.1217 -0.1426
   19MOL    C50 5486   1.095   4.852   4.473  0.5983 -0.0394 -0.3244
   19MOL    C51 5487   1.210   4.822   4.407  0.1172  0.0702  0.3055
   19MOL    C52 5488   1.210   4.706   4.324  0.4595  0.3339 -0.0369
   19MOL    C53 5489   1.084   4.636   4.305  0.8533 -0.4405  0.7603
   19MOL    N54 5490   0.970   4.665   4.376  0.3866 -0.4017  0.4814
   19MOL    H55 5491   0.916   5.030   4.561 -0.0748 -2.3385  1.5247
   19MOL    H56 5492   0.843   4.990   4.410 -1.7314  3.6393  0.0671
   19MOL    H57 5493   0.770   4.786   4.470  0.1844  2.6503 -1.7923
   19MOL    H58 5494   1.096   4.933   4.545  0.0907 -0.2452 -0.0851
   19MOL    H59 5495   1.293   4.891   4.407 -1.6961  2.2887 -0.0106
   19MOL    H60 5496   1.293   4.675   4.263  0.0372 -1.7450  0.4273
   19MOL    H61 5497   1.075   4.552   4.238 -1.6315  0.3386  0.0559
   19MOL    C62 5498   0.856   4.777   4.670 -1.3224 -0.1980  0.0565
   19MOL    C63 5499   0.899   4.636   4.709 -0.5820  0.0679  0.5046
   19MOL    C64 5500   1.049   4.625   4.747 -0.2257  0.1853  0.3819
   19MOL    C65 5501   1.126   4.525   4.684 -0.6639  0.0367 -0.5686
   19MOL    C66 5502   1.266   4.534   4.717 -0.4237  0.2688  0.0269
   19MOL    C67 5503   1.314   4.623   4.821 -0.1821  0.2547 -0.5845
   19MOL    C68 5504   1.220   4.718   4.869 -0.2075  0.2602  0.0081
   19MOL    N69 5505   1.090   4.717   4.834  0.0481 -0.0021 -0.2690
   19MOL    H70 5506   0.762   4.799   4.720 -0.8452  0.1990  0.7776
   19MOL    H71 5507   0.921   4.849   4.719 -0.6744 -1.9088  1.7789
   19MOL    H72 5508   0.881   4.560   4.633 -0.0760  1.0582 -0.6271
   19MOL    H73 5509   1.084   4.468   4.603 -2.7240  0.9873 -0.1886
   19MOL    H74 5510   1.334   4.465   4.670 -0.0274  0.5594  0.1722
   19MOL    H75 5511   1.417   4.630   4.852 -0.3817 -3.1850  1.1060
   19MOL    H76 5512   1.243   4.797   4.939  0.3970 -0.6488  0.8390
   19MOL    C77 5513   0.823   4.582   4.822 -0.4162 -0.2408 -0.3925
   19MOL    C78 5514   0.810   4.666   4.955  0.0703 -0.4398  0.0460
   19MOL    C79 5515   0.664   4.694   4.985  0.6157 -0.0880  0.0250
   19MOL    C80 5516   0.568   4.598   5.013  0.0470  0.2657  0.2163
   19MOL    C81 5517   0.433   4.636   5.015  0.6386  0.1475 -0.0943
   19MOL    C82 5518   0.393   4.771   5.001  0.0793 -0.4953  0.9128
   19MOL    C83 5519   0.498   4.859   4.986  0.2583  0.2598  0.2453
   19MOL    N84 5520   0.626   4.823   4.968  0.1395  0.7583 -0.3866
   19MOL    H85 5521   0.854   4.482   4.850 -0.0673 -0.3385 -1.1164
   19MOL    H86 5522   0.721   4.565   4.788 -1.1895  0.8311  1.3320
   19MOL    H87 5523   0.860   4.760   4.935  1.9217 -1.5281 -0.5490
   19MOL    H88 5524   0.600   4.497   5.035  1.0396  1.3240  4.1176
   19MOL    H89 5525   0.363   4.556   5.035  0.4351  0.0895 -1.0252
   19MOL    H90 5526   0.291   4.802   4.987  0.1877 -0.4104  0.3034
   19MOL    H91 5527   0.465   4.961   4.975  1.4295  0.6871  0.6684
   19MOL    C92 5528   0.889   4.600   5.072 -0.1333 -0.1244 -0.5342
   19MOL    C93 5529   0.934   4.692   5.187  0.2148  0.2869  0.1886
   19MOL    C94 5530   0.809   4.756   5.255 -0.0383  0.8182 -0.3948
   19MOL    C95 5531   0.765   4.892   5.232  0.1358 -0.3399 -0.6241
   19MOL    C96 5532   0.650   4.945   5.290 -0.5375  0.2524  0.1255
   19MOL    C97 5533   0.564   4.850   5.358 -0.4043 -0.7712  0.2110
   19MOL    C98 5534   0.611   4.714   5.377  0.1407 -0.3034 -0.6089
   19MOL    N99 5535   0.734   4.670   5.327 -0.0469  0.1786  0.0106
   19MOL   H100 5536   0.979   4.563   5.023  1.5799 -1.3089  3.2922
   19MOL   H101 5537   0.836   4.517   5.119  2.3393 -1.3654  0.1522
   19MOL   H102 5538   0.985   4.774   5.137 -0.2850 -0.9884 -2.5376
   19MOL   H103 5539   0.832   4.962   5.183  1.5767 -1.6919 -0.6346
   19MOL   H104 5540   0.623   5.049   5.279  0.4941  0.3605 -1.6441
   19MOL   H105 5541   0.467   4.885   5.390 -0.9476 -1.3942 -0.7411
   19MOL   H106 5542   0.548   4.649   5.435  0.7623  1.1137  1.7273
   19MOL   C107 5543   1.030   4.636   5.287 -0.0727 -0.6834  0.0904
   19MOL   C108 5544   1.061   4.731   5.404  0.5415  0.2010  0.2112
   19MOL   C109 5545   1.123   4.650   5.521 -0.5374 -0.5950 -0.1130
   19MOL   C110 5546   1.048   4.631   5.639  0.4593  0.5381 -0.5863
   19MOL   C111 5547   1.102   4.548   5.744  0.2489  0.3323  0.3383
   19MOL   C112 5548   1.235   4.501   5.725 -0.0608  0.0150  0.4494
   19MOL   C113 5549   1.301   4.522   5.601 -0.4680 -0.3427 -0.2592
   19MOL   N114 5550   1.249   4.592   5.499  0.4215 -0.3382 -0.1314
   19MOL   H115 5551   1.122   4.608   5.237  0.7939  1.7134  0.2797
   19MOL   H116 5552   0.986   4.544   5.325 -0.3591 -1.0065 -1.0097
   19MOL   H117 5553   0.972   4.774   5.451  0.7022 -0.7092  1.3544
   19MOL   H118 5554   0.950   4.675   5.646  0.5409  0.5985  0.2256
   19MOL   H119 5555   1.040   4.548   5.832 -3.6440  0.8272 -2.2691
   19MOL   H120 5556   1.287   4.440   5.797 -1.5895 -2.9284 -0.8789
   19MOL   H121 5557   1.403   4.487   5.600 -0.5030 -0.4933  0.6706
   19MOL   C122 5558   1.145   4.856   5.364  0.2013 -0.2921  0.3607
   19MOL   C123 5559   1.199   4.933   5.490 -0.4581 -0.2926 -0.3326
   19MOL   C124 5560   1.291   5.045   5.447  0.2915  1.4425  1.1337
   19MOL   C125 5561   1.432   5.044   5.483  0.1411  0.0783 -0.2505
   19MOL   C126 5562   1.512   5.156   5.446  0.5638  0.4095 -0.2252
   19MOL   C127 5563   1.450   5.260   5.382 -0.2865 -0.1480 -0.0150
   19MOL   C128 5564   1.318   5.244   5.333  0.2562 -0.3845 -0.3880
   19MOL   N129 5565   1.237   5.143   5.369 -0.4821  0.3188  0.1047
   19MOL   H130 5566   1.086   4.926   5.305 -0.1380  0.4022  1.5322
   19MOL   H131 5567   1.231   4.820   5.305  0.4962  0.6914  0.1895
   19MOL   H132 5568   1.256   4.872   5.561  0.0823  3.4090  2.6085
   19MOL   H133 5569   1.477   4.965   5.540  2.0248 -1.1879 -3.3690
   19MOL   H134 5570   1.618   5.171   5.458  0.4826  1.1640 -0.4170
   19MOL   H135 5571   1.511   5.344   5.354 -0.1534 -0.4523 -0.6483
   19MOL   H136 5572   1.285   5.318   5.262  0.6906 -0.3845 -0.5943
   19MOL   C137 5573   1.086   4.991   5.585  0.5848 -0.2007 -0.8418
   19MOL   C138 5574   1.124   5.091   5.696  0.4618  0.2901 -0.1793
   19MOL   C139 5575   1.034   5.216   5.709 -0.1828 -0.2910 -0.1038
   19MOL   C140 5576   1.082   5.350   5.692  0.0714 -0.3122 -0.6354
   19MOL   C141 5577   0.987   5.455   5.708 -0.4882  0.3801 -0.4890
   19MOL   C142 5578   0.849   5.421   5.720 -0.5167 -0.4963  0.2225
   19MOL   C143 5579   0.811   5.280   5.730 -0.7922 -0.1604  0.5247
   19MOL   N144 5580   0.906   5.187   5.728  0.5819  0.1288  0.9689
   19MOL   H145 5581   1.034   4.902   5.623  3.8364 -1.3708  1.0474
   19MOL   H146 5582   1.013   5.042   5.522 -1.0250 -0.2023  0.9542
   19MOL   H147 5583   1.221   5.137   5.675  0.5025  1.1935  1.8548
   19MOL   H148 5584   1.185   5.377   5.676 -0.6938  1.7575 -2.3265
   19MOL   H149 5585   1.020   5.558   5.701 -1.0436  0.6344  0.5920
   19MOL   H150 5586   0.775   5.498   5.738  0.0688  0.4506 -1.4107
   19MOL   H151 5587   0.713   5.258   5.767 -1.4035  2.8469  0.8609
   19MOL   C152 5588   1.144   5.026   5.829 -0.7419  0.3223  0.0955
   19MOL   C153 5589   1.241   5.108   5.914 -0.3085  0.3540  0.2926
   19MOL   C154 5590   1.224   5.080   6.061 -0.3914  0.6925  0.3036
   19MOL   C155 5591   1.182   5.183   6.150  0.5578 -0.2713 -0.5730
   19MOL   C156 5592   1.174   5.154   6.286 -0.6905 -0.4679  0.7705
   19MOL   C157 5593   1.221   5.026   6.332 -0.1157 -0.4847 -0.2081
   19MOL   C158 5594   1.258   4.936   6.231 -0.6916 -0.5198 -0.6352
   19MOL   N159 5595   1.262   4.963   6.104  0.1740 -0.2443 -0.8947
   19MOL   H160 5596   1.182   4.924   5.817  0.7444  1.1056 -2.2394
   19MOL   H161 5597   1.048   5.018   5.880  0.8248  0.3275  3.1683
   19MOL   H162 5598   1.214   5.214   5.906  3.2879  1.5527  2.7575
   19MOL   H163 5599   1.172   5.287   6.124  2.1346 -0.1883 -0.9006
   19MOL   H164 5600   1.161   5.229   6.362  3.3051  0.8687  0.2999
   19MOL   H165 5601   1.210   4.996   6.435  0.3822 -0.7497 -0.2257
   19MOL   H166 5602   1.274   4.834   6.263 -0.2334  0.2177  1.5411
   19MOL   C167 5603   1.388   5.088   5.861 -0.5484 -0.3681 -0.3411
   19MOL   C168 5604   1.484   5.204   5.907 -0.1703  0.4901  0.3777
   19MOL   C169 5605   1.443   5.351   5.877 -0.4342  0.0234  0.3907
   19MOL   C170 5606   1.525   5.432   5.800 -0.0829 -0.6647  0.3136
   19MOL   C171 5607   1.492   5.568   5.800  0.2711 -0.2739 -0.6580
   19MOL   C172 5608   1.390   5.623   5.878 -0.3838 -0.2767 -0.0851
   19MOL   C173 5609   1.315   5.535   5.961  0.1548 -0.0217 -0.3964
   19MOL   N174 5610   1.347   5.400   5.965  0.4064 -0.8101  0.0959
   19MOL   H175 5611   1.392   5.098   5.753  0.5918  1.8372 -0.1266
   19MOL   H176 5612   1.423   4.988   5.887 -1.0647 -0.7799 -1.2368
   19MOL   H177 5613   1.570   5.179   5.844 -1.6345 -1.5394 -0.8920
   19MOL   H178 5614   1.608   5.393   5.742 -0.5291 -0.3031 -0.5815
   19MOL   H179 5615   1.554   5.638   5.746  0.0188  0.6505  0.2276
   19MOL   H180 5616   1.370   5.729   5.882  0.1611 -0.1435 -0.8988
   19MOL   H181 5617   1.234   5.573   6.021  0.2379  0.2919 -0.4809
   19MOL   C182 5618   1.530   5.192   6.052 -0.0171 -0.0682 -0.1758
   19MOL   C183 5619   1.618   5.066   6.095  0.0141 -0.3798  0.5971
   19MOL   C184 5620   1.717   5.031   5.981  0.5044 -0.1931 -0.1940
   19MOL   C185 5621   1.805   5.131   5.936 -0.9379 -0.1180 -0.3650
   19MOL   C186 5622   1.884   5.098   5.823  0.4043 -0.6695 -0.0290
   19MOL   C187 5623   1.870   4.975   5.764 -0.5294 -0.3351 -0.5867
   19MOL   C188 5624   1.797   4.882   5.838 -0.1510 -0.8109  0.3838
   19MOL   N189 5625   1.718   4.905   5.941  0.2629  0.6356  0.0465
   19MOL   H190 5626   1.443   5.184   6.117  1.2534  0.8468  1.6786
   19MOL   H191 5627   1.577   5.287   6.075 -1.9234  1.5024 -2.5088
   19MOL   H192 5628   1.541   4.989   6.102  0.7819 -1.2137 -0.1379
   19MOL   H193 5629   1.798   5.233   5.969 -1.0372  0.1969 -1.3248
   19MOL   H194 5630   1.943   5.166   5.763 -1.8801  1.7902  0.4153
   19MOL   H195 5631   1.923   4.935   5.678 -2.3766 -0.3172 -1.7571
   19MOL   H196 5632   1.799   4.781   5.800  0.5842 -0.5233 -0.3562
   19MOL   C197 5633   1.690   5.076   6.234  0.4974  0.3112 -0.1048
   19MOL   C198 5634   1.715   4.944   6.306  0.0632 -0.1891 -0.0949
   19MOL   C199 5635   1.814   4.972   6.419 -0.0024 -0.2855  0.2517
   19MOL   C200 5636   1.927   4.890   6.436 -0.0508 -0.0015 -0.1939
   19MOL   C201 5637   2.005   4.901   6.555 -0.6228 -0.6924 -0.2415
   19MOL   C202 5638   1.957   4.982   6.660 -0.6245 -0.0358 -0.3449
   19MOL   C203 5639   1.844   5.066   6.634 -0.0028  0.3919 -0.7690
   19MOL   N204 5640   1.771   5.055   6.518  0.3218  0.4356 -0.4934
   19MOL   H205 5641   1.626   5.132   6.303 -0.2923 -2.7469  1.7228
   19MOL   H206 5642   1.783   5.132   6.229 -0.1921  1.2680 -3.3840
   19MOL   H207 5643   1.770   4.880   6.237  1.2504 -0.4370  1.0706
   19MOL   H208 5644   1.964   4.821   6.362  0.0233 -0.7028  0.4959
   19MOL   H209 5645   2.097   4.849   6.580  0.9379  2.2297  0.3853
   19MOL   H210 5646   2.000   4.992   6.759 -2.1177 -0.2792  0.3418
   19MOL   H211 5647   1.798   5.131   6.707 -0.5580  1.4106 -1.9991
   19MOL   C212 5648   1.599   4.861   6.356 -0.0154 -0.4660 -0.0503
   19MOL   C213 5649   1.630   4.731   6.433  0.0791 -0.3335  0.5299
   19MOL   C214 5650   1.510   4.688   6.521 -0.2394 -0.3944  0.7303
   19MOL   C215 5651   1.519   4.678   6.662  0.2409  0.7058 -0.2444
   19MOL   C216 5652   1.407   4.631   6.729 -0.2996 -0.7748  0.0411
   19MOL   C217 5653   1.291   4.602   6.658 -0.4452  0.1215 -0.5653
   19MOL   C218 5654   1.287   4.631   6.525 -0.3841  0.4191 -0.1206
   19MOL   N219 5655   1.393   4.672   6.459  0.1157  0.4015 -0.2393
   19MOL   H220 5656   1.539   4.827   6.271 -0.5190 -1.5411  0.7249
   19MOL   H221 5657   1.532   4.917   6.421  1.4191  0.5614  0.5759
   19MOL   H222 5658   1.715   4.748   6.499 -0.3222  2.5640  0.3622
   19MOL   H223 5659   1.614   4.704   6.707 -1.0009  2.8309  1.2344
   19MOL   H224 5660   1.415   4.616   6.836  1.8933 -1.2314 -0.1646
   19MOL   H225 5661   1.213   4.545   6.707  0.0581 -0.5217 -0.4964
   19MOL   H226 5662   1.192   4.610   6.476 -0.1673  0.5045 -0.5788
   19MOL   C227 5663   1.683   4.616   6.345 -0.1488  0.0716 -0.2985
   19MOL   C228 5664   1.810   4.543   6.395 -0.7510 -0.1827  0.1899
   19MOL   C229 5665   1.772   4.481   6.529  0.3776  0.0882  0.5768
   19MOL   C230 5666   1.829   4.529   6.645 -0.3394 -0.2343  0.0907
   19MOL   C231 5667   1.808   4.465   6.768  0.0511 -0.2676  0.3622
   19MOL   C232 5668   1.722   4.353   6.764  0.1732  0.4716 -0.3814
   19MOL   C233 5669   1.667   4.320   6.642  0.4018 -0.5226  0.0810
   19MOL   N234 5670   1.694   4.374   6.523  0.9410 -0.2569  0.4724
   19MOL   H235 5671   1.693   4.652   6.242  0.1023  0.8193 -0.0126
   19MOL   H236 5672   1.603   4.543   6.333  0.7067 -1.1471  1.3257
   19MOL   H237 5673   1.884   4.621   6.412  0.0661 -0.3151 -2.6478
   19MOL   H238 5674   1.893   4.615   6.629  0.2395 -0.5420  0.7118
   19MOL   H239 5675   1.855   4.502   6.858  1.6996  0.9667 -0.9659
   19MOL   H240 5676   1.705   4.299   6.855 -1.0962  1.4432 -0.0187
   19MOL   H241 5677   1.591   4.243   6.644 -0.6105  0.4889  1.4321
   19MOL   C242 5678   1.862   4.434   6.297  0.8579 -0.3442 -0.9225
   19MOL   C243 5679   1.906   4.479   6.161 -0.5805 -0.6265 -0.4772
   19MOL   C244 5680   2.011   4.592   6.167 -0.4002  0.1620 -0.1354
   19MOL   C245 5681   1.980   4.723   6.125  0.7198 -0.4528 -0.5680
   19MOL   C246 5682   2.078   4.824   6.121 -0.3662 -0.1544  0.1600
   19MOL   C247 5683   2.203   4.798   6.166  0.1523  0.2654  0.8949
   19MOL   C248 5684   2.225   4.668   6.214  0.3435 -0.2060 -0.6956
   19MOL   N249 5685   2.137   4.565   6.214  0.5136  0.6706 -0.2218
   19MOL   H250 5686   1.786   4.359   6.277  0.1354 -0.5613  2.3457
   19MOL   H251 5687   1.941   4.379   6.348  2.1066  2.2224  0.0236
   19MOL   H252 5688   1.824   4.522   6.104  0.1327 -1.6921 -2.3580
   19MOL   H253 5689   1.884   4.756   6.087  1.7045  2.1316 -0.9143
   19MOL   H254 5690   2.056   4.920   6.076  2.2881 -0.0222 -0.9354
   19MOL   H255 5691   2.282   4.871   6.175  0.6501  0.0967 -1.7363
   19MOL   H256 5692   2.325   4.653   6.252  0.3932 -0.3556 -0.8815
   19MOL   C257 5693   1.951   4.355   6.078  0.0923  0.2709 -0.3332
   19MOL   C258 5694   1.976   4.365   5.930  0.2425 -0.5746  0.3604
   19MOL   C259 5695   2.007   4.230   5.863 -0.7799 -0.3138  0.0878
   19MOL   C260 5696   2.112   4.221   5.779 -0.8150  0.5253  0.3621
   19MOL   C261 5697   2.143   4.091   5.727 -0.2994  0.6294  0.1009
   19MOL   C262 5698   2.063   3.984   5.757  0.9840  0.8118  0.1908
   19MOL   C263 5699   1.954   4.005   5.839  0.5203 -0.0931  0.4397
   19MOL   N264 5700   1.927   4.123   5.899 -0.6735  0.7935 -0.6955
   19MOL   H265 5701   1.873   4.280   6.090 -1.3891  1.5537 -1.6729
   19MOL   H266 5702   2.030   4.307   6.136 -0.0748  2.4427  1.7434
   19MOL   H267 5703   2.060   4.434   5.927 -0.4432  0.3134  1.1737
   19MOL   H268 5704   2.182   4.304   5.772 -0.5427  0.2798  0.1733
   19MOL   H269 5705   2.223   4.076   5.656  0.1419 -0.1876  0.7523
   19MOL   H270 5706   2.093   3.886   5.725  0.6305  0.0395  2.1652
   19MOL   H271 5707   1.894   3.929   5.889 -0.5938  1.2501  1.1832
   19MOL   C272 5708   1.856   4.422   5.847 -0.2685 -0.3863  0.0848
   19MOL   C273 5709   1.715   4.357   5.855 -0.6856 -0.0086 -0.5405
   19MOL   C274 5710   1.613   4.454   5.914 -0.1995 -0.0351  0.4262
   19MOL   C275 5711   1.559   4.424   6.039 -1.0190  0.1769 -0.5130
   19MOL   C276 5712   1.473   4.519   6.094 -0.2153  0.3228 -0.3652
   19MOL   C277 5713   1.427   4.626   6.013  0.5457  0.0819 -0.3117
   19MOL   C278 5714   1.479   4.643   5.885 -0.3149  0.0963  0.1975
   19MOL   N279 5715   1.570   4.556   5.831 -0.3028  0.1948  0.3515
   19MOL   H280 5716   1.876   4.417   5.740  1.2645 -5.1387  0.4769
   19MOL   H281 5717   1.840   4.520   5.892 -1.7902 -0.7406  0.3493
   19MOL   H282 5718   1.721   4.288   5.939 -1.5060  1.7601  0.9939
   19MOL   H283 5719   1.587   4.345   6.107 -0.1878  1.9060  1.1959
   19MOL   H284 5720   1.434   4.502   6.193 -0.5735  0.0268 -0.5534
   19MOL   H285 5721   1.351   4.694   6.047 -0.7597 -1.8582  0.6957
   19MOL   H286 5722   1.434   4.714   5.817 -0.8332 -0.5494 -0.1392
   19MOL   C287 5723   1.666   4.277   5.737 -0.5214 -0.2130  0.3948
   19MOL   C288 5724   1.573   4.164   5.773 -0.3703 -0.5271 -0.6141
   19MOL   C289 5725   1.500   4.099   5.659 -0.4186  0.4334  0.4588
   19MOL   C290 5726   1.388   4.152   5.590 -0.0603  0.0057  0.5143
   19MOL   C291 5727   1.327   4.091   5.485 -0.3944  0.4486  0.5671
   19MOL   C292 5728   1.388   3.973   5.439  0.5616  0.3463  0.2626
   19MOL   C293 5729   1.503   3.926   5.505 -0.1371  0.3460 -0.0406
   19MOL   N294 5730   1.558   3.985   5.613 -0.4101 -0.2194 -0.0273
   19MOL   H295 5731   1.738   4.238   5.665 -0.5483  0.5803 -0.0636
   19MOL   H296 5732   1.613   4.346   5.671  0.5001  1.5169  1.3493
   19MOL   H297 5733   1.508   4.198   5.854  1.6006 -1.4780  1.4201
   19MOL   H298 5734   1.346   4.246   5.622 -2.2371 -0.6692 -0.3095
   19MOL   H299 5735   1.240   4.140   5.446 -1.9519 -2.3264  0.4388
   19MOL   H300 5736   1.348   3.908   5.362  1.0032  2.7320 -2.0415
   19MOL   H301 5737   1.561   3.842   5.472  0.9618  1.1629 -0.2031
   19MOL   H302 5738   1.645   4.097   5.821  1.4570  0.3926 -2.0072
   20MOL     C1 5739   6.689   2.667   0.388 -0.0551 -0.4883  0.1624
   20MOL     C2 5740   6.760   2.570   0.299 -0.2092  0.0498 -0.6089
   20MOL     C3 5741   6.668   2.535   0.180  0.2083 -0.0116 -0.2486
   20MOL     C4 5742   6.583   2.415   0.189 -0.0769 -0.4090  0.5433
   20MOL     C5 5743   6.497   2.391   0.085  0.5671  0.4630  0.6984
   20MOL     C6 5744   6.493   2.483   8.127  0.1135  0.3362 -0.1785
   20MOL     C7 5745   6.577   2.594   8.127  0.1076 -0.7686 -0.4624
   20MOL     N8 5746   6.657   2.626   0.080 -0.2552  0.1549  0.7603
   20MOL     H9 5747   6.593   2.627   0.419  0.1384 -1.5871 -0.6220
   20MOL    H10 5748   6.749   2.692   0.475  0.8605  0.8653 -0.8252
   20MOL    H11 5749   6.779   2.483   0.362  2.9560 -0.4098 -2.0769
   20MOL    H12 5750   6.607   2.359   0.279  1.8058 -0.7932 -0.1631
   20MOL    H13 5751   6.441   2.299   0.094  0.3461  0.6587  1.4201
   20MOL    H14 5752   6.435   2.463   8.037 -1.6386  1.9705  0.5616
   20MOL    H15 5753   6.559   2.672   8.055  1.1207 -0.4841 -0.4120
   20MOL    H16 5754   6.673   2.755   0.326  2.9965  0.5832  0.8092
   20MOL    C17 5755   6.893   2.613   0.244  0.0478  0.0817 -0.4521
   20MOL    C18 5756   6.963   2.497   0.159  0.3469  0.6443  0.4316
   20MOL    C19 5757   7.058   2.558   0.060  0.1282  0.0984  0.0032
   20MOL    C20 5758   7.036   2.547   8.072  0.0153  0.6748 -0.4957
   20MOL    C21 5759   7.130   2.601   7.987  0.1887 -0.3181 -0.2431
   20MOL    C22 5760   7.253   2.650   8.036  1.0964  0.7300  0.0798
   20MOL    C23 5761   7.258   2.668   0.025  0.1512 -0.5255 -0.3692
   20MOL    N24 5762   7.161   2.623   0.112 -0.3073  0.7424 -0.4761
   20MOL    H25 5763   6.965   2.637   0.322 -1.0768  2.1278 -0.0041
   20MOL    H26 5764   6.885   2.697   0.175 -1.1389 -0.5147 -1.0697
   20MOL    H27 5765   6.887   2.452   0.095  0.7436  6.3853 -4.5481
   20MOL    H28 5766   6.950   2.495   8.031  2.3613 -3.6134 -0.3437
   20MOL    H29 5767   7.127   2.577   7.882  1.8717 -0.1009 -0.3567
   20MOL    H30 5768   7.331   2.675   7.965  2.5081  0.7399  1.6045
   20MOL    H31 5769   7.335   2.723   0.077  0.6920 -1.4067 -0.2348
   20MOL    C32 5770   7.032   2.387   0.250 -0.6399  0.0453  0.0170
   20MOL    C33 5771   6.955   2.257   0.270  1.1045 -0.4180 -0.1236
   20MOL    C34 5772   6.937   2.170   0.146 -0.3163  0.4366  0.1573
   20MOL    C35 5773   6.808   2.110   0.111 -0.1492 -0.1002 -0.1114
   20MOL    C36 5774   6.812   2.023   0.005 -0.5135  0.0503  0.6386
   20MOL    C37 5775   6.926   2.006   8.076  0.3344 -0.0235 -0.0195
   20MOL    C38 5776   7.043   2.060   8.127 -0.2823 -0.2451  0.2267
   20MOL    N39 5777   7.051   2.146   0.076  0.7720  0.2680  0.0523
   20MOL    H40 5778   7.054   2.419   0.351  0.7584 -1.6997  0.3019
   20MOL    H41 5779   7.129   2.360   0.208  0.4881  2.5527  0.9540
   20MOL    H42 5780   6.852   2.278   0.300  0.6608  0.4013 -2.1044
   20MOL    H43 5781   6.719   2.150   0.158 -0.3177  0.4449 -0.8752
   20MOL    H44 5782   6.727   1.968   8.119 -0.4398  1.7797 -2.1693
   20MOL    H45 5783   6.939   1.954   7.982 -1.3622 -0.4024 -0.0418
   20MOL    H46 5784   7.130   2.054   8.063 -1.5929  0.0271 -1.6138
   20MOL    C47 5785   7.015   2.175   0.382 -0.0568  0.7436 -0.2747
   20MOL    C48 5786   6.956   2.200   0.523 -0.2266  0.0143 -0.0277
   20MOL    C49 5787   6.807   2.166   0.535 -0.2651 -0.4506  0.2762
   20MOL    C50 5788   6.729   2.246   0.608  0.2725 -0.7226 -0.3205
   20MOL    C51 5789   6.590   2.216   0.614 -0.3895  0.2655 -0.4119
   20MOL    C52 5790   6.546   2.097   0.557 -0.5609  0.8086 -0.0534
   20MOL    C53 5791   6.633   2.008   0.500 -0.5967  1.0113  0.0993
   20MOL    N54 5792   6.766   2.044   0.491 -0.1971  0.0663 -0.6362
   20MOL    H55 5793   7.123   2.191   0.382  0.2281 -1.0553 -1.0679
   20MOL    H56 5794   7.000   2.070   0.355  1.1672 -0.1577  2.3934
   20MOL    H57 5795   6.959   2.308   0.540 -0.7636  0.1810 -0.9611
   20MOL    H58 5796   6.773   2.338   0.644 -1.0597 -0.2692  0.2141
   20MOL    H59 5797   6.522   2.290   0.653  0.7188  2.4682 -2.5416
   20MOL    H60 5798   6.441   2.078   0.574  0.2805 -3.8271  0.6683
   20MOL    H61 5799   6.596   1.915   0.461  3.1367 -1.0800  1.2790
   20MOL    C62 5800   7.025   2.107   0.637 -0.1576 -0.9102  0.1690
   20MOL    C63 5801   7.144   2.185   0.705  0.0610  0.2142 -0.3553
   20MOL    C64 5802   7.117   2.333   0.736  0.5930 -0.3370 -0.2098
   20MOL    C65 5803   7.183   2.437   0.671  0.7006 -0.2169 -0.0076
   20MOL    C66 5804   7.145   2.569   0.693  0.1257  0.1356  1.1143
   20MOL    C67 5805   7.026   2.586   0.766 -0.5583 -0.7265 -0.3021
   20MOL    C68 5806   6.961   2.480   0.829  0.1774 -0.1959 -0.6723
   20MOL    N69 5807   7.013   2.355   0.822  0.1236  0.3617  0.6596
   20MOL    H70 5808   7.053   2.008   0.603  0.9197 -1.2240  1.9310
   20MOL    H71 5809   6.958   2.091   0.721  1.0340  0.1549  1.3570
   20MOL    H72 5810   7.225   2.188   0.632  1.2982  0.2855  1.0104
   20MOL    H73 5811   7.275   2.420   0.618  0.4058  0.5929 -0.7897
   20MOL    H74 5812   7.203   2.643   0.639 -0.6940 -1.2708 -1.7875
   20MOL    H75 5813   6.979   2.682   0.779  0.2535 -0.1649 -1.5397
   20MOL    H76 5814   6.871   2.501   0.885  0.7396 -0.3738  0.3140
   20MOL    C77 5815   7.183   2.113   0.834 -0.0158  0.1120  0.5800
   20MOL    C78 5816   7.255   1.973   0.806  0.0500 -0.5272 -0.3717
   20MOL    C79 5817   7.399   1.997   0.765  0.4406  0.2058 -0.7030
   20MOL    C80 5818   7.444   1.984   0.633 -0.0349 -0.2888  0.3134
   20MOL    C81 5819   7.582   2.020   0.608  0.5710  0.6938 -0.1859
   20MOL    C82 5820   7.663   2.068   0.710 -0.6316  0.0257  0.0492
   20MOL    C83 5821   7.605   2.072   0.839 -0.0624  0.4419 -0.3553
   20MOL    N84 5822   7.481   2.037   0.861 -0.2867 -0.3524 -0.4103
   20MOL    H85 5823   7.104   2.111   0.910  0.5516 -1.5844  1.1514
   20MOL    H86 5824   7.254   2.175   0.888 -0.7419  1.9456 -0.5202
   20MOL    H87 5825   7.207   1.920   0.724 -1.3742 -1.0039  0.7271
   20MOL    H88 5826   7.385   1.943   0.553  0.2795 -2.3513  1.1195
   20MOL    H89 5827   7.615   2.002   0.507  1.4479 -1.8470  0.5096
   20MOL    H90 5828   7.763   2.106   0.693 -0.7858  0.1450 -0.5828
   20MOL    H91 5829   7.665   2.091   0.927 -2.0380  0.9186  0.9287
   20MOL    C92 5830   7.229   1.867   0.914  0.1208 -0.1550 -0.3574
   20MOL    C93 5831   7.082   1.818   0.947  0.7855 -0.3225  0.2294
   20MOL    C94 5832   7.015   1.748   0.831  0.1203 -0.5167  0.1232
   20MOL    C95 5833   6.920   1.803   0.745 -0.4331  0.1189 -0.4449
   20MOL    C96 5834   6.879   1.724   0.630 -0.4980 -0.0607  0.5128
   20MOL    C97 5835   6.933   1.590   0.614  0.4455  0.5439 -0.5811
   20MOL    C98 5836   7.012   1.541   0.714  0.6455 -0.1742  0.4653
   20MOL    N99 5837   7.061   1.620   0.812  0.1543 -0.5566  0.4970
   20MOL   H100 5838   7.284   1.887   1.006 -2.1249  1.6940  0.6347
   20MOL   H101 5839   7.298   1.787   0.885  0.9332  0.0963  0.8293
   20MOL   H102 5840   7.028   1.912   0.956  0.3760 -0.4080 -1.2435
   20MOL   H103 5841   6.898   1.907   0.761  0.1136 -0.1539  2.3137
   20MOL   H104 5842   6.816   1.765   0.554  1.6735  0.1985 -1.1999
   20MOL   H105 5843   6.903   1.529   0.530 -0.2108 -1.3891  0.9884
   20MOL   H106 5844   7.032   1.435   0.711 -0.8795 -0.4304 -1.1899
   20MOL   C107 5845   7.069   1.745   1.077  0.6918 -0.1549  0.1557
   20MOL   C108 5846   6.930   1.716   1.132 -0.1104 -0.0923 -0.5365
   20MOL   C109 5847   6.940   1.577   1.187  0.2147 -0.8231  0.0081
   20MOL   C110 5848   6.896   1.469   1.117 -0.4099 -0.7367 -0.0188
   20MOL   C111 5849   6.905   1.344   1.182  0.1081  0.7634  0.3973
   20MOL   C112 5850   6.963   1.334   1.310 -0.5971 -0.0053 -0.8323
   20MOL   C113 5851   6.998   1.453   1.376  0.0946 -0.0530 -0.1054
   20MOL   N114 5852   6.996   1.568   1.307  0.0877 -0.0229 -0.6271
   20MOL   H115 5853   7.139   1.779   1.153 -0.1725 -0.4915  1.1129
   20MOL   H116 5854   7.113   1.648   1.052  0.1119 -0.1549 -0.8795
   20MOL   H117 5855   6.850   1.712   1.058 -0.7201  1.1707  0.0579
   20MOL   H118 5856   6.862   1.482   1.015 -3.2729 -0.8971  0.8938
   20MOL   H119 5857   6.886   1.260   1.117  3.0466  1.0390 -0.9125
   20MOL   H120 5858   6.976   1.236   1.356  0.3144  0.5687  0.1574
   20MOL   H121 5859   7.036   1.457   1.477 -1.3309 -0.3376  0.4575
   20MOL   C122 5860   6.878   1.814   1.235  0.4001 -0.8241 -0.6844
   20MOL   C123 5861   6.866   1.963   1.188 -0.6661 -0.0740  0.4664
   20MOL   C124 5862   6.753   1.979   1.086 -0.1400  0.9347  0.5493
   20MOL   C125 5863   6.621   1.960   1.129  0.1169 -0.5150 -0.3602
   20MOL   C126 5864   6.516   1.989   1.038  0.0895  0.1545 -0.5512
   20MOL   C127 5865   6.549   2.025   0.908  0.4925 -0.0826 -0.4036
   20MOL   C128 5866   6.689   2.024   0.873  0.4692  0.4928  0.0248
   20MOL   N129 5867   6.789   1.995   0.961 -0.0032 -0.0581 -0.2348
   20MOL   H130 5868   6.944   1.809   1.321 -2.1918 -0.9885  1.3771
   20MOL   H131 5869   6.782   1.786   1.280  0.8822 -0.2922  0.6871
   20MOL   H132 5870   6.960   1.988   1.138 -0.7529 -1.9535 -0.6976
   20MOL   H133 5871   6.587   1.937   1.229 -0.4914  1.7256 -0.0182
   20MOL   H134 5872   6.413   1.991   1.072  0.6086  2.2811  1.0149
   20MOL   H135 5873   6.478   2.038   0.827  1.5039 -0.9281 -1.4576
   20MOL   H136 5874   6.718   2.043   0.771  0.8320  0.1849  0.0691
   20MOL   C137 5875   6.863   2.067   1.304  0.0648 -0.5446 -0.8014
   20MOL   C138 5876   6.965   2.182   1.302 -0.1340  0.0025 -0.4042
   20MOL   C139 5877   7.106   2.122   1.314  0.6163 -0.4172 -0.0630
   20MOL   C140 5878   7.185   2.072   1.211 -0.3196 -0.0884  0.1057
   20MOL   C141 5879   7.311   2.012   1.244 -0.7381 -0.3998 -0.2570
   20MOL   C142 5880   7.356   2.014   1.373  0.5551 -0.8322  0.3934
   20MOL   C143 5881   7.274   2.077   1.468 -0.0148  0.0018 -0.1419
   20MOL   N144 5882   7.152   2.122   1.439 -0.2637 -0.6066 -0.1706
   20MOL   H145 5883   6.876   2.020   1.402  0.2717  1.7580  0.3172
   20MOL   H146 5884   6.767   2.116   1.318  1.2205  0.9699  2.4231
   20MOL   H147 5885   6.942   2.237   1.393 -0.8934 -0.6536 -0.1992
   20MOL   H148 5886   7.154   2.066   1.108  0.1613 -0.2947 -0.0281
   20MOL   H149 5887   7.374   1.975   1.165 -0.4719  0.4478 -0.4466
   20MOL   H150 5888   7.454   1.980   1.405  0.7493 -2.7669 -2.0832
   20MOL   H151 5889   7.304   2.085   1.572 -0.3062 -0.4809 -0.0179
   20MOL   C152 5890   6.945   2.278   1.175  0.2005 -0.1542  0.2283
   20MOL   C153 5891   6.860   2.406   1.188  0.6141 -0.6200  0.9294
   20MOL   C154 5892   6.707   2.392   1.167 -0.5907 -0.3036  0.2118
   20MOL   C155 5893   6.627   2.341   1.268  0.1580 -0.0803  0.1136
   20MOL   C156 5894   6.492   2.312   1.244  0.1947  0.6167  0.3141
   20MOL   C157 5895   6.444   2.349   1.119 -0.4447 -0.3651  0.4009
   20MOL   C158 5896   6.527   2.400   1.018 -1.0164  0.8552  0.6749
   20MOL   N159 5897   6.655   2.416   1.042  0.2169  0.6089  0.1890
   20MOL   H160 5898   6.921   2.210   1.093 -0.4156  0.8123 -0.4077
   20MOL   H161 5899   7.045   2.315   1.153 -0.4971  0.7720 -1.4680
   20MOL   H162 5900   6.892   2.458   1.098 -0.5078 -1.3349  0.1117
   20MOL   H163 5901   6.675   2.316   1.362  0.4720  0.3433  0.0686
   20MOL   H164 5902   6.434   2.267   1.323 -0.6957  1.7066  0.2865
   20MOL   H165 5903   6.341   2.333   1.091 -0.1983  0.8119 -1.2119
   20MOL   H166 5904   6.484   2.409   0.919  2.1126 -0.7462 -0.9138
   20MOL   C167 5905   6.893   2.498   1.310 -0.4869  0.2910 -0.3454
   20MOL   C168 5906   6.819   2.637   1.312 -0.7860 -0.2765  0.5571
   20MOL   C169 5907   6.859   2.731   1.425  0.4334  0.4985 -0.7493
   20MOL   C170 5908   6.766   2.759   1.525 -0.3101  0.0367  0.9298
   20MOL   C171 5909   6.806   2.838   1.627 -0.5054  0.2167  0.4276
   20MOL   C172 5910   6.937   2.881   1.629 -0.8350 -0.2533 -0.7728
   20MOL   C173 5911   7.025   2.863   1.526  0.2834 -0.9129  1.1335
   20MOL   N174 5912   6.987   2.790   1.423  0.3463  0.1892  0.5083
   20MOL   H175 5913   7.000   2.517   1.311 -0.4252  0.0605 -1.7667
   20MOL   H176 5914   6.870   2.449   1.404 -2.2293 -0.8735 -1.3474
   20MOL   H177 5915   6.715   2.609   1.328 -0.6760 -1.0099  0.0101
   20MOL   H178 5916   6.669   2.712   1.526 -0.6021  0.6026  0.1741
   20MOL   H179 5917   6.733   2.855   1.704 -1.4146  0.5772 -0.5011
   20MOL   H180 5918   6.958   2.959   1.699 -0.7985  0.9082 -2.0627
   20MOL   H181 5919   7.117   2.920   1.519 -1.3722  2.1377  3.0150
   20MOL   C182 5920   6.853   2.722   1.179 -0.3351 -0.4036 -0.1216
   20MOL   C183 5921   6.780   2.857   1.162 -0.5737  0.2450  0.3831
   20MOL   C184 5922   6.828   2.939   1.040  0.0997  0.6385  0.1583
   20MOL   C185 5923   6.875   3.071   1.066 -0.3950 -0.1669  0.0506
   20MOL   C186 5924   6.898   3.158   0.951 -0.5089 -0.1757  0.4738
   20MOL   C187 5925   6.871   3.107   0.824 -0.0864  0.8244  0.4257
   20MOL   C188 5926   6.840   2.970   0.816 -0.1643 -0.0437 -0.3116
   20MOL   N189 5927   6.819   2.887   0.917 -0.1082 -0.1923  0.3507
   20MOL   H190 5928   6.826   2.656   1.097  0.0338 -0.3528 -0.2839
   20MOL   H191 5929   6.961   2.736   1.174 -0.2709 -1.0045 -0.3900
   20MOL   H192 5930   6.795   2.918   1.251 -1.1023  2.1121 -0.7787
   20MOL   H193 5931   6.898   3.112   1.163  1.1569 -0.5875 -0.1195
   20MOL   H194 5932   6.939   3.257   0.959  0.7367 -0.5571 -1.0135
   20MOL   H195 5933   6.887   3.173   0.740  3.0928 -0.1214  0.1996
   20MOL   H196 5934   6.835   2.927   0.716  0.8886 -0.9450  0.0120
   20MOL   C197 5935   6.628   2.837   1.145 -0.4183 -0.3953 -0.0417
   20MOL   C198 5936   6.544   2.926   1.243 -0.2344 -0.3199 -0.2819
   20MOL   C199 5937   6.590   3.072   1.226 -0.1184 -0.8969  0.1779
   20MOL   C200 5938   6.660   3.137   1.330  0.1933 -0.5248  0.1507
   20MOL   C201 5939   6.691   3.271   1.312  0.1319  0.9919 -0.1570
   20MOL   C202 5940   6.673   3.331   1.186 -0.0101 -1.0195  0.1005
   20MOL   C203 5941   6.605   3.257   1.088 -0.4379  0.3066  0.2584
   20MOL   N204 5942   6.559   3.131   1.109 -0.2465  0.1867  0.4554
   20MOL   H205 5943   6.594   2.736   1.170 -0.2365 -0.6923 -0.9539
   20MOL   H206 5944   6.587   2.860   1.047  0.7205  1.0994 -0.1825
   20MOL   H207 5945   6.568   2.906   1.348  0.7930 -0.2269 -0.4925
   20MOL   H208 5946   6.671   3.092   1.427  1.2966  0.5836  0.5485
   20MOL   H209 5947   6.722   3.331   1.396 -1.2260 -0.0650  1.1410
   20MOL   H210 5948   6.692   3.432   1.155 -0.3439 -1.3717 -1.3018
   20MOL   H211 5949   6.586   3.300   0.990  0.5710 -0.2036 -0.1725
   20MOL   C212 5950   6.388   2.912   1.223  0.1622 -0.0934  0.0447
   20MOL   C213 5951   6.317   2.792   1.284  0.3896  0.4455 -0.0211
   20MOL   C214 5952   6.326   2.777   1.435  0.2269 -0.1448  0.5541
   20MOL   C215 5953   6.384   2.659   1.477  0.3111  0.3047  0.0789
   20MOL   C216 5954   6.412   2.635   1.610  0.5411 -1.1073 -0.8082
   20MOL   C217 5955   6.366   2.738   1.700  0.4957  0.4178  0.5063
   20MOL   C218 5956   6.305   2.853   1.645 -0.3143 -0.8303 -0.3953
   20MOL   N219 5957   6.289   2.879   1.515 -0.2197 -0.3623  0.3218
   20MOL   H220 5958   6.361   2.923   1.118  1.2156  0.1050 -0.2076
   20MOL   H221 5959   6.332   2.989   1.275 -2.0930 -1.9010  0.3776
   20MOL   H222 5960   6.370   2.710   1.236  1.6721  2.4251 -2.0975
   20MOL   H223 5961   6.403   2.583   1.402 -1.9454  0.2390 -0.4681
   20MOL   H224 5962   6.451   2.540   1.644 -0.6781 -0.7926  1.5254
   20MOL   H225 5963   6.374   2.732   1.808  0.3179 -0.4906  0.4693
   20MOL   H226 5964   6.272   2.928   1.715 -0.2246 -2.3616  1.3311
   20MOL   C227 5965   6.168   2.775   1.249  1.0508 -0.2545  0.2342
   20MOL   C228 5966   6.128   2.691   1.132 -0.1527 -0.1687  0.5854
   20MOL   C229 5967   6.193   2.742   0.999  0.0988 -0.5300  0.3447
   20MOL   C230 5968   6.128   2.838   0.922 -0.2388  0.3703 -0.2563
   20MOL   C231 5969   6.190   2.896   0.812 -0.6420 -0.2736  0.6287
   20MOL   C232 5970   6.322   2.859   0.781  0.0268  0.1981 -0.2062
   20MOL   C233 5971   6.380   2.761   0.867  0.4275  0.5338  0.3759
   20MOL   N234 5972   6.323   2.700   0.968  0.3309  0.2483  0.4389
   20MOL   H235 5973   6.131   2.877   1.233  2.6688  0.4714  0.9487
   20MOL   H236 5974   6.109   2.744   1.335 -0.5852  0.0074 -0.7748
   20MOL   H237 5975   6.022   2.703   1.107  0.1741 -0.0846 -0.7437
   20MOL   H238 5976   6.036   2.878   0.963  0.9825  1.0342  1.9083
   20MOL   H239 5977   6.131   2.972   0.764 -3.5853 -1.6171  2.0011
   20MOL   H240 5978   6.378   2.897   0.697 -0.0766  0.7130 -0.0415
   20MOL   H241 5979   6.485   2.738   0.854  0.9154  2.9427 -0.3579
   20MOL   C242 5980   6.154   2.541   1.145 -0.1483  0.3591 -0.1911
   20MOL   C243 5981   6.057   2.446   1.223  0.3068  0.2577  0.0643
   20MOL   C244 5982   5.923   2.454   1.153  0.2961 -0.0239  0.7613
   20MOL   C245 5983   5.906   2.403   1.017  0.1555 -0.5012  0.0166
   20MOL   C246 5984   5.777   2.387   0.973  0.2491  0.3819  0.3880
   20MOL   C247 5985   5.671   2.432   1.051 -0.2092 -0.1160  0.3781
   20MOL   C248 5986   5.702   2.498   1.173  0.2063  0.5156  0.6448
   20MOL   N249 5987   5.824   2.500   1.224  0.3366 -0.7356  0.2364
   20MOL   H250 5988   6.242   2.534   1.208 -0.2494  0.9426  0.0183
   20MOL   H251 5989   6.179   2.509   1.044  0.3745 -1.2021  0.4170
   20MOL   H252 5990   6.058   2.490   1.323 -4.1660  2.0703 -0.5796
   20MOL   H253 5991   5.986   2.369   0.954 -1.0579 -1.7470 -0.8668
   20MOL   H254 5992   5.761   2.356   0.871  0.1304 -1.3201  0.9174
   20MOL   H255 5993   5.567   2.429   1.022  0.2134 -1.2320 -1.0792
   20MOL   H256 5994   5.619   2.550   1.219 -0.2255 -0.3916  0.8936
   20MOL   C257 5995   6.107   2.298   1.226 -0.2083 -0.5815 -0.3890
   20MOL   C258 5996   6.015   2.186   1.284  0.0925 -0.6166  0.7439
   20MOL   C259 5997   6.049   2.042   1.234  0.3541  0.3601 -0.3421
   20MOL   C260 5998   5.980   1.993   1.120  0.1630  0.0363  0.1868
   20MOL   C261 5999   6.008   1.869   1.069  0.3028 -0.1811  0.5415
   20MOL   C262 6000   6.127   1.805   1.129 -0.1930 -0.1690  1.1069
   20MOL   C263 6001   6.193   1.869   1.239 -0.3893  0.2504 -0.3807
   20MOL   N264 6002   6.157   1.985   1.291 -0.3082 -0.0816  0.0686
   20MOL   H265 6003   6.207   2.294   1.271 -0.3883 -0.7733 -0.0048
   20MOL   H266 6004   6.127   2.272   1.122  1.6977  1.8265 -0.6795
   20MOL   H267 6005   5.916   2.210   1.247 -0.1032 -0.9107  1.0662
   20MOL   H268 6006   5.893   2.050   1.092  0.6034  0.4487 -0.3509
   20MOL   H269 6007   5.947   1.831   0.989  3.2180 -0.9073 -1.4358
   20MOL   H270 6008   6.163   1.710   1.093 -0.6491 -0.3925  1.2330
   20MOL   H271 6009   6.281   1.826   1.285  0.4892  0.0373 -2.1965
   20MOL   C272 6010   5.999   2.197   1.435  0.7357  0.1357  0.0393
   20MOL   C273 6011   5.921   2.084   1.513  0.2042 -0.3067  0.3987
   20MOL   C274 6012   5.925   2.106   1.661  0.2060 -0.1435 -0.8683
   20MOL   C275 6013   5.959   1.998   1.743 -0.4526 -0.0304  0.2443
   20MOL   C276 6014   5.949   2.016   1.882  0.8061 -0.0572  0.1115
   20MOL   C277 6015   5.907   2.144   1.929 -0.0099  0.1523 -0.2102
   20MOL   C278 6016   5.879   2.245   1.838 -0.2470  0.1473  0.8112
   20MOL   N279 6017   5.882   2.223   1.709  0.6602  0.1975  0.0092
   20MOL   H280 6018   5.971   2.298   1.465  0.1360 -0.4715  1.5972
   20MOL   H281 6019   6.097   2.182   1.481  0.0746  1.0252  1.7579
   20MOL   H282 6020   5.967   1.991   1.480  1.6591  0.3319  0.6206
   20MOL   H283 6021   5.993   1.900   1.714 -1.6729 -0.5496  0.5319
   20MOL   H284 6022   5.964   1.939   1.956  1.4204  0.1331  0.1883
   20MOL   H285 6023   5.900   2.166   2.035 -0.8508  0.2058 -0.2717
   20MOL   H286 6024   5.845   2.346   1.858 -1.2715 -0.2535  1.1114
   20MOL   C287 6025   5.772   2.078   1.476 -0.3316  0.0115  0.0465
   20MOL   C288 6026   5.739   1.987   1.356  0.4537  0.3222 -0.1586
   20MOL   C289 6027   5.592   1.935   1.375 -0.6099  0.3276  0.1467
   20MOL   C290 6028   5.565   1.800   1.362  0.3239  0.2074 -0.3630
   20MOL   C291 6029   5.431   1.756   1.361  0.1368 -0.1575  0.0541
   20MOL   C292 6030   5.331   1.853   1.366 -0.2853 -0.1438 -0.1475
   20MOL   C293 6031   5.371   1.992   1.391 -0.0239  0.0342  0.0219
   20MOL   N294 6032   5.497   2.032   1.402 -0.2160  0.0835  0.3100
   20MOL   H295 6033   5.726   2.177   1.470  1.6465  0.8762 -1.7844
   20MOL   H296 6034   5.716   2.034   1.558 -0.4845  0.2920  0.0925
   20MOL   H297 6035   5.812   1.907   1.346 -0.0745 -0.3063  0.8814
   20MOL   H298 6036   5.642   1.724   1.360 -0.2692 -0.4008 -0.1835
   20MOL   H299 6037   5.403   1.652   1.348  0.2182 -0.1526 -0.1536
   20MOL   H300 6038   5.224   1.843   1.360 -0.3996  2.0328 -2.7677
   20MOL   H301 6039   5.295   2.069   1.397 -0.3637 -0.3410  0.6013
   20MOL   H302 6040   5.742   2.048   1.266 -0.3167  0.0769 -0.3521
   21MOL     C1 6041   7.259   6.567   6.164 -0.2099  0.4679  0.0604
   21MOL     C2 6042   7.250   6.456   6.271  0.0505  1.0618 -0.9840
   21MOL     C3 6043   7.111   6.378   6.250  0.2810 -0.3666 -0.1817
   21MOL     C4 6044   6.995   6.423   6.320  0.0441 -0.1886 -0.8540
   21MOL     C5 6045   6.870   6.367   6.286 -0.2485 -0.1486 -0.2544
   21MOL     C6 6046   6.869   6.258   6.200 -0.0238  0.0128  0.5116
   21MOL     C7 6047   6.988   6.226   6.134 -0.6997 -0.4184  0.0836
   21MOL     N8 6048   7.105   6.287   6.147 -0.6001  0.5153 -0.1353
   21MOL     H9 6049   7.240   6.515   6.070 -0.0041 -0.1275  0.3407
   21MOL    H10 6050   7.192   6.647   6.196 -0.7721  0.0549 -0.0749
   21MOL    H11 6051   7.254   6.506   6.367  1.2017  0.0866 -0.5100
   21MOL    H12 6052   6.990   6.506   6.389 -1.5864  0.3685 -1.6035
   21MOL    H13 6053   6.776   6.393   6.332  0.1398  0.7020  0.0614
   21MOL    H14 6054   6.784   6.204   6.162  0.0383  0.0733  0.2869
   21MOL    H15 6055   6.984   6.159   6.049  0.9393 -0.8820  0.3537
   21MOL    H16 6056   7.360   6.605   6.153  1.1101 -2.0237  2.8133
   21MOL    C17 6057   7.376   6.365   6.279 -0.0145 -0.1708  0.4226
   21MOL    C18 6058   7.371   6.263   6.395 -0.1813  0.1604 -0.3475
   21MOL    C19 6059   7.434   6.125   6.360  0.5785 -0.2605 -0.3035
   21MOL    C20 6060   7.350   6.017   6.358  0.7866 -0.2868  0.1504
   21MOL    C21 6061   7.403   5.897   6.299  0.6229 -0.6151 -0.2456
   21MOL    C22 6062   7.531   5.892   6.247 -0.1763  0.5031 -0.2200
   21MOL    C23 6063   7.603   6.008   6.250  0.5642  0.3413  0.0302
   21MOL    N24 6064   7.557   6.123   6.310 -0.0101 -1.1022  0.3814
   21MOL    H25 6065   7.468   6.423   6.277  0.1004 -0.3808 -1.3260
   21MOL    H26 6066   7.381   6.308   6.186  0.9464  1.6956 -0.7085
   21MOL    H27 6067   7.264   6.243   6.405  0.0621 -1.0297  0.0507
   21MOL    H28 6068   7.244   6.021   6.375  0.5536 -1.3714 -0.9211
   21MOL    H29 6069   7.333   5.817   6.282 -1.0416  0.9031 -0.7549
   21MOL    H30 6070   7.564   5.805   6.191  0.8342 -0.2803  1.5346
   21MOL    H31 6071   7.701   5.993   6.208  0.3623 -1.0154  0.0086
   21MOL    C32 6072   7.413   6.323   6.531  0.0615  0.4476  0.0472
   21MOL    C33 6073   7.564   6.328   6.571  0.5285  0.9784  0.5444
   21MOL    C34 6074   7.586   6.460   6.643  0.0771  0.9139  0.6543
   21MOL    C35 6075   7.670   6.560   6.587  0.2925 -0.1284  0.0473
   21MOL    C36 6076   7.693   6.679   6.666 -0.0242  0.2415  0.0537
   21MOL    C37 6077   7.637   6.689   6.787 -0.6337 -0.3936 -0.2039
   21MOL    C38 6078   7.563   6.581   6.836 -0.5306 -0.1745 -0.1083
   21MOL    N39 6079   7.539   6.465   6.770 -0.8194  0.1805 -0.0474
   21MOL    H40 6080   7.368   6.269   6.614 -0.4314  1.0194  0.1564
   21MOL    H41 6081   7.366   6.421   6.531  0.5023  0.6587  0.6224
   21MOL    H42 6082   7.626   6.329   6.481 -1.9987 -0.1271 -1.2655
   21MOL    H43 6083   7.717   6.540   6.492  1.7981  0.0861  0.7310
   21MOL    H44 6084   7.741   6.767   6.626 -0.7826 -0.1417 -1.7697
   21MOL    H45 6085   7.669   6.777   6.840 -2.4440  1.3760 -1.9858
   21MOL    H46 6086   7.544   6.581   6.942  0.8711  0.4033  0.1561
   21MOL    C47 6087   7.616   6.203   6.649  0.4153 -0.4261 -1.0287
   21MOL    C48 6088   7.761   6.211   6.713  0.0646  0.7911  0.0227
   21MOL    C49 6089   7.791   6.101   6.810  0.1619  0.6267 -0.5661
   21MOL    C50 6090   7.863   6.125   6.929 -0.0781 -0.3951 -0.6658
   21MOL    C51 6091   7.913   6.015   7.001 -0.1795 -0.4660 -0.1259
   21MOL    C52 6092   7.894   5.885   6.955 -0.2550  0.0092 -0.6014
   21MOL    C53 6093   7.815   5.865   6.840  0.8942  0.2579  0.4216
   21MOL    N54 6094   7.776   5.974   6.768  0.0106 -0.0712  0.2263
   21MOL    H55 6095   7.608   6.115   6.585 -3.8204  0.3800 -1.7400
   21MOL    H56 6096   7.548   6.177   6.730 -0.1237  0.9966 -1.0208
   21MOL    H57 6097   7.760   6.302   6.774  1.3336  2.3438 -2.2092
   21MOL    H58 6098   7.881   6.227   6.957 -1.3222 -0.5407  0.6573
   21MOL    H59 6099   7.968   6.036   7.091 -1.7872 -0.0047  0.7823
   21MOL    H60 6100   7.940   5.802   7.007  2.3434 -0.0765 -2.9158
   21MOL    H61 6101   7.792   5.765   6.807  1.2198  0.2524  0.2124
   21MOL    C62 6102   7.865   6.220   6.595 -0.7036 -0.0965  0.0220
   21MOL    C63 6103   8.007   6.280   6.636 -0.0303  0.2662  0.1145
   21MOL    C64 6104   8.120   6.246   6.527 -0.3580 -0.0855 -0.1152
   21MOL    C65 6105   0.056   6.138   6.545 -0.7453  0.3195  0.1588
   21MOL    C66 6106   0.159   6.127   6.450 -0.0598  0.3720  0.1019
   21MOL    C67 6107   0.161   6.213   6.340 -0.2142  0.5562 -0.0618
   21MOL    C68 6108   0.058   6.300   6.319  0.5374 -0.0490  0.1871
   21MOL    N69 6109   8.113   6.319   6.409  0.8308 -0.0787 -0.2014
   21MOL    H70 6110   7.827   6.270   6.506 -0.2657 -0.6292 -0.4713
   21MOL    H71 6111   7.882   6.116   6.566  1.8191  0.6092 -1.2117
   21MOL    H72 6112   8.040   6.231   6.727  0.4002 -2.3320 -1.3853
   21MOL    H73 6113   0.045   6.071   6.629 -1.0825  2.1461  1.6153
   21MOL    H74 6114   0.243   6.062   6.468 -1.0627 -1.8192 -2.7998
   21MOL    H75 6115   0.238   6.193   6.268 -0.9695 -0.5372 -0.5841
   21MOL    H76 6116   0.055   6.367   6.234  1.7390  0.0213  0.1918
   21MOL    C77 6117   7.994   6.431   6.687 -0.5321  0.6308  0.0179
   21MOL    C78 6118   8.123   6.511   6.678 -0.0064 -0.2343  0.5433
   21MOL    C79 6119   8.086   6.658   6.705  0.4124  0.3025  0.1943
   21MOL    C80 6120   8.075   6.753   6.607 -0.3080 -0.3116 -0.0034
   21MOL    C81 6121   8.014   6.877   6.630 -1.0545 -0.7523  0.1819
   21MOL    C82 6122   7.964   6.904   6.759  0.1900  0.7392  0.6203
   21MOL    C83 6123   7.993   6.810   6.859  1.1633 -0.3957  0.5076
   21MOL    N84 6124   8.045   6.689   6.830  0.0910  0.6013 -0.0520
   21MOL    H85 6125   7.940   6.436   6.782  0.4709  2.5858  0.5118
   21MOL    H86 6126   7.921   6.478   6.621  0.0328  0.8678 -0.4415
   21MOL    H87 6127   0.009   6.504   6.576  1.3657  2.3960  0.8417
   21MOL    H88 6128   8.112   6.726   6.509  1.8622  2.0509  0.1229
   21MOL    H89 6129   8.002   6.938   6.542  0.6631 -2.3946 -1.2080
   21MOL    H90 6130   7.922   7.003   6.774 -1.8092  0.2441 -1.4072
   21MOL    H91 6131   7.967   6.829   6.962  0.6651  0.7392  0.1783
   21MOL    C92 6132   0.089   6.456   6.772 -0.0763 -0.0573  0.0647
   21MOL    C93 6133   0.225   6.522   6.736  0.6775 -0.8748  0.1735
   21MOL    C94 6134   0.310   6.569   6.857 -0.1793 -1.0090  0.4549
   21MOL    C95 6135   0.378   6.468   6.927 -0.1288  0.1163  0.2688
   21MOL    C96 6136   0.443   6.504   7.047  0.2590  0.5252 -0.1145
   21MOL    C97 6137   0.434   6.644   7.086  0.1162  0.9326  0.5321
   21MOL    C98 6138   0.382   6.733   6.999 -1.1330 -0.3413 -0.4260
   21MOL    N99 6139   0.315   6.701   6.887  0.1949 -0.3332  0.5921
   21MOL   H100 6140   0.098   6.348   6.766  0.5889  0.0377 -0.6291
   21MOL   H101 6141   0.075   6.471   6.879 -1.7304  1.5377 -0.3282
   21MOL   H102 6142   0.210   6.620   6.691  0.1295 -0.0421  2.1199
   21MOL   H103 6143   0.386   6.368   6.888 -0.0636  0.2546 -0.0729
   21MOL   H104 6144   0.503   6.431   7.100 -0.0430  1.3069  1.3278
   21MOL   H105 6145   0.474   6.678   7.180 -2.1274  1.8069  1.1934
   21MOL   H106 6146   0.385   6.833   7.039  0.4795 -0.7293  0.4818
   21MOL   C107 6147   0.309   6.453   6.619  0.3279 -0.0727  0.1712
   21MOL   C108 6148   0.455   6.491   6.602 -0.0167  0.5621  0.7720
   21MOL   C109 6149   0.539   6.391   6.520  0.8749  0.5492  1.1469
   21MOL   C110 6150   0.503   6.366   6.389  0.1006  0.3817 -0.0313
   21MOL   C111 6151   0.572   6.269   6.315 -0.0613 -0.4407 -0.0458
   21MOL   C112 6152   0.678   6.204   6.382 -0.4057  0.2817  1.0145
   21MOL   C113 6153   0.707   6.231   6.521 -0.4235  0.7727  0.0870
   21MOL   N114 6154   0.628   6.315   6.593  0.4263 -0.2271 -0.3894
   21MOL   H115 6155   0.254   6.474   6.528 -1.3426  1.3089  1.4623
   21MOL   H116 6156   0.296   6.345   6.627  2.3604 -0.4101 -0.8349
   21MOL   H117 6157   0.508   6.486   6.697  1.5896 -1.5508 -0.1921
   21MOL   H118 6158   0.432   6.428   6.336  1.5820  2.3962  0.2932
   21MOL   H119 6159   0.551   6.250   6.211  1.3829 -0.5426 -0.3225
   21MOL   H120 6160   0.738   6.133   6.327 -4.6832 -1.0114 -2.2216
   21MOL   H121 6161   0.782   6.176   6.576 -0.1063  0.9647 -0.1515
   21MOL   C122 6162   0.468   6.633   6.547  0.4414  0.9171  0.4144
   21MOL   C123 6163   0.558   6.739   6.617 -0.5243 -0.2304  0.1344
   21MOL   C124 6164   0.703   6.683   6.646  0.3951  0.6454 -0.1388
   21MOL   C125 6165   0.753   6.645   6.772 -0.2975 -0.0995 -0.4333
   21MOL   C126 6166   0.880   6.578   6.785  0.6000  0.3036  0.4642
   21MOL   C127 6167   0.946   6.544   6.666 -0.6174  0.7119 -0.3215
   21MOL   C128 6168   0.890   6.582   6.543 -0.0540 -0.3849 -0.2303
   21MOL   N129 6169   0.773   6.647   6.533  0.4944  0.0889  0.0592
   21MOL   H130 6170   0.369   6.679   6.541 -0.1515 -0.0827  2.2640
   21MOL   H131 6171   0.496   6.632   6.442 -2.2392 -0.9669 -0.3172
   21MOL   H132 6172   0.509   6.740   6.715  0.9071  0.4280  0.8685
   21MOL   H133 6173   0.698   6.672   6.860  0.2424  0.8291 -0.3702
   21MOL   H134 6174   0.921   6.552   6.881  0.9478  0.0642  0.2492
   21MOL   H135 6175   1.039   6.489   6.672 -0.8002  0.2321 -1.6713
   21MOL   H136 6176   0.956   6.564   6.459  2.1041  1.1109  1.0714
   21MOL   C137 6177   0.557   6.879   6.553  0.2041 -0.8744 -0.6105
   21MOL   C138 6178   0.446   6.989   6.583 -0.3453 -0.4711 -0.3725
   21MOL   C139 6179   0.443   7.042   6.726 -0.4866  1.0882  0.3730
   21MOL   C140 6180   0.316   7.045   6.786  0.2378  0.8681  0.0033
   21MOL   C141 6181   0.304   7.101   6.917  0.2613 -0.1244  0.5064
   21MOL   C142 6182   0.427   7.152   6.977 -0.0789  0.9737  0.3345
   21MOL   C143 6183   0.552   7.148   6.900  0.3215 -0.4025 -0.4516
   21MOL   N144 6184   0.558   7.086   6.782 -0.3185  0.0787  0.8264
   21MOL   H145 6185   0.574   6.864   6.447 -1.2341  0.2921 -1.0176
   21MOL   H146 6186   0.655   6.918   6.579 -0.3512 -0.4098  0.8667
   21MOL   H147 6187   0.354   6.937   6.557 -0.5322 -0.6559  0.6256
   21MOL   H148 6188   0.225   7.010   6.740 -0.0804  0.3014  1.0489
   21MOL   H149 6189   0.204   7.104   6.958  0.3176  2.4128  0.5183
   21MOL   H150 6190   0.437   7.211   7.067 -2.1513  0.6849  0.7861
   21MOL   H151 6191   0.644   7.189   6.940  0.2290 -1.4509  0.8784
   21MOL   C152 6192   0.445   7.096   6.474  0.5002 -0.1577 -0.2860
   21MOL   C153 6193   0.399   7.044   6.336  0.8506 -0.0625 -0.2318
   21MOL   C154 6194   0.246   7.028   6.330  0.3692  0.1627  0.5339
   21MOL   C155 6195   0.186   6.909   6.288  0.2994  0.3020 -0.0222
   21MOL   C156 6196   0.044   6.900   6.292 -0.1503  0.2644  0.0059
   21MOL   C157 6197   8.121   7.003   6.334  0.8324 -0.2338 -0.3776
   21MOL   C158 6198   0.040   7.122   6.373  0.0749  0.2044 -0.3633
   21MOL   N159 6199   0.175   7.135   6.372 -0.4009  0.1791  0.0926
   21MOL   H160 6200   0.542   7.146   6.471  0.8223 -0.8153 -1.3032
   21MOL   H161 6201   0.383   7.178   6.511  0.4431 -1.4573  2.5661
   21MOL   H162 6202   0.423   6.938   6.330 -1.3204 -0.6287  0.5892
   21MOL   H163 6203   0.254   6.832   6.253  0.3675 -0.1024  0.9772
   21MOL   H164 6204   8.142   6.820   6.243  0.1924  1.1701 -1.8664
   21MOL   H165 6205   8.013   7.008   6.333  0.7306 -1.5120  1.2681
   21MOL   H166 6206   8.148   7.215   6.408  2.3614  1.4075 -0.5882
   21MOL   C167 6207   0.442   7.123   6.212 -0.1141 -0.2734 -0.0968
   21MOL   C168 6208   0.591   7.092   6.169 -0.0561  0.0920  0.2175
   21MOL   C169 6209   0.629   6.941   6.180 -0.0017 -0.1760 -0.4751
   21MOL   C170 6210   0.751   6.906   6.230 -0.5263  0.1862  0.4368
   21MOL   C171 6211   0.790   6.776   6.252 -0.2508 -0.2257 -0.0463
   21MOL   C172 6212   0.696   6.672   6.219 -0.3711 -0.4710 -0.1418
   21MOL   C173 6213   0.586   6.719   6.142 -0.0853 -0.1218 -0.5228
   21MOL   N174 6214   0.554   6.850   6.120  0.5297 -0.4258 -0.3771
   21MOL   H175 6215   0.430   7.229   6.236  1.0685  0.1783 -1.4323
   21MOL   H176 6216   0.381   7.108   6.122  1.2970  2.7912 -1.6495
   21MOL   H177 6217   0.657   7.141   6.241 -0.7624 -1.6622  2.1127
   21MOL   H178 6218   0.821   6.979   6.268  0.8022 -0.9784  0.2528
   21MOL   H179 6219   0.885   6.755   6.299 -0.7303  0.5100  1.2776
   21MOL   H180 6220   0.722   6.569   6.238 -0.8667 -0.3670  1.1651
   21MOL   H181 6221   0.512   6.648   6.109 -1.5883  1.2146 -0.1147
   21MOL   C182 6222   0.635   7.140   6.035  0.7620 -0.3581  0.0149
   21MOL   C183 6223   0.609   7.295   6.016 -0.0762 -0.0895 -0.1075
   21MOL   C184 6224   0.679   7.373   6.132 -0.3810 -0.2619 -0.6695
   21MOL   C185 6225   0.615   7.470   6.206  0.3908  0.5538 -0.3903
   21MOL   C186 6226   0.686   7.551   6.299  0.6473  0.2661 -0.2505
   21MOL   C187 6227   0.822   7.514   6.318  0.5614 -0.5101 -0.0064
   21MOL   C188 6228   0.884   7.409   6.241 -0.0418 -0.6772 -0.1572
   21MOL   N189 6229   0.811   7.339   6.150 -0.1510  0.0355 -0.5468
   21MOL   H190 6230   0.595   7.074   5.958  1.7211 -0.3960 -0.4625
   21MOL   H191 6231   0.741   7.119   6.022  0.2005 -2.2705 -1.7921
   21MOL   H192 6232   0.502   7.313   6.023  0.2877  2.9113 -1.2112
   21MOL   H193 6233   0.507   7.476   6.194  0.3156 -1.1186 -0.5918
   21MOL   H194 6234   0.635   7.631   6.351 -0.6893  0.2952 -1.5636
   21MOL   H195 6235   0.878   7.559   6.399 -0.8785  0.9066  0.2230
   21MOL   H196 6236   0.980   7.367   6.267 -0.2819 -1.9589 -1.2531
   21MOL   C197 6237   0.661   7.350   5.878 -0.1492 -0.6167  0.0602
   21MOL   C198 6238   0.582   7.293   5.757  0.4711 -0.2747 -0.2080
   21MOL   C199 6239   0.440   7.350   5.748  0.1398  0.4646 -0.5080
   21MOL   C200 6240   0.330   7.264   5.785 -0.2529 -0.0725  0.2795
   21MOL   C201 6241   0.200   7.311   5.770  0.0735 -0.6779  0.7560
   21MOL   C202 6242   0.187   7.438   5.722 -0.2702 -0.8456  0.2925
   21MOL   C203 6243   0.294   7.516   5.690  0.1280  0.1475  0.5331
   21MOL   N204 6244   0.419   7.479   5.712 -0.2419  0.9812 -0.4889
   21MOL   H205 6245   0.770   7.348   5.876 -0.0956  0.9648  0.3854
   21MOL   H206 6246   0.642   7.457   5.882 -1.6689 -0.8953  0.2888
   21MOL   H207 6247   0.557   7.188   5.774 -1.4539 -0.2181 -2.3873
   21MOL   H208 6248   0.343   7.162   5.817  1.9121 -0.3838 -1.4947
   21MOL   H209 6249   0.112   7.259   5.804  0.8383 -3.6570 -1.6256
   21MOL   H210 6250   0.089   7.479   5.704  0.1251  0.2123  0.5481
   21MOL   H211 6251   0.284   7.615   5.647  0.7793 -0.0384 -0.0588
   21MOL   C212 6252   0.662   7.306   5.621  0.2187  0.0877 -0.1622
   21MOL   C213 6253   0.792   7.225   5.604 -0.8043  0.4994  0.4775
   21MOL   C214 6254   0.787   7.094   5.688  0.0263 -0.1821 -0.1341
   21MOL   C215 6255   0.872   7.070   5.793 -0.2096 -0.2569 -0.4829
   21MOL   C216 6256   0.870   6.939   5.846 -0.1434 -0.4555  0.4250
   21MOL   C217 6257   0.785   6.849   5.787  0.6475 -0.3279  0.0877
   21MOL   C218 6258   0.692   6.885   5.692  0.5077  0.2478  0.0452
   21MOL   N219 6259   0.698   7.007   5.635 -0.2386  0.0402 -0.1410
   21MOL   H220 6260   0.690   7.410   5.602 -2.3356  0.7666 -0.5203
   21MOL   H221 6261   0.593   7.274   5.543  2.2648 -1.8903 -1.1942
   21MOL   H222 6262   0.869   7.283   5.655  0.5335 -1.2776  0.5272
   21MOL   H223 6263   0.935   7.143   5.842 -1.7738  1.3179 -0.7589
   21MOL   H224 6264   0.941   6.911   5.923 -0.9526 -0.8608  1.0245
   21MOL   H225 6265   0.784   6.749   5.829 -0.9117 -0.8939 -1.2447
   21MOL   H226 6266   0.628   6.808   5.652 -0.5522  2.1660 -2.0359
   21MOL   C227 6267   0.845   7.200   5.462 -0.0652  0.0058  0.0749
   21MOL   C228 6268   0.873   7.317   5.369 -0.3768 -0.2884 -0.0048
   21MOL   C229 6269   0.983   7.411   5.424 -0.3356  0.4017 -0.7738
   21MOL   C230 6270   0.957   7.546   5.426 -0.2466  0.6600  0.6086
   21MOL   C231 6271   1.057   7.632   5.471 -0.4976  0.1263  0.4336
   21MOL   C232 6272   1.180   7.573   5.517 -0.6339 -0.9326 -0.1648
   21MOL   C233 6273   1.194   7.434   5.514 -0.0914  1.1485  0.0462
   21MOL   N234 6274   1.092   7.352   5.472 -0.1086  0.0470  0.1420
   21MOL   H235 6275   0.781   7.136   5.401  2.4285  0.0110 -2.7074
   21MOL   H236 6276   0.935   7.138   5.456 -1.1761 -1.6377 -0.0113
   21MOL   H237 6277   0.787   7.383   5.375  0.8903  1.3752  0.1436
   21MOL   H238 6278   0.869   7.590   5.381  0.3199 -1.1004 -2.2965
   21MOL   H239 6279   1.044   7.740   5.467 -1.9250 -0.0158  0.8470
   21MOL   H240 6280   1.255   7.642   5.552 -0.3072 -0.8715 -0.9827
   21MOL   H241 6281   1.278   7.384   5.559 -0.1889  0.0649 -0.9501
   21MOL   C242 6282   0.907   7.257   5.228 -0.0701  0.7718  0.8138
   21MOL   C243 6283   0.788   7.195   5.153 -0.7463  0.3020  0.4616
   21MOL   C244 6284   0.677   7.297   5.144  0.3032  0.3248  0.0280
   21MOL   C245 6285   0.556   7.285   5.222  0.5942  0.4283 -0.1230
   21MOL   C246 6286   0.464   7.391   5.226  0.0154 -0.4345  0.2504
   21MOL   C247 6287   0.493   7.509   5.148  0.3540  0.5701 -0.1261
   21MOL   C248 6288   0.606   7.500   5.061  0.2967 -0.2755 -0.3048
   21MOL   N249 6289   0.699   7.405   5.064 -0.0712 -0.5012  0.3633
   21MOL   H250 6290   0.997   7.197   5.231 -0.1952  0.5829  0.8273
   21MOL   H251 6291   0.928   7.350   5.176 -1.0934  1.2494  1.2321
   21MOL   H252 6292   0.755   7.105   5.205 -2.1305 -0.0533 -0.9731
   21MOL   H253 6293   0.535   7.199   5.284 -0.9275  1.1173  0.3269
   21MOL   H254 6294   0.376   7.389   5.288 -3.3428  0.5331 -4.2012
   21MOL   H255 6295   0.423   7.590   5.146  1.0695  1.2156  0.6189
   21MOL   H256 6296   0.634   7.580   4.994 -0.2412  0.3239  0.1648
   21MOL   C257 6297   0.839   7.139   5.018  0.1651 -0.2077 -0.4757
   21MOL   C258 6298   0.962   7.045   5.011 -0.2702  0.3011 -0.4445
   21MOL   C259 6299   0.959   6.933   5.117  0.5694 -0.2369  0.0972
   21MOL   C260 6300   1.070   6.899   5.197  0.5673 -0.2847 -0.3988
   21MOL   C261 6301   1.064   6.783   5.271 -0.6673  0.0643 -0.2673
   21MOL   C262 6302   0.950   6.708   5.278 -0.0520  0.1182 -0.7252
   21MOL   C263 6303   0.837   6.752   5.197  0.1258  0.1606 -0.2334
   21MOL   N264 6304   0.847   6.858   5.117 -0.0075 -0.4061  0.0026
   21MOL   H265 6305   0.866   7.226   4.958  2.1960  0.6602  1.6204
   21MOL   H266 6306   0.749   7.099   4.971 -0.1011  1.1408 -1.1431
   21MOL   H267 6307   1.050   7.105   5.033  0.5835 -0.6698 -1.1486
   21MOL   H268 6308   1.163   6.953   5.208  1.0580 -1.4086  1.1104
   21MOL   H269 6309   1.150   6.749   5.327 -0.0782 -0.0338 -1.2254
   21MOL   H270 6310   0.944   6.617   5.337  3.1357  0.7757  0.7731
   21MOL   H271 6311   0.742   6.700   5.191 -0.2666  0.9301 -0.7604
   21MOL   C272 6312   0.978   6.995   4.868  0.6924 -0.3403  0.2522
   21MOL   C273 6313   1.073   6.878   4.847 -0.3758 -0.3569 -0.5378
   21MOL   C274 6314   1.059   6.829   4.700 -0.5336 -0.4449  0.6695
   21MOL   C275 6315   1.105   6.911   4.597  0.0323  0.2697 -0.2993
   21MOL   C276 6316   1.082   6.869   4.463 -0.7763 -0.1853  0.6754
   21MOL   C277 6317   1.005   6.753   4.438 -0.2435  0.5061  0.3923
   21MOL   C278 6318   0.962   6.688   4.551  0.1093  0.1550 -0.0976
   21MOL   N279 6319   0.985   6.724   4.678 -0.4214 -0.1154  0.2639
   21MOL   H280 6320   1.007   7.082   4.809 -0.9094 -0.0930 -0.2107
   21MOL   H281 6321   0.885   6.954   4.827  0.1421  0.4349  0.7219
   21MOL   H282 6322   1.042   6.787   4.898  0.0335 -1.3328 -2.0090
   21MOL   H283 6323   1.145   7.010   4.610 -0.4058  0.2425  1.4459
   21MOL   H284 6324   1.127   6.921   4.379 -2.5888  0.8638  0.3362
   21MOL   H285 6325   0.989   6.720   4.336  0.6006 -0.5356  0.5899
   21MOL   H286 6326   0.895   6.609   4.523 -1.0808  1.8624 -2.2085
   21MOL   C287 6327   1.228   6.921   4.887  0.1523 -0.8192 -0.3727
   21MOL   C288 6328   1.334   6.810   4.875  0.1649  0.9275 -0.1768
   21MOL   C289 6329   1.461   6.861   4.943 -0.6706 -0.0362  0.0250
   21MOL   C290 6330   1.567   6.911   4.871 -0.4227  0.3718 -0.1859
   21MOL   C291 6331   1.681   6.941   4.947 -0.0834  0.9439  0.0645
   21MOL   C292 6332   1.679   6.931   5.086  0.6191  0.0377  0.1336
   21MOL   C293 6333   1.567   6.884   5.153  0.6831 -0.1374 -0.8053
   21MOL   N294 6334   1.453   6.858   5.079 -0.4153  0.1465 -0.3513
   21MOL   H295 6335   1.231   6.975   4.981  1.4272  1.4082 -1.6523
   21MOL   H296 6336   1.263   7.001   4.821 -0.1483 -1.5536 -1.4409
   21MOL   H297 6337   1.341   6.783   4.770  0.9310  0.0716  0.0804
   21MOL   H298 6338   1.563   6.928   4.765 -0.1279  0.3679 -0.1989
   21MOL   H299 6339   1.770   6.981   4.902  1.0860  1.8973  3.0588
   21MOL   H300 6340   1.766   6.945   5.149 -1.0334  0.0282  2.4551
   21MOL   H301 6341   1.563   6.876   5.261 -0.4126 -2.6184 -0.9819
   21MOL   H302 6342   1.300   6.720   4.926  1.6568  0.5756  0.2308
   22MOL     C1 6343   7.252   4.860   4.001  0.3604  0.4248 -0.0118
   22MOL     C2 6344   7.178   4.957   3.904 -0.0113 -0.7267 -0.2645
   22MOL     C3 6345   7.199   4.918   3.762  0.0915 -0.0868  0.5307
   22MOL     C4 6346   7.247   5.010   3.664  0.1747 -0.4163  0.3011
   22MOL     C5 6347   7.253   4.966   3.534 -0.0209 -0.7674 -0.0878
   22MOL     C6 6348   7.238   4.831   3.502 -0.2848  0.1834 -0.1892
   22MOL     C7 6349   7.198   4.743   3.609  0.0116  0.2937 -0.7065
   22MOL     N8 6350   7.172   4.790   3.733 -0.0253 -0.2249  0.0179
   22MOL     H9 6351   7.353   4.839   3.965 -0.1216 -1.0848 -0.5425
   22MOL    H10 6352   7.270   4.907   4.097  0.0334  0.2695  0.1275
   22MOL    H11 6353   7.230   5.050   3.923 -1.9002  0.1880  0.5276
   22MOL    H12 6354   7.276   5.109   3.695  1.0557 -0.9035  1.0398
   22MOL    H13 6355   7.291   5.038   3.463 -3.3346 -0.5156 -1.7354
   22MOL    H14 6356   7.236   4.796   3.399  1.5553  1.4607 -0.6740
   22MOL    H15 6357   7.186   4.640   3.579 -0.8288 -0.1599  1.1144
   22MOL    H16 6358   7.199   4.764   3.999  2.9338 -1.0528  0.2385
   22MOL    C17 6359   7.034   4.961   3.950 -0.3733  0.9313  0.0945
   22MOL    C18 6360   6.965   5.100   3.955  0.0158 -0.9583  0.1321
   22MOL    C19 6361   6.810   5.093   3.958 -0.1403  1.3317  0.0304
   22MOL    C20 6362   6.735   5.113   3.840 -0.4136  0.5934  0.0762
   22MOL    C21 6363   6.595   5.095   3.842  0.2401 -0.4047  0.8145
   22MOL    C22 6364   6.543   5.046   3.961 -0.1194  0.1616  0.4428
   22MOL    C23 6365   6.622   5.030   4.074 -0.0479 -0.0915 -0.6400
   22MOL    N24 6366   6.755   5.047   4.074  0.2719  0.1474  0.4399
   22MOL    H25 6367   7.016   4.923   4.050 -1.8184  1.6597  0.1161
   22MOL    H26 6368   6.973   4.904   3.880  0.7890 -2.2863  1.5988
   22MOL    H27 6369   6.984   5.142   3.856 -2.2120 -0.2353 -0.0240
   22MOL    H28 6370   6.787   5.147   3.751 -1.5049 -0.9286 -1.1605
   22MOL    H29 6371   6.524   5.117   3.764  1.6736  1.1073 -0.0890
   22MOL    H30 6372   6.437   5.030   3.970 -0.2041 -0.0931 -0.8519
   22MOL    H31 6373   6.584   4.981   4.163  0.2718 -0.9723 -0.9736
   22MOL    C32 6374   7.032   5.184   4.067 -0.1086  0.4872  0.0102
   22MOL    C33 6375   6.954   5.299   4.135 -0.2120  0.0480 -0.2154
   22MOL    C34 6376   7.022   5.349   4.266 -0.6274 -0.4986  0.5862
   22MOL    C35 6377   6.967   5.326   4.392  0.3401 -0.2126  0.0465
   22MOL    C36 6378   7.030   5.364   4.508  0.1018 -0.8322 -0.1771
   22MOL    C37 6379   7.153   5.428   4.490 -0.2356  0.2936 -0.3309
   22MOL    C38 6380   7.208   5.452   4.362  0.0545 -0.0232  0.0437
   22MOL    N39 6381   7.134   5.420   4.253 -0.0790 -0.4522 -0.0865
   22MOL    H40 6382   7.125   5.232   4.036 -0.7917  1.5658 -0.4200
   22MOL    H41 6383   7.065   5.116   4.146 -1.2046 -1.8914 -1.5415
   22MOL    H42 6384   6.866   5.245   4.170  0.3759 -1.7772 -1.4809
   22MOL    H43 6385   6.880   5.263   4.394  1.0080 -1.1671 -0.4612
   22MOL    H44 6386   6.985   5.348   4.604 -0.1023  2.1795  0.2869
   22MOL    H45 6387   7.204   5.465   4.577  0.5591  0.9531 -1.0631
   22MOL    H46 6388   7.292   5.519   4.355  1.0698 -1.4159 -1.4747
   22MOL    C47 6389   6.913   5.408   4.033 -0.4672  0.0404 -0.4685
   22MOL    C48 6390   6.797   5.503   4.083 -0.1168 -0.9364 -0.1755
   22MOL    C49 6391   6.789   5.627   3.992  0.1332  0.5914 -0.3097
   22MOL    C50 6392   6.762   5.757   4.046  0.7682 -0.2396 -0.1697
   22MOL    C51 6393   6.748   5.865   3.953 -0.3133 -0.4782 -0.8594
   22MOL    C52 6394   6.751   5.834   3.813 -0.2173  0.3434 -0.0923
   22MOL    C53 6395   6.788   5.708   3.769 -0.0099 -0.4740  0.4019
   22MOL    N54 6396   6.811   5.607   3.859  0.1219 -1.3723  0.0932
   22MOL    H55 6397   6.903   5.366   3.933  3.4903 -0.2637 -0.8415
   22MOL    H56 6398   7.001   5.472   4.021 -0.5893  0.1490 -0.7818
   22MOL    H57 6399   6.819   5.538   4.184 -1.3681 -0.6449  0.0059
   22MOL    H58 6400   6.751   5.776   4.151  0.1217 -2.6817  0.2185
   22MOL    H59 6401   6.736   5.964   3.993  1.0392  0.0442 -1.7065
   22MOL    H60 6402   6.725   5.904   3.735 -0.4791  0.1839 -0.1476
   22MOL    H61 6403   6.798   5.670   3.669  0.2274  0.3680  0.1074
   22MOL    C62 6404   6.656   5.428   4.081 -0.5737 -0.4001 -0.3297
   22MOL    C63 6405   6.551   5.468   4.186  0.2728 -0.4030  0.3190
   22MOL    C64 6406   6.422   5.398   4.161  0.5628  0.4387  0.4367
   22MOL    C65 6407   6.315   5.469   4.099  0.3615 -0.1180  0.2561
   22MOL    C66 6408   6.195   5.402   4.063 -0.4506  0.0711  0.3070
   22MOL    C67 6409   6.193   5.258   4.083 -0.2666 -0.0105 -0.4039
   22MOL    C68 6410   6.312   5.192   4.134  0.3194 -0.2030 -0.3045
   22MOL    N69 6411   6.418   5.260   4.179  0.2672 -0.3628  0.6057
   22MOL    H70 6412   6.676   5.321   4.090 -0.3437 -0.6105 -3.0609
   22MOL    H71 6413   6.610   5.438   3.983 -0.5062 -1.1714 -0.4408
   22MOL    H72 6414   6.542   5.574   4.165  3.8743  0.0285  0.6583
   22MOL    H73 6415   6.325   5.572   4.068 -2.5241 -0.2126 -1.1578
   22MOL    H74 6416   6.118   5.460   4.015 -1.0735  1.7717  3.2270
   22MOL    H75 6417   6.118   5.203   4.030  2.3635 -2.6240 -1.5341
   22MOL    H76 6418   6.307   5.084   4.133  0.3995 -0.1995 -1.9430
   22MOL    C77 6419   6.596   5.456   4.334 -0.4389  0.4543 -0.5188
   22MOL    C78 6420   6.494   5.524   4.425  0.0008  0.2780 -0.8793
   22MOL    C79 6421   6.471   5.453   4.561 -0.2384  0.3352 -0.3318
   22MOL    C80 6422   6.348   5.405   4.602  0.2872  0.9093 -0.0029
   22MOL    C81 6423   6.331   5.330   4.717 -0.5557 -0.3129  0.6488
   22MOL    C82 6424   6.444   5.298   4.793 -0.7231 -0.7578  0.0113
   22MOL    C83 6425   6.572   5.349   4.751 -0.9417 -0.0199 -0.2762
   22MOL    N84 6426   6.586   5.422   4.631  0.1809 -0.6291 -0.1000
   22MOL    H85 6427   6.702   5.478   4.351 -0.2908 -0.2843 -0.4419
   22MOL    H86 6428   6.598   5.349   4.354 -1.9529  0.8351  1.7906
   22MOL    H87 6429   6.406   5.522   4.362  0.1424 -0.7224 -1.0530
   22MOL    H88 6430   6.260   5.425   4.543 -1.0255  0.6116  1.8455
   22MOL    H89 6431   6.231   5.311   4.753 -0.9932 -0.6170 -0.7109
   22MOL    H90 6432   6.427   5.241   4.884  0.6382 -1.4426 -0.1564
   22MOL    H91 6433   6.662   5.330   4.808 -1.0149  1.9788  0.5434
   22MOL    C92 6434   6.523   5.677   4.443 -0.0370 -0.5128  0.6607
   22MOL    C93 6435   6.396   5.760   4.479 -0.2061 -0.2279 -0.8509
   22MOL    C94 6436   6.290   5.764   4.364  0.7914 -0.1932 -0.2594
   22MOL    C95 6437   6.167   5.697   4.366 -0.3203 -1.3282 -0.1509
   22MOL    C96 6438   6.086   5.695   4.251  0.3005 -0.0384  1.2130
   22MOL    C97 6439   6.133   5.764   4.140 -0.4495  0.2567  0.3801
   22MOL    C98 6440   6.245   5.842   4.150  0.1601  0.4699 -0.0965
   22MOL    N99 6441   6.329   5.833   4.252  0.3065  0.3069  0.1711
   22MOL   H100 6442   6.566   5.712   4.349  0.2482 -1.7765  0.3119
   22MOL   H101 6443   6.600   5.703   4.515  0.5409 -1.1746  0.2822
   22MOL   H102 6444   6.439   5.860   4.478  0.4073 -0.4984 -1.5056
   22MOL   H103 6445   6.135   5.641   4.453  1.9096  1.1947  2.4033
   22MOL   H104 6446   5.999   5.632   4.253 -0.4166  0.9804  2.4510
   22MOL   H105 6447   6.076   5.767   4.049 -2.4874  4.8154  1.6502
   22MOL   H106 6448   6.283   5.896   4.064 -0.2542  1.4206  0.3170
   22MOL   C107 6449   6.341   5.741   4.617  0.3297  0.4787  0.8044
   22MOL   C108 6450   6.438   5.755   4.737  0.3234  0.0755  0.0975
   22MOL   C109 6451   6.519   5.882   4.729 -0.3042  0.0699  0.4752
   22MOL   C110 6452   6.662   5.867   4.729 -0.0816  0.1595 -0.5656
   22MOL   C111 6453   6.742   5.983   4.736  0.4247 -0.1375 -0.0339
   22MOL   C112 6454   6.675   6.101   4.763  0.7700 -0.8111 -0.4649
   22MOL   C113 6455   6.530   6.110   4.748 -0.2561  0.7097 -0.0311
   22MOL   N114 6456   6.452   6.001   4.735 -0.0141  0.4330 -0.1608
   22MOL   H115 6457   6.293   5.644   4.630  0.6557  0.3333  0.9371
   22MOL   H116 6458   6.265   5.815   4.643 -3.0130 -2.7735  0.7593
   22MOL   H117 6459   6.503   5.667   4.733 -0.1475 -0.2346 -0.8189
   22MOL   H118 6460   6.683   5.761   4.733  1.5746  0.4911  0.1010
   22MOL   H119 6461   6.848   5.971   4.753  0.3957  0.9919  1.0873
   22MOL   H120 6462   6.735   6.187   4.786 -0.6082  0.5880 -1.9207
   22MOL   H121 6463   6.475   6.200   4.772  0.0804  1.0184 -0.4114
   22MOL   C122 6464   6.370   5.751   4.877 -0.1350 -0.1108  0.6069
   22MOL   C123 6465   6.457   5.723   5.001 -0.6120 -0.5238  0.8626
   22MOL   C124 6466   6.376   5.741   5.124 -0.5491 -0.9661 -0.2656
   22MOL   C125 6467   6.249   5.679   5.150  0.2955  0.0897  0.0166
   22MOL   C126 6468   6.185   5.692   5.276 -0.0995  0.7893  0.3448
   22MOL   C127 6469   6.254   5.766   5.374  0.1912  0.0888  0.6430
   22MOL   C128 6470   6.383   5.813   5.344  0.4852  0.1640  0.2064
   22MOL   N129 6471   6.439   5.811   5.224 -0.5087  0.1201  0.1611
   22MOL   H130 6472   6.301   5.667   4.867  1.2446 -1.1206 -0.6400
   22MOL   H131 6473   6.299   5.834   4.878  1.4120  1.3257 -2.0013
   22MOL   H132 6474   6.547   5.785   5.000  0.3699 -1.9142  0.6435
   22MOL   H133 6475   6.197   5.614   5.081 -0.3065 -0.3867  0.9080
   22MOL   H134 6476   6.092   5.646   5.305  0.2235  0.2827  0.5837
   22MOL   H135 6477   6.223   5.790   5.474 -1.4463 -4.3808  1.3550
   22MOL   H136 6478   6.441   5.872   5.413 -0.5409  0.4376  0.8535
   22MOL   C137 6479   6.510   5.579   5.013  0.0263  0.1566  0.2762
   22MOL   C138 6480   6.610   5.554   5.132 -0.3188 -0.1759  0.1515
   22MOL   C139 6481   6.621   5.408   5.162 -0.1098 -0.5804 -0.4726
   22MOL   C140 6482   6.552   5.353   5.270  0.3865 -0.2723 -0.2723
   22MOL   C141 6483   6.575   5.213   5.297 -0.1214 -0.8909  0.2936
   22MOL   C142 6484   6.654   5.142   5.204  1.1921 -0.3667 -0.3945
   22MOL   C143 6485   6.717   5.206   5.094 -0.0912  0.1257 -0.3041
   22MOL   N144 6486   6.694   5.334   5.073 -0.2911  0.0408 -0.0367
   22MOL   H145 6487   6.551   5.538   4.921 -0.4943 -0.1706  0.1910
   22MOL   H146 6488   6.424   5.515   5.030  0.2737 -0.2078  0.1632
   22MOL   H147 6489   6.563   5.595   5.222 -0.0638 -1.1729  0.7473
   22MOL   H148 6490   6.492   5.416   5.334  0.7944 -0.6163  0.4543
   22MOL   H149 6491   6.519   5.157   5.370 -0.5670  0.6748  1.1946
   22MOL   H150 6492   6.661   5.036   5.221 -1.0223 -0.2354  1.6121
   22MOL   H151 6493   6.789   5.161   5.028  0.7829 -0.7634  1.2133
   22MOL   C152 6494   6.748   5.623   5.107  0.8829 -0.0093  0.2482
   22MOL   C153 6495   6.823   5.672   5.229  0.2493 -0.2483 -0.0698
   22MOL   C154 6496   6.977   5.693   5.205  0.1258 -0.2019  1.0584
   22MOL   C155 6497   7.080   5.659   5.295  0.5508  0.0546 -0.4847
   22MOL   C156 6498   7.214   5.687   5.262 -0.2094  0.1950  0.9915
   22MOL   C157 6499   7.243   5.763   5.139 -0.3777  0.2992  0.0009
   22MOL   C158 6500   7.127   5.806   5.068  0.3441 -0.1164  0.0943
   22MOL   N159 6501   7.003   5.773   5.098 -0.4402 -0.7828 -0.2458
   22MOL   H160 6502   6.741   5.715   5.049 -0.0198  1.0602  1.9910
   22MOL   H161 6503   6.803   5.555   5.042 -1.0445 -1.8232  0.4703
   22MOL   H162 6504   6.815   5.597   5.308  4.6951 -0.8375 -0.0522
   22MOL   H163 6505   7.051   5.624   5.392  1.9652  0.2630  0.0320
   22MOL   H164 6506   7.292   5.670   5.335  0.4925  0.6515  0.3486
   22MOL   H165 6507   7.337   5.797   5.098 -0.3776  0.4918  0.1655
   22MOL   H166 6508   7.138   5.854   4.972 -0.2640  2.6506  1.3569
   22MOL   C167 6509   6.765   5.798   5.296 -0.1660  0.4095 -0.1090
   22MOL   C168 6510   6.836   5.840   5.422  1.0013  0.3759 -0.1200
   22MOL   C169 6511   6.810   5.989   5.440 -0.2280  0.6093  0.1726
   22MOL   C170 6512   6.910   6.085   5.456  0.3066 -0.6029 -0.6521
   22MOL   C171 6513   6.870   6.214   5.499  0.4894  0.1253 -0.2745
   22MOL   C172 6514   6.738   6.251   5.517 -0.6300  0.3067  0.3025
   22MOL   C173 6515   6.646   6.148   5.494  0.2030 -0.1585 -0.1221
   22MOL   N174 6516   6.678   6.025   5.454  0.0699 -0.1904  0.5914
   22MOL   H175 6517   6.660   5.785   5.325 -0.0011  1.4406  0.9850
   22MOL   H176 6518   6.758   5.877   5.222 -0.0569 -0.4036 -0.9982
   22MOL   H177 6519   6.944   5.840   5.409  1.2931 -0.0268  2.1888
   22MOL   H178 6520   7.013   6.054   5.451  0.8918  0.5203  3.3060
   22MOL   H179 6521   6.936   6.297   5.520  1.3366 -0.7536  0.5693
   22MOL   H180 6522   6.699   6.343   5.558  1.4476  1.8126 -0.9724
   22MOL   H181 6523   6.539   6.161   5.503 -0.1765  0.5093 -4.5725
   22MOL   C182 6524   6.801   5.756   5.556 -0.4171 -0.1639  0.5183
   22MOL   C183 6525   6.840   5.819   5.689 -0.3788 -0.2055 -0.0649
   22MOL   C184 6526   6.721   5.881   5.745  0.5598  0.0533 -0.1304
   22MOL   C185 6527   6.737   6.012   5.801  0.1664  0.7092 -0.5429
   22MOL   C186 6528   6.626   6.075   5.861  0.2231  0.1531 -0.0953
   22MOL   C187 6529   6.507   6.002   5.877  0.2683 -0.5330  0.5788
   22MOL   C188 6530   6.502   5.877   5.811  0.0694 -0.3257  0.3407
   22MOL   N189 6531   6.609   5.813   5.766  0.2735  0.1740  0.5458
   22MOL   H190 6532   6.848   5.658   5.553  0.2043  0.1425 -0.2967
   22MOL   H191 6533   6.696   5.731   5.563 -0.4975  0.5778  2.1596
   22MOL   H192 6534   6.911   5.898   5.664 -2.0683  1.5332  0.4583
   22MOL   H193 6535   6.825   6.073   5.787 -1.1746  2.8630  0.1606
   22MOL   H194 6536   6.630   6.175   5.901  1.2541 -0.4278  1.3142
   22MOL   H195 6537   6.415   6.033   5.924 -0.1019 -1.1503  0.2728
   22MOL   H196 6538   6.408   5.825   5.820  0.1607 -0.5273  0.1281
   22MOL   C197 6539   6.909   5.715   5.781 -0.1717  0.3886  0.1118
   22MOL   C198 6540   7.059   5.685   5.747  0.6296 -0.4276  0.1635
   22MOL   C199 6541   7.149   5.810   5.752  0.0424  0.3787  0.0159
   22MOL   C200 6542   7.195   5.866   5.627  0.0047 -0.5398 -0.3490
   22MOL   C201 6543   7.269   5.984   5.629 -0.2946  0.3243  0.2154
   22MOL   C202 6544   7.314   6.023   5.762 -0.3819 -0.1323 -0.5550
   22MOL   C203 6545   7.260   5.960   5.877  0.3014 -0.6882 -0.1675
   22MOL   N204 6546   7.178   5.858   5.874 -0.1316 -0.1694 -0.4858
   22MOL   H205 6547   6.859   5.618   5.786  0.1299  0.1500 -1.2413
   22MOL   H206 6548   6.901   5.757   5.881  3.0477 -0.4051  0.7659
   22MOL   H207 6549   7.068   5.652   5.644  0.4058  0.5878 -0.1892
   22MOL   H208 6550   7.153   5.834   5.533  0.4678 -0.6650 -0.5140
   22MOL   H209 6551   7.314   6.037   5.546  0.3944 -1.7624 -0.7905
   22MOL   H210 6552   7.379   6.109   5.768 -0.2672 -0.0895 -2.0902
   22MOL   H211 6553   7.285   5.992   5.977  1.3179 -2.1000  0.0427
   22MOL   C212 6554   7.116   5.569   5.833 -0.5908 -0.1736  0.1687
   22MOL   C213 6555   7.075   5.420   5.804  0.5299 -0.1585  0.1888
   22MOL   C214 6556   7.059   5.387   5.655 -0.5090 -0.1577 -0.0712
   22MOL   C215 6557   6.935   5.364   5.590 -0.2971 -0.4934  0.3135
   22MOL   C216 6558   6.932   5.357   5.452 -0.7231  0.7467  0.2746
   22MOL   C217 6559   7.049   5.358   5.377  0.4724  0.1906 -0.6153
   22MOL   C218 6560   7.169   5.381   5.446  0.2777  0.0897  0.5257
   22MOL   N219 6561   7.171   5.408   5.580  0.0571 -0.0095 -0.3455
   22MOL   H220 6562   7.108   5.589   5.940  1.5375 -1.7011  0.6605
   22MOL   H221 6563   7.220   5.572   5.800 -1.4462 -1.5054 -2.8167
   22MOL   H222 6564   6.974   5.407   5.844 -0.6115  1.7950 -1.9459
   22MOL   H223 6565   6.849   5.335   5.648  1.0301 -0.1449  2.5404
   22MOL   H224 6566   6.837   5.336   5.405 -1.3984  1.0095  1.5032
   22MOL   H225 6567   7.029   5.342   5.272 -3.6377 -1.3335  0.3014
   22MOL   H226 6568   7.255   5.398   5.383 -0.4234 -1.9110 -1.0328
   22MOL   C227 6569   7.165   5.320   5.881 -0.0809  0.5786  0.6114
   22MOL   C228 6570   7.129   5.173   5.863 -0.2192 -0.2265  0.9447
   22MOL   C229 6571   7.221   5.087   5.946 -0.2245  0.4723  0.2520
   22MOL   C230 6572   7.325   5.018   5.878 -0.1074  0.0910 -0.5893
   22MOL   C231 6573   7.425   4.949   5.955 -0.3765  0.3121  0.0653
   22MOL   C232 6574   7.404   4.946   6.093  0.1922  0.1113  0.9310
   22MOL   C233 6575   7.292   5.010   6.149  0.2224 -0.3616  0.4123
   22MOL   N234 6576   7.207   5.081   6.076 -0.0464  0.2425  0.1073
   22MOL   H235 6577   7.167   5.340   5.988  1.2950  1.4880  0.4183
   22MOL   H236 6578   7.270   5.329   5.855  0.1277  0.9898  1.5646
   22MOL   H237 6579   7.140   5.154   5.756  0.3751  2.1586  0.5736
   22MOL   H238 6580   7.337   5.027   5.771 -2.3028 -3.0218 -1.1896
   22MOL   H239 6581   7.506   4.899   5.904 -1.3269  0.3127 -1.5036
   22MOL   H240 6582   7.478   4.891   6.150 -1.7891 -2.0283  1.5118
   22MOL   H241 6583   7.268   5.001   6.254 -1.6141 -3.2931 -0.1770
   22MOL   C242 6584   6.982   5.127   5.888  0.7484  0.3826  0.5471
   22MOL   C243 6585   6.938   4.988   5.841 -0.8229  0.4110  0.0908
   22MOL   C244 6586   6.954   4.892   5.951 -0.1647  0.1718 -0.3230
   22MOL   C245 6587   7.060   4.800   5.956  0.5227 -0.4988 -0.4202
   22MOL   C246 6588   7.069   4.710   6.063  0.0782 -0.2256 -0.1890
   22MOL   C247 6589   6.965   4.709   6.163 -0.3270  0.2383  0.4712
   22MOL   C248 6590   6.858   4.797   6.146  0.0070  0.7078  0.4574
   22MOL   N249 6591   6.854   4.885   6.045 -0.9155 -0.1671 -0.0189
   22MOL   H250 6592   6.919   5.190   5.824  0.9558 -0.5121 -0.5671
   22MOL   H251 6593   6.947   5.150   5.988  1.3783  1.9802  0.4102
   22MOL   H252 6594   7.005   4.942   5.769 -1.8096 -0.8405 -0.0490
   22MOL   H253 6595   7.145   4.789   5.889 -0.4484 -0.5710 -1.6622
   22MOL   H254 6596   7.155   4.645   6.063 -0.4958 -1.0307  2.5554
   22MOL   H255 6597   6.967   4.636   6.242  1.8766  1.1983  1.3318
   22MOL   H256 6598   6.772   4.796   6.210  0.0453  1.7833  0.5404
   22MOL   C257 6599   6.795   4.980   5.783  0.3469  0.1854 -0.6399
   22MOL   C258 6600   6.739   4.841   5.728 -0.4841  0.1758 -0.0072
   22MOL   C259 6601   6.587   4.842   5.695 -0.3434  1.3284  0.0741
   22MOL   C260 6602   6.496   4.764   5.769 -0.8160  0.1430  0.7542
   22MOL   C261 6603   6.360   4.765   5.726  0.0515 -0.0899  0.0491
   22MOL   C262 6604   6.317   4.838   5.616 -0.1345  0.0072  0.1563
   22MOL   C263 6605   6.414   4.905   5.544 -0.0679  0.3084 -0.6038
   22MOL   N264 6606   6.548   4.914   5.586 -0.3402  0.1117 -0.3756
   22MOL   H265 6607   6.791   5.051   5.700 -2.1298  1.5281  0.5599
   22MOL   H266 6608   6.718   5.015   5.851  1.2523 -1.6083  1.3505
   22MOL   H267 6609   6.743   4.772   5.812  0.3847  1.1654  0.7770
   22MOL   H268 6610   6.527   4.706   5.855  0.8569 -3.0847 -1.9039
   22MOL   H269 6611   6.293   4.703   5.784 -1.3281  0.1464 -1.2489
   22MOL   H270 6612   6.213   4.837   5.588  0.3201 -1.4912 -1.5940
   22MOL   H271 6613   6.388   4.955   5.451 -0.7966  1.3781  0.1716
   22MOL   C272 6614   6.828   4.795   5.618 -0.3656  0.1289  0.4259
   22MOL   C273 6615   6.788   4.656   5.568 -0.8520  0.2427  0.6354
   22MOL   C274 6616   6.883   4.611   5.455  0.4280  0.3106 -0.9204
   22MOL   C275 6617   6.839   4.588   5.329 -0.0932  0.2843 -0.7429
   22MOL   C276 6618   6.935   4.528   5.246  0.1784  1.0545  0.0419
   22MOL   C277 6619   7.068   4.502   5.291 -0.0670 -0.8447 -0.1897
   22MOL   C278 6620   7.093   4.530   5.423 -1.0044 -0.6325 -0.0228
   22MOL   N279 6621   7.003   4.592   5.498 -1.2491 -0.1190  0.2780
   22MOL   H280 6622   6.932   4.787   5.648  0.5636 -0.7201 -2.7821
   22MOL   H281 6623   6.839   4.863   5.533 -0.2211  0.7004  0.9034
   22MOL   H282 6624   6.687   4.665   5.528  0.5880  0.8954 -3.0729
   22MOL   H283 6625   6.734   4.595   5.304 -0.1485 -0.3119 -0.6914
   22MOL   H284 6626   6.902   4.506   5.146  1.2476 -0.2177 -0.0433
   22MOL   H285 6627   7.132   4.455   5.218 -0.9291 -0.0522 -1.4627
   22MOL   H286 6628   7.193   4.523   5.465 -0.2363 -2.1977 -2.0257
   22MOL   C287 6629   6.786   4.548   5.680  0.3154  0.0174  0.1328
   22MOL   C288 6630   6.762   4.408   5.619  0.7138  0.3952  0.0804
   22MOL   C289 6631   6.738   4.303   5.731  0.1941 -0.1563 -0.1682
   22MOL   C290 6632   6.629   4.215   5.728  0.1724 -0.3784 -0.5216
   22MOL   C291 6633   6.629   4.116   5.827  0.1695 -0.0144 -0.3755
   22MOL   C292 6634   6.742   4.101   5.911 -0.5057 -0.2000 -0.7132
   22MOL   C293 6635   6.850   4.186   5.891 -0.0869  0.1494 -0.1223
   22MOL   N294 6636   6.847   4.289   5.808 -0.3603 -0.2544 -0.6509
   22MOL   H295 6637   6.710   4.573   5.754 -1.5790 -1.5317 -1.2362
   22MOL   H296 6638   6.882   4.555   5.732  0.2152 -1.8617  0.6150
   22MOL   H297 6639   6.836   4.366   5.552 -1.1861 -3.0725  0.0541
   22MOL   H298 6640   6.546   4.229   5.659  0.7803  0.9314 -1.0110
   22MOL   H299 6641   6.541   4.055   5.846 -0.2867  1.1519  1.3095
   22MOL   H300 6642   6.736   4.035   5.996  1.2875 -0.6351 -0.9185
   22MOL   H301 6643   6.932   4.187   5.961 -1.6404 -0.1177  1.7436
   22MOL   H302 6644   6.671   4.415   5.560  0.6672 -1.8883 -0.1465
   23MOL     C1 6645   2.268   2.735   1.029  0.1279 -0.2467 -0.2358
   23MOL     C2 6646   2.238   2.890   1.023 -0.7046  0.9140  0.3004
   23MOL     C3 6647   2.125   2.922   1.120  0.3589 -0.5141 -0.2473
   23MOL     C4 6648   1.997   2.958   1.075 -0.1364 -0.0754  0.0440
   23MOL     C5 6649   1.897   2.985   1.163 -0.3421  0.0785  0.1162
   23MOL     C6 6650   1.925   2.980   1.300 -0.4004 -0.5638 -0.0038
   23MOL     C7 6651   2.057   2.942   1.343 -0.3861 -0.0040  0.3328
   23MOL     N8 6652   2.156   2.908   1.255  0.1975 -0.4034  0.7876
   23MOL     H9 6653   2.311   2.719   1.127  1.7755  0.9041 -0.7364
   23MOL    H10 6654   2.175   2.679   1.023 -0.0601  0.0743 -0.3541
   23MOL    H11 6655   2.198   2.906   0.923 -0.8137 -1.1873 -0.0268
   23MOL    H12 6656   1.976   2.952   0.969 -1.2180  1.9133  0.1193
   23MOL    H13 6657   1.802   3.015   1.121  0.1531 -1.1099 -1.9781
   23MOL    H14 6658   1.852   3.010   1.374 -1.0224 -2.7723  0.3150
   23MOL    H15 6659   2.088   2.967   1.443 -1.1932  0.5999  0.4436
   23MOL    H16 6660   2.338   2.703   0.952  0.6266 -1.2540  0.6199
   23MOL    C17 6661   2.365   2.980   1.050  0.3917  0.7774  0.8863
   23MOL    C18 6662   2.467   2.996   0.931  0.2987 -0.1901  0.6140
   23MOL    C19 6663   2.407   3.033   0.788 -0.0869  0.2070 -0.5168
   23MOL    C20 6664   2.448   2.963   0.671  0.1798  0.6552  0.0702
   23MOL    C21 6665   2.391   2.995   0.552 -0.8832 -0.4159  0.1673
   23MOL    C22 6666   2.298   3.105   0.546  0.3595  0.2383 -0.2578
   23MOL    C23 6667   2.273   3.184   0.661 -0.2955 -0.3341  0.4686
   23MOL    N24 6668   2.332   3.146   0.778 -0.2341  0.2077  0.2759
   23MOL    H25 6669   2.410   2.949   1.144 -0.9405 -2.0353  0.6588
   23MOL    H26 6670   2.329   3.082   1.063 -3.4548 -0.0219 -2.1577
   23MOL    H27 6671   2.504   2.896   0.911 -0.4544 -0.2148 -0.7745
   23MOL    H28 6672   2.517   2.881   0.679  1.3458  1.6831  0.6890
   23MOL    H29 6673   2.413   2.929   0.470  1.4027  1.5981 -0.8951
   23MOL    H30 6674   2.238   3.117   0.457 -0.3847  1.5333  0.4053
   23MOL    H31 6675   2.198   3.261   0.668 -0.2293 -0.3510  1.4027
   23MOL    C32 6676   2.595   3.081   0.965  0.1738 -0.4030 -0.0089
   23MOL    C33 6677   2.682   3.008   1.062 -1.0745 -0.9434 -0.9351
   23MOL    C34 6678   2.751   2.886   1.007 -0.7172 -0.2159  0.7033
   23MOL    C35 6679   2.695   2.753   1.007  0.0160 -0.1263  0.1073
   23MOL    C36 6680   2.764   2.651   0.944  0.4719  0.2600 -0.0676
   23MOL    C37 6681   2.883   2.673   0.873  0.1035 -0.3456 -0.5071
   23MOL    C38 6682   2.932   2.803   0.869 -0.6903  0.3906  0.2005
   23MOL    N39 6683   2.863   2.909   0.927 -0.2360  0.4674 -0.4624
   23MOL    H40 6684   2.568   3.181   0.999  0.2990 -0.1349 -0.6914
   23MOL    H41 6685   2.656   3.097   0.875 -1.4236 -1.1631 -1.2616
   23MOL    H42 6686   2.621   2.968   1.143 -2.8890 -1.0869 -2.3383
   23MOL    H43 6687   2.605   2.728   1.061  1.0938 -3.8690  0.2649
   23MOL    H44 6688   2.725   2.551   0.957 -3.3622  1.8620  1.6141
   23MOL    H45 6689   2.929   2.590   0.821 -0.7767 -0.9314 -0.3804
   23MOL    H46 6690   3.023   2.829   0.817  0.1943 -0.5618  1.2403
   23MOL    C47 6691   2.792   3.104   1.130  0.1540  0.1238 -0.2290
   23MOL    C48 6692   2.740   3.209   1.229  0.1505 -0.0670  0.0473
   23MOL    C49 6693   2.672   3.149   1.346  0.4263  0.5541 -0.1381
   23MOL    C50 6694   2.525   3.149   1.350  0.0508 -0.3169 -0.4866
   23MOL    C51 6695   2.469   3.064   1.449 -0.7121 -0.1352  0.7222
   23MOL    C52 6696   2.553   2.999   1.542  0.0593 -1.2371  0.1291
   23MOL    C53 6697   2.690   3.018   1.532  0.4247 -0.3964  0.4915
   23MOL    N54 6698   2.752   3.082   1.429  0.4753  0.0692 -0.0394
   23MOL    H55 6699   2.854   3.147   1.051 -2.5067  1.9735 -1.3968
   23MOL    H56 6700   2.861   3.046   1.191  0.3839 -1.0521 -1.5774
   23MOL    H57 6701   2.668   3.268   1.172  1.0003 -0.9391 -1.9749
   23MOL    H58 6702   2.450   3.201   1.292  0.8598 -0.8763 -2.0629
   23MOL    H59 6703   2.363   3.047   1.432 -1.0461  0.4588  2.1327
   23MOL    H60 6704   2.516   2.927   1.613  1.0721 -0.8705  1.0455
   23MOL    H61 6705   2.762   2.965   1.592  1.6388 -0.2322 -0.7937
   23MOL    C62 6706   2.833   3.332   1.276 -0.1209 -0.3590  0.0023
   23MOL    C63 6707   2.903   3.405   1.159 -0.2663 -0.5960 -0.2928
   23MOL    C64 6708   2.832   3.423   1.027  0.7164 -0.1361 -0.5949
   23MOL    C65 6709   2.883   3.357   0.908  0.1443 -0.1044  0.4688
   23MOL    C66 6710   2.812   3.371   0.793  0.0190  0.4773  0.1389
   23MOL    C67 6711   2.699   3.454   0.779 -0.0403  0.5691  0.2811
   23MOL    C68 6712   2.653   3.501   0.902 -0.3081  0.0826  0.4014
   23MOL    N69 6713   2.713   3.490   1.020  0.1640  0.6426  0.1130
   23MOL    H70 6714   2.907   3.317   1.354  1.1950 -2.0727 -1.5214
   23MOL    H71 6715   2.767   3.408   1.318  0.1906 -0.3008  0.3854
   23MOL    H72 6716   2.981   3.331   1.137 -0.3298 -1.2749  1.6631
   23MOL    H73 6717   2.971   3.294   0.909 -0.8456 -1.5471  0.0099
   23MOL    H74 6718   2.823   3.296   0.716  2.7741  0.9629  0.0090
   23MOL    H75 6719   2.624   3.451   0.701 -0.9607 -0.1913  1.1830
   23MOL    H76 6720   2.560   3.556   0.898  0.2432  0.9657 -0.6947
   23MOL    C77 6721   2.972   3.529   1.209  0.0638 -0.4944 -0.4160
   23MOL    C78 6722   3.065   3.601   1.108  0.1000 -0.5300  0.1691
   23MOL    C79 6723   3.094   3.742   1.139 -0.0973 -0.5807  0.5599
   23MOL    C80 6724   3.019   3.840   1.068 -0.9469 -0.5195  0.8565
   23MOL    C81 6725   3.049   3.978   1.103  0.3534 -0.6596 -0.6992
   23MOL    C82 6726   3.160   4.001   1.188  1.0211  0.2125 -0.8972
   23MOL    C83 6727   3.227   3.895   1.250  0.4030 -0.2263 -0.3285
   23MOL    N84 6728   3.190   3.766   1.228  0.2804 -0.0601 -0.3013
   23MOL    H85 6729   3.016   3.513   1.308  0.8774 -1.1065 -0.8657
   23MOL    H86 6730   2.900   3.608   1.230  1.8078  1.2174 -0.6421
   23MOL    H87 6731   3.013   3.604   1.012 -0.4893 -1.1755  0.4701
   23MOL    H88 6732   2.941   3.821   0.996  2.6905 -0.8836 -3.2656
   23MOL    H89 6733   2.982   4.054   1.065  0.4795 -0.7780 -1.1671
   23MOL    H90 6734   3.182   4.103   1.215 -1.7163  0.8343 -0.8694
   23MOL    H91 6735   3.307   3.913   1.320  1.1705 -1.7347 -0.8045
   23MOL    C92 6736   3.189   3.523   1.057  0.3530  0.0444 -0.1078
   23MOL    C93 6737   3.285   3.593   0.959  0.3561  0.4366  0.2020
   23MOL    C94 6738   3.406   3.505   0.926  0.5997  0.1786  0.2197
   23MOL    C95 6739   3.535   3.539   0.966  0.1081  0.2223 -0.4578
   23MOL    C96 6740   3.637   3.443   0.944 -0.5491 -0.3440 -0.2377
   23MOL    C97 6741   3.611   3.319   0.887 -0.0180  0.0992 -0.4081
   23MOL    C98 6742   3.478   3.286   0.873  0.4909  0.2209 -0.0023
   23MOL    N99 6743   3.377   3.376   0.892 -0.5884 -0.6614 -0.2953
   23MOL   H100 6744   3.151   3.434   1.005  0.6975  0.5063 -1.1602
   23MOL   H101 6745   3.254   3.488   1.138 -0.1305  0.5009  0.4765
   23MOL   H102 6746   3.307   3.690   1.004  0.5118  0.8297 -0.7099
   23MOL   H103 6747   3.556   3.638   1.005 -0.0851  0.9916 -2.2681
   23MOL   H104 6748   3.740   3.475   0.957 -0.5962  0.3071 -1.3749
   23MOL   H105 6749   3.691   3.260   0.846  0.4078  0.7406 -0.5158
   23MOL   H106 6750   3.447   3.184   0.860 -0.0928  0.3872  0.0975
   23MOL   C107 6751   3.201   3.626   0.830 -0.6752  0.2377 -0.0703
   23MOL   C108 6752   3.272   3.733   0.748  0.1844 -0.4172 -0.5675
   23MOL   C109 6753   3.238   3.711   0.604 -0.4335  0.5131 -0.1827
   23MOL   C110 6754   3.331   3.657   0.514  0.0277  0.0750 -0.0444
   23MOL   C111 6755   3.279   3.625   0.383 -0.0973  0.5768  0.0682
   23MOL   C112 6756   3.145   3.654   0.357 -0.6990  0.1580  0.4118
   23MOL   C113 6757   3.063   3.704   0.459  0.4618  0.0427  0.5830
   23MOL   N114 6758   3.108   3.732   0.576  0.4910  0.0445 -0.5180
   23MOL   H115 6759   3.101   3.664   0.849 -0.4421  0.4033  0.8506
   23MOL   H116 6760   3.194   3.527   0.785 -1.7799 -1.0589  2.8205
   23MOL   H117 6761   3.376   3.699   0.748 -0.6005 -3.0080  2.3401
   23MOL   H118 6762   3.427   3.620   0.543 -0.9507 -2.8333 -0.3876
   23MOL   H119 6763   3.346   3.587   0.307 -0.2668  0.1325  0.1378
   23MOL   H120 6764   3.099   3.639   0.260 -1.6824 -1.0922  1.0526
   23MOL   H121 6765   2.956   3.708   0.444  0.2208 -2.2958  1.4068
   23MOL   C122 6766   3.270   3.881   0.797 -0.5719 -0.7473  0.3196
   23MOL   C123 6767   3.318   3.994   0.697 -0.5193 -0.2009  0.0416
   23MOL   C124 6768   3.262   4.120   0.756  0.2835 -1.4586  0.1030
   23MOL   C125 6769   3.165   4.200   0.682  0.2038  0.6138 -0.2349
   23MOL   C126 6770   3.113   4.316   0.745  0.1665  0.4952 -0.5972
   23MOL   C127 6771   3.143   4.339   0.878  0.6297 -0.2760  0.1148
   23MOL   C128 6772   3.243   4.265   0.940 -0.6690 -0.4878  0.1725
   23MOL   N129 6773   3.300   4.160   0.880  0.6249  0.3273  0.0612
   23MOL   H130 6774   3.314   3.888   0.896  0.0461  0.8658 -0.0553
   23MOL   H131 6775   3.165   3.903   0.813 -0.7208 -1.7289  0.7102
   23MOL   H132 6776   3.259   3.990   0.605 -1.2984 -0.3229  0.5413
   23MOL   H133 6777   3.132   4.180   0.581 -0.0805 -0.6768  0.0930
   23MOL   H134 6778   3.034   4.373   0.697  2.0771  2.6709 -1.2260
   23MOL   H135 6779   3.095   4.418   0.934 -1.6307 -2.6593  1.7108
   23MOL   H136 6780   3.265   4.300   1.040 -1.8191 -2.4532  1.1310
   23MOL   C137 6781   3.470   3.999   0.678 -0.1695 -0.4887 -0.2087
   23MOL   C138 6782   3.523   4.120   0.589 -0.6711 -0.0947 -0.0903
   23MOL   C139 6783   3.677   4.118   0.582 -0.4170 -0.2034  0.4931
   23MOL   C140 6784   3.752   4.222   0.639  0.0697  0.1103  0.4357
   23MOL   C141 6785   3.892   4.201   0.644 -0.9092  0.2955 -0.4068
   23MOL   C142 6786   3.941   4.085   0.584 -0.0832  0.3422 -0.7561
   23MOL   C143 6787   3.858   3.986   0.531 -0.2615  0.4108  0.1962
   23MOL   N144 6788   3.727   4.006   0.531 -0.2840  0.9762  0.1316
   23MOL   H145 6789   3.502   3.901   0.643  2.3712 -0.1544  1.0527
   23MOL   H146 6790   3.509   4.017   0.778 -2.4128 -0.3413  0.6692
   23MOL   H147 6791   3.500   4.210   0.646  2.1573  0.2160  0.6130
   23MOL   H148 6792   3.707   4.314   0.674 -0.1446  0.7121 -1.3555
   23MOL   H149 6793   3.945   4.288   0.680 -1.3982  0.1840  0.6169
   23MOL   H150 6794   4.048   4.083   0.577  0.0521  0.0064  1.0416
   23MOL   H151 6795   3.888   3.900   0.473 -0.4591 -0.4908  1.4091
   23MOL   C152 6796   3.459   4.129   0.452 -0.3659 -0.0495 -0.4304
   23MOL   C153 6797   3.497   4.243   0.352  0.6303  1.0703  0.2884
   23MOL   C154 6798   3.465   4.387   0.394 -1.2395  0.0395  0.5532
   23MOL   C155 6799   3.348   4.448   0.359 -1.1229 -0.0755 -0.2565
   23MOL   C156 6800   3.320   4.578   0.407  0.1741  0.2512  0.1120
   23MOL   C157 6801   3.416   4.631   0.494 -0.1316  0.0901 -0.4383
   23MOL   C158 6802   3.531   4.562   0.527 -0.9883  0.0118 -0.4122
   23MOL   N159 6803   3.557   4.440   0.480  0.0153 -0.3031 -0.4057
   23MOL   H160 6804   3.350   4.132   0.456 -0.4327  1.7643 -2.5291
   23MOL   H161 6805   3.472   4.034   0.401 -0.9704 -0.5523  0.3443
   23MOL   H162 6806   3.424   4.234   0.271  0.8288 -0.5500  0.2836
   23MOL   H163 6807   3.277   4.399   0.294 -1.2756  0.2260 -0.3193
   23MOL   H164 6808   3.235   4.635   0.371  0.1304 -0.9620 -1.7936
   23MOL   H165 6809   3.416   4.733   0.529 -0.8475  0.0523 -0.3267
   23MOL   H166 6810   3.604   4.615   0.587 -0.7956 -0.7443  0.0210
   23MOL   C167 6811   3.633   4.235   0.278 -0.2815  0.3465  0.4158
   23MOL   C168 6812   3.664   4.106   0.200 -0.3004  0.0042 -0.6062
   23MOL   C169 6813   3.585   4.104   0.071 -0.5406  0.2847 -0.5926
   23MOL   C170 6814   3.488   4.001   0.054  0.5042  0.2224 -0.0190
   23MOL   C171 6815   3.424   3.995   8.079  0.0942 -1.1295 -0.3874
   23MOL   C172 6816   3.441   4.101   7.992 -0.2058  0.2946  0.3451
   23MOL   C173 6817   3.535   4.203   8.023  1.1871  0.0579  0.2683
   23MOL   N174 6818   3.605   4.199   8.135  0.5139 -0.2888 -0.3834
   23MOL   H175 6819   3.706   4.248   0.358 -0.9176  2.3006  0.7062
   23MOL   H176 6820   3.645   4.314   0.204  1.1930 -0.2410  0.0081
   23MOL   H177 6821   3.637   4.020   0.260 -1.2376 -0.4191 -1.6140
   23MOL   H178 6822   3.486   3.923   0.128  0.1671 -0.4006 -0.6721
   23MOL   H179 6823   3.353   3.916   8.060 -1.0057 -0.4625  0.8647
   23MOL   H180 6824   3.389   4.118   7.898  1.2350  0.7611 -0.3837
   23MOL   H181 6825   3.553   4.287   7.958  0.0417  0.2111  0.1431
   23MOL   C182 6826   3.817   4.093   0.183  0.1233  0.2719 -0.0099
   23MOL   C183 6827   3.863   3.973   0.100  0.2162  0.2317 -0.4035
   23MOL   C184 6828   4.007   3.980   0.064  0.6245 -0.0266 -0.2955
   23MOL   C185 6829   4.042   3.982   8.080  0.3108  0.3801 -0.4020
   23MOL   C186 6830   4.180   3.968   8.048  0.8044 -0.3793  1.1513
   23MOL   C187 6831   4.271   3.943   8.145  0.2236  0.4749 -0.1743
   23MOL   C188 6832   4.233   3.945   0.129 -0.0568  0.1386  0.8721
   23MOL   N189 6833   4.099   3.961   0.159  0.1062 -0.4209  0.0688
   23MOL   H190 6834   3.864   4.096   0.282  0.4170 -2.7931 -0.0328
   23MOL   H191 6835   3.843   4.188   0.136 -0.7520 -0.0074 -1.0746
   23MOL   H192 6836   3.824   3.990   8.151  1.7199  0.3693 -0.9729
   23MOL   H193 6837   3.968   3.998   8.002  0.5007  0.0342 -0.6538
   23MOL   H194 6838   4.207   3.970   7.943  0.6715 -0.2643  1.1184
   23MOL   H195 6839   4.373   3.915   8.122  0.8882  1.7505  1.2004
   23MOL   H196 6840   4.310   3.936   0.204  0.5944 -0.3812  0.1529
   23MOL   C197 6841   3.818   3.826   0.146  0.2107 -0.0319 -0.0756
   23MOL   C198 6842   3.854   3.704   0.060  0.4053 -0.0610  0.4034
   23MOL   C199 6843   3.814   3.574   0.127  0.9793  0.3091 -1.0257
   23MOL   C200 6844   3.907   3.469   0.144 -0.0012 -0.5445  0.0612
   23MOL   C201 6845   3.859   3.350   0.210  0.9460 -0.2943  0.2457
   23MOL   C202 6846   3.728   3.344   0.249  0.8672  0.3125  0.4048
   23MOL   C203 6847   3.641   3.452   0.230 -0.4823 -0.1071 -0.8063
   23MOL   N204 6848   3.685   3.563   0.168  0.4811  0.0549 -0.0574
   23MOL   H205 6849   3.710   3.825   0.158  0.3668 -0.8178  1.3866
   23MOL   H206 6850   3.873   3.818   0.240  0.3692  0.9448 -0.0840
   23MOL   H207 6851   3.963   3.704   0.068  0.3085 -0.4568  1.6789
   23MOL   H208 6852   4.013   3.472   0.122 -0.0242 -0.1035 -0.0005
   23MOL   H209 6853   3.931   3.270   0.220  2.2216  1.0420  2.3422
   23MOL   H210 6854   3.685   3.254   0.291 -0.2606  0.4351 -0.4626
   23MOL   H211 6855   3.534   3.437   0.237 -0.6940  1.2295 -0.9131
   23MOL   C212 6856   3.804   3.708   8.063  0.2093  0.1716 -0.4253
   23MOL   C213 6857   3.875   3.612   7.962 -0.4956  0.2855  0.3338
   23MOL   C214 6858   3.823   3.627   7.818  0.7216 -0.1952  0.4880
   23MOL   C215 6859   3.730   3.536   7.764 -0.2752  0.0050 -0.0118
   23MOL   C216 6860   3.688   3.556   7.629 -0.1977 -0.8689  0.1612
   23MOL   C217 6861   3.737   3.668   7.559  0.3528 -0.2990 -0.4272
   23MOL   C218 6862   3.821   3.757   7.624 -0.6498 -0.6022 -0.0867
   23MOL   N219 6863   3.861   3.743   7.751  0.2341 -0.5750  0.6073
   23MOL   H220 6864   3.829   3.804   8.018  1.9936 -0.6898 -1.3121
   23MOL   H221 6865   3.696   3.724   8.061  0.2240  0.2075 -0.9533
   23MOL   H222 6866   3.841   3.520   8.008 -0.0447  0.0653  0.2282
   23MOL   H223 6867   3.691   3.451   7.819  1.7577  0.6085  2.4634
   23MOL   H224 6868   3.616   3.494   7.578  1.5993 -1.2338 -1.9867
   23MOL   H225 6869   3.696   3.680   7.460  0.8723  0.8379 -0.5157
   23MOL   H226 6870   3.842   3.853   7.580 -3.8342 -0.3839 -1.2219
   23MOL   C227 6871   4.034   3.613   7.963 -0.0306  0.1261  0.9496
   23MOL   C228 6872   4.101   3.526   7.860 -0.0288  0.1077 -0.2658
   23MOL   C229 6873   4.252   3.537   7.887  0.0020  0.4598  0.3375
   23MOL   C230 6874   4.316   3.657   7.838 -0.1077 -0.0940  0.0312
   23MOL   C231 6875   4.455   3.676   7.858 -0.1508  0.2236 -0.5166
   23MOL   C232 6876   4.514   3.570   7.934  0.1185 -0.2250 -0.2436
   23MOL   C233 6877   4.443   3.464   7.987 -0.1798  0.4714  0.2953
   23MOL   N234 6878   4.315   3.446   7.965  0.1078 -0.3294 -0.2903
   23MOL   H235 6879   4.062   3.591   8.066 -0.6109 -1.0979  0.8543
   23MOL   H236 6880   4.074   3.711   7.937 -0.2929 -0.3371 -1.2935
   23MOL   H237 6881   4.098   3.567   7.759  1.7247  0.9451  0.0027
   23MOL   H238 6882   4.247   3.724   7.791 -0.8150 -1.7154 -1.2939
   23MOL   H239 6883   4.503   3.769   7.830 -0.2587 -0.0807 -1.7499
   23MOL   H240 6884   4.617   3.570   7.964  0.1190 -1.3685 -0.1951
   23MOL   H241 6885   4.503   3.388   8.034 -0.0440 -0.1388 -0.8295
   23MOL   C242 6886   4.058   3.381   7.859 -0.6345 -0.0605  0.5667
   23MOL   C243 6887   4.109   3.301   7.736 -0.5073  0.2520  0.7151
   23MOL   C244 6888   4.094   3.154   7.772  0.0120  0.5539 -0.3941
   23MOL   C245 6889   4.208   3.073   7.806 -1.0159 -0.1871  0.5189
   23MOL   C246 6890   4.190   2.938   7.841  0.0420 -0.9216 -0.4536
   23MOL   C247 6891   4.059   2.884   7.853  0.1469  0.4028 -0.3472
   23MOL   C248 6892   3.952   2.974   7.833  0.0522  0.1794  0.0052
   23MOL   N249 6893   3.969   3.104   7.792  0.2418 -0.2871  0.5489
   23MOL   H250 6894   3.949   3.374   7.863 -0.5917 -0.9534  0.2688
   23MOL   H251 6895   4.088   3.326   7.948  1.7203 -0.8426 -0.6548
   23MOL   H252 6896   4.215   3.321   7.722 -0.7337  0.0362 -1.5306
   23MOL   H253 6897   4.309   3.109   7.805 -1.8216  2.1850  1.1279
   23MOL   H254 6898   4.286   2.889   7.847  0.8114  0.5684 -0.4021
   23MOL   H255 6899   4.042   2.781   7.880 -0.1488 -0.2815 -3.0010
   23MOL   H256 6900   3.849   2.942   7.845  0.1033 -0.4244 -1.0906
   23MOL   C257 6901   4.022   3.328   7.611 -0.2127  0.0125 -0.3273
   23MOL   C258 6902   4.030   3.245   7.487 -0.5380 -0.1500  0.5713
   23MOL   C259 6903   3.916   3.273   7.390 -0.1143 -0.0108  0.2643
   23MOL   C260 6904   3.823   3.174   7.352 -0.0759  0.0708  0.5365
   23MOL   C261 6905   3.709   3.204   7.276  0.6299  0.2444 -0.0311
   23MOL   C262 6906   3.696   3.335   7.239 -0.7905 -0.1707 -0.2609
   23MOL   C263 6907   3.791   3.430   7.280  0.5077  0.6444 -0.0589
   23MOL   N264 6908   3.895   3.404   7.359 -0.4141  0.6651 -0.0401
   23MOL   H265 6909   4.032   3.434   7.586 -1.5292 -0.2027 -1.8671
   23MOL   H266 6910   3.918   3.309   7.636  0.2407 -0.1387  1.5437
   23MOL   H267 6911   4.005   3.143   7.519  0.1136  0.2190  2.3177
   23MOL   H268 6912   3.841   3.070   7.374 -2.1662 -0.3126  0.5729
   23MOL   H269 6913   3.634   3.130   7.253  0.4363  0.3992  0.0972
   23MOL   H270 6914   3.608   3.370   7.186 -1.1750  2.0980  1.7801
   23MOL   H271 6915   3.775   3.536   7.263  1.0409  0.8015  0.4100
   23MOL   C272 6916   4.174   3.249   7.433 -0.6935  0.0400 -0.1764
   23MOL   C273 6917   4.226   3.389   7.388  0.5333  0.1556  0.6166
   23MOL   C274 6918   4.365   3.422   7.450  0.3048 -0.5941 -0.3924
   23MOL   C275 6919   4.473   3.328   7.471  0.2025  0.0659  0.5585
   23MOL   C276 6920   4.593   3.365   7.529 -0.4502 -0.7245  0.1327
   23MOL   C277 6921   4.604   3.502   7.571  0.1100 -0.4130 -0.1850
   23MOL   C278 6922   4.500   3.590   7.537  0.3006  0.3099 -0.0646
   23MOL   N279 6923   4.382   3.554   7.482  0.3826 -0.1778 -0.1739
   23MOL   H280 6924   4.196   3.177   7.355 -1.3437  0.2866 -0.5966
   23MOL   H281 6925   4.231   3.207   7.515  0.5453  2.5760  0.3293
   23MOL   H282 6926   4.170   3.470   7.436  0.6629 -1.3516  3.3979
   23MOL   H283 6927   4.456   3.226   7.440  1.4812 -0.0138  0.0990
   23MOL   H284 6928   4.674   3.298   7.552  0.4009  1.2044  3.0554
   23MOL   H285 6929   4.685   3.544   7.630 -1.0697  1.3890  0.2028
   23MOL   H286 6930   4.497   3.696   7.561 -4.3967  0.2195  0.2219
   23MOL   C287 6931   4.227   3.398   7.235  0.3748 -0.6481 -0.4675
   23MOL   C288 6932   4.205   3.539   7.170  0.2550 -0.1457  0.0530
   23MOL   C289 6933   4.170   3.529   7.017  0.4184  0.6713  0.1572
   23MOL   C290 6934   4.034   3.554   6.979 -0.2158 -0.5780  0.3525
   23MOL   C291 6935   4.003   3.551   6.843  0.3803  0.5482  0.1505
   23MOL   C292 6936   4.116   3.547   6.754  0.9325  0.0529  0.7465
   23MOL   C293 6937   4.246   3.523   6.801 -0.5145  0.2607 -0.5369
   23MOL   N294 6938   4.276   3.524   6.932 -0.1868  1.0787 -0.3409
   23MOL   H295 6939   4.145   3.339   7.193 -1.5859  2.5932 -1.3623
   23MOL   H296 6940   4.320   3.353   7.201  0.3783 -3.6176  3.1466
   23MOL   H297 6941   4.294   3.601   7.183  1.9029 -2.6138  1.0342
   23MOL   H298 6942   3.961   3.563   7.057  0.8536 -1.0451  1.4211
   23MOL   H299 6943   3.904   3.546   6.800  0.7966 -1.9313 -0.5998
   23MOL   H300 6944   4.088   3.551   6.649  0.8013  0.5220  0.7975
   23MOL   H301 6945   4.327   3.537   6.730 -0.8701  0.1020 -0.9762
   23MOL   H302 6946   4.126   3.586   7.228 -1.3349 -2.2470 -0.3652
   24MOL     C1 6947   6.198   3.816   4.284 -0.4438  0.5411 -0.1858
   24MOL     C2 6948   6.243   3.700   4.367 -0.1868  0.0198 -1.0502
   24MOL     C3 6949   6.393   3.692   4.380 -0.4695 -0.4023  0.2123
   24MOL     C4 6950   6.466   3.604   4.297 -0.1130  0.5552  0.8901
   24MOL     C5 6951   6.606   3.602   4.296 -0.0635 -0.2872  0.2484
   24MOL     C6 6952   6.667   3.689   4.391  0.1068  0.3734  0.6783
   24MOL     C7 6953   6.587   3.763   4.483  0.4298  0.3452 -0.4820
   24MOL     N8 6954   6.456   3.774   4.466  0.5978 -0.3112 -1.0528
   24MOL     H9 6955   6.094   3.807   4.251 -0.9191  0.3028  1.3244
   24MOL    H10 6956   6.227   3.903   4.343  0.8059  0.6710 -0.9724
   24MOL    H11 6957   6.218   3.609   4.313 -0.4960 -1.4732  1.5695
   24MOL    H12 6958   6.415   3.538   4.228 -2.5659 -0.7051  3.7906
   24MOL    H13 6959   6.666   3.553   4.221  0.1500 -1.4325  1.1463
   24MOL    H14 6960   6.773   3.711   4.389  0.1597  0.1870  1.2387
   24MOL    H15 6961   6.629   3.833   4.553 -0.8346  0.5800  0.0507
   24MOL    H16 6962   6.257   3.811   4.192 -0.9821  0.2635 -0.5192
   24MOL    C17 6963   6.177   3.692   4.512  0.1772  0.6010 -0.7138
   24MOL    C18 6964   6.022   3.683   4.524  0.3165 -0.5654  0.3507
   24MOL    C19 6965   5.974   3.552   4.463 -0.8042 -0.3561 -0.2735
   24MOL    C20 6966   5.948   3.438   4.542 -1.0215  0.9063  0.0559
   24MOL    C21 6967   5.905   3.320   4.479 -1.1263 -0.0031  0.6017
   24MOL    C22 6968   5.898   3.326   4.338 -0.3860 -0.2109 -0.3253
   24MOL    C23 6969   5.932   3.437   4.266 -0.5692  0.8605 -0.1565
   24MOL    N24 6970   5.972   3.547   4.329 -0.2142 -0.7329  0.0970
   24MOL    H25 6971   6.212   3.786   4.554  0.6645  1.0416 -2.0614
   24MOL    H26 6972   6.214   3.611   4.574 -3.0597 -0.0037  0.5320
   24MOL    H27 6973   5.967   3.758   4.467 -0.9931 -1.6975  0.1000
   24MOL    H28 6974   5.936   3.452   4.649 -2.2835  3.6158 -0.4274
   24MOL    H29 6975   5.866   3.236   4.534 -0.7059  0.3316  1.4220
   24MOL    H30 6976   5.857   3.248   4.276 -1.3921 -0.8182  1.0875
   24MOL    H31 6977   5.934   3.450   4.159  0.5800 -2.8002 -0.6315
   24MOL    C32 6978   5.984   3.708   4.668 -0.0653 -0.1898  0.1547
   24MOL    C33 6979   6.003   3.842   4.732  0.0859 -0.0278 -0.3531
   24MOL    C34 6980   5.926   3.963   4.665 -0.3241 -0.4659 -0.2663
   24MOL    C35 6981   6.002   4.056   4.586  0.1463 -0.1588  0.3935
   24MOL    C36 6982   5.926   4.166   4.543 -0.0349  0.1688 -0.4387
   24MOL    C37 6983   5.790   4.183   4.576  0.4375 -0.4585  0.1735
   24MOL    C38 6984   5.726   4.085   4.647 -0.3380  0.9949 -0.5648
   24MOL    N39 6985   5.794   3.974   4.689  0.0410 -0.3818  0.4193
   24MOL    H40 6986   6.041   3.634   4.722  0.6291 -0.2231 -0.6138
   24MOL    H41 6987   5.878   3.695   4.690 -0.5255  1.8912 -0.6988
   24MOL    H42 6988   6.109   3.869   4.729  0.7482 -1.9565  3.0727
   24MOL    H43 6989   6.108   4.049   4.569  0.1953  0.9595  0.2281
   24MOL    H44 6990   5.972   4.237   4.476 -1.5810  0.9701 -0.6662
   24MOL    H45 6991   5.744   4.272   4.534  0.8684  0.9728  2.5848
   24MOL    H46 6992   5.619   4.091   4.657 -0.2477  1.9488 -0.1226
   24MOL    C47 6993   5.962   3.840   4.877  0.1787  0.4777 -0.1970
   24MOL    C48 6994   6.008   3.970   4.953 -0.2837  0.3589 -0.1473
   24MOL    C49 6995   5.930   3.983   5.087  0.7454  0.6984 -0.0454
   24MOL    C50 6996   5.861   4.107   5.123  1.1539 -0.0906 -0.8235
   24MOL    C51 6997   5.810   4.119   5.251 -0.0047  0.7690 -0.4914
   24MOL    C52 6998   5.811   4.012   5.338 -0.1462 -0.2221 -0.3013
   24MOL    C53 6999   5.864   3.896   5.287 -0.7458  0.8306 -0.5442
   24MOL    N54 7000   5.929   3.883   5.169  0.2599 -0.3095 -0.1797
   24MOL    H55 7001   5.996   3.748   4.925  1.5572  0.8112 -0.5321
   24MOL    H56 7002   5.854   3.839   4.890  0.2991 -2.9256  1.1127
   24MOL    H57 7003   5.979   4.061   4.901 -1.0074  0.1017 -0.1923
   24MOL    H58 7004   5.851   4.190   5.055 -0.0779  0.3032 -0.1947
   24MOL    H59 7005   5.756   4.212   5.264 -2.1811 -0.5014 -0.1170
   24MOL    H60 7006   5.754   4.018   5.430 -1.4133 -1.1470 -1.0177
   24MOL    H61 7007   5.855   3.798   5.333 -1.8878 -0.0022 -2.4690
   24MOL    C62 7008   6.163   3.988   4.966  0.4238  0.8117 -0.3415
   24MOL    C63 7009   6.239   3.898   5.067 -0.0025  0.2607  0.4814
   24MOL    C64 7010   6.293   3.776   4.987 -0.1508 -0.2418 -0.4797
   24MOL    C65 7011   6.230   3.652   5.016  0.0862 -0.2565  0.2810
   24MOL    C66 7012   6.277   3.542   4.946 -0.2469 -0.7726  0.3275
   24MOL    C67 7013   6.379   3.560   4.853 -0.5460  0.1175  1.5809
   24MOL    C68 7014   6.448   3.681   4.839 -0.4301  0.0423  0.0817
   24MOL    N69 7015   6.402   3.791   4.907  0.6282  0.2830  0.1588
   24MOL    H70 7016   6.166   4.087   5.010 -2.4484  0.2531  1.2338
   24MOL    H71 7017   6.212   3.983   4.869  0.7694  0.3059 -0.1456
   24MOL    H72 7018   6.167   3.857   5.138 -0.8302 -1.0788 -1.0929
   24MOL    H73 7019   6.154   3.647   5.092  0.4014  1.7670  0.7568
   24MOL    H74 7020   6.239   3.442   4.963 -0.1372 -0.7834  0.5070
   24MOL    H75 7021   6.421   3.481   4.792  0.0111  2.0318 -0.5948
   24MOL    H76 7022   6.527   3.686   4.765 -0.2991 -0.0698  0.2146
   24MOL    C77 7023   6.357   3.958   5.140  0.2807 -0.0903  0.1575
   24MOL    C78 7024   6.332   4.041   5.260 -0.1325 -0.0749  0.2488
   24MOL    C79 7025   6.224   3.998   5.360  0.7823 -0.7467  0.0404
   24MOL    C80 7026   6.209   3.868   5.406  0.3248 -0.0521 -0.1656
   24MOL    C81 7027   6.115   3.835   5.511  0.0043  0.5650  0.0367
   24MOL    C82 7028   6.034   3.938   5.559  0.1216 -0.5970  0.5872
   24MOL    C83 7029   6.055   4.070   5.501  0.5180 -0.6887  0.0964
   24MOL    N84 7030   6.146   4.096   5.408 -0.4048 -0.4771  0.0653
   24MOL    H85 7031   6.426   4.005   5.070  0.3043 -1.9317 -1.0931
   24MOL    H86 7032   6.418   3.879   5.186  0.1244  0.0293  0.5682
   24MOL    H87 7033   6.297   4.138   5.225  0.7932  0.7502  1.5944
   24MOL    H88 7034   6.271   3.787   5.369 -0.3846 -0.2394 -0.9521
   24MOL    H89 7035   6.104   3.733   5.547 -0.0726  0.0161 -1.5054
   24MOL    H90 7036   5.963   3.921   5.638 -2.7089 -0.0416 -1.7599
   24MOL    H91 7037   5.997   4.156   5.531  0.1622 -0.3233 -1.5793
   24MOL    C92 7038   6.460   4.084   5.339  0.0381  0.4528  0.0895
   24MOL    C93 7039   6.566   4.171   5.255  0.1633 -0.9624  0.1122
   24MOL    C94 7040   6.520   4.315   5.220 -0.2021  0.1032 -0.1589
   24MOL    C95 7041   6.497   4.355   5.092  0.0721 -0.1584  0.0517
   24MOL    C96 7042   6.451   4.484   5.067  0.2473 -0.1340 -0.3557
   24MOL    C97 7043   6.454   4.572   5.175 -0.2139 -0.6808  0.1345
   24MOL    C98 7044   6.493   4.531   5.304 -1.2316  0.0108  0.3293
   24MOL    N99 7045   6.521   4.403   5.326  0.1114  0.5132  0.5787
   24MOL   H100 7046   6.502   3.990   5.376 -0.3648  0.1089 -0.3045
   24MOL   H101 7047   6.432   4.148   5.422 -1.5029 -0.3846  0.2440
   24MOL   H102 7048   6.594   4.134   5.157  3.2743 -1.1864  1.0120
   24MOL   H103 7049   6.501   4.275   5.019 -0.6812 -0.7674  0.6679
   24MOL   H104 7050   6.436   4.526   4.969 -1.5918 -2.0086 -0.8900
   24MOL   H105 7051   6.430   4.675   5.158  1.1323 -0.6055 -1.4817
   24MOL   H106 7052   6.509   4.588   5.394  1.6773  0.3865 -0.3756
   24MOL   C107 7053   6.703   4.182   5.333 -0.3687 -1.2531  0.5236
   24MOL   C108 7054   6.797   4.062   5.339 -0.4335 -0.1639 -1.1972
   24MOL   C109 7055   6.907   4.071   5.241 -0.4974 -0.5150  0.0373
   24MOL   C110 7056   7.021   4.152   5.261  0.3868 -0.3235 -0.3789
   24MOL   C111 7057   7.108   4.177   5.154 -0.1987  0.3786  0.2778
   24MOL   C112 7058   7.087   4.095   5.038 -0.1558  0.7262 -0.0527
   24MOL   C113 7059   6.981   4.003   5.035  0.2039  0.6489 -0.1505
   24MOL   N114 7060   6.889   3.997   5.134  0.0077  0.0484 -0.5336
   24MOL   H115 7061   6.690   4.216   5.435 -0.0247 -0.8233  0.4236
   24MOL   H116 7062   6.755   4.266   5.286  0.4525 -1.8267  0.4026
   24MOL   H117 7063   6.740   3.976   5.303 -2.0795  0.6641 -0.5876
   24MOL   H118 7064   7.029   4.208   5.353 -1.1526  0.7756 -0.8965
   24MOL   H119 7065   7.192   4.245   5.161  0.4496 -0.4363  0.4583
   24MOL   H120 7066   7.149   4.096   4.949  0.2200  0.3412  0.2045
   24MOL   H121 7067   6.949   3.944   4.951  0.0068 -0.2853  0.5701
   24MOL   C122 7068   6.856   4.024   5.480 -0.0094 -0.3895 -0.6083
   24MOL   C123 7069   6.944   3.890   5.480  0.4207  0.5296 -0.0460
   24MOL   C124 7070   7.096   3.921   5.497 -0.1030 -0.3322  0.1619
   24MOL   C125 7071   7.183   3.885   5.396  0.1222  0.6724  0.6528
   24MOL   C126 7072   7.316   3.909   5.421 -0.6005  0.9564 -0.1848
   24MOL   C127 7073   7.358   3.971   5.542 -0.0961 -0.4240 -0.1732
   24MOL   C128 7074   7.260   4.005   5.637  0.7869 -0.1339 -0.8110
   24MOL   N129 7075   7.134   3.975   5.613 -0.5740  0.4855  0.2123
   24MOL   H130 7076   6.778   4.014   5.555  0.5111 -1.8107 -0.2451
   24MOL   H131 7077   6.920   4.107   5.509  0.1691 -0.7842  0.1371
   24MOL   H132 7078   6.931   3.842   5.383  2.2372 -0.2286  0.0540
   24MOL   H133 7079   7.154   3.833   5.307 -0.3635  0.1832  1.0900
   24MOL   H134 7080   7.388   3.884   5.344 -2.3060 -1.1861 -1.1379
   24MOL   H135 7081   7.465   3.990   5.544  0.0074 -0.8725 -1.2080
   24MOL   H136 7082   7.290   4.051   5.731 -2.5627 -0.2116  0.3468
   24MOL   C137 7083   6.889   3.782   5.587 -0.3762 -0.7006 -0.3281
   24MOL   C138 7084   6.978   3.646   5.607 -0.0277  0.2978  0.6955
   24MOL   C139 7085   7.004   3.585   5.747  0.1855 -0.2704 -0.1836
   24MOL   C140 7086   7.129   3.605   5.812  0.2440  0.0762  0.0264
   24MOL   C141 7087   7.147   3.543   5.937  0.2319  0.2172  0.0541
   24MOL   C142 7088   7.038   3.468   5.992 -0.5186 -0.2556  0.7062
   24MOL   C143 7089   6.920   3.460   5.916 -0.1972 -0.5833 -0.1625
   24MOL   N144 7090   6.904   3.504   5.796 -0.2597 -0.6426 -0.0028
   24MOL   H145 7091   6.794   3.739   5.556  0.2404 -2.5607  0.3196
   24MOL   H146 7092   6.887   3.837   5.681 -1.8790 -1.0144 -0.1668
   24MOL   H147 7093   7.077   3.682   5.580 -0.2416  2.0563  2.1529
   24MOL   H148 7094   7.203   3.675   5.775 -0.2965  0.8732  0.4222
   24MOL   H149 7095   7.234   3.552   6.001 -0.9023  0.6390  1.5691
   24MOL   H150 7096   7.047   3.412   6.084  0.4163 -1.1314  0.0822
   24MOL   H151 7097   6.832   3.415   5.958  1.4995 -0.4783  3.7257
   24MOL   C152 7098   6.944   3.535   5.503 -0.3097  0.0926 -0.0319
   24MOL   C153 7099   7.054   3.428   5.477 -0.4188 -0.2251  0.0560
   24MOL   C154 7100   7.013   3.324   5.379  0.6842 -0.2093  0.0367
   24MOL   C155 7101   7.017   3.188   5.405 -1.2269 -0.3388  0.4297
   24MOL   C156 7102   6.977   3.096   5.306 -0.0060 -0.6453 -0.1420
   24MOL   C157 7103   6.937   3.146   5.176 -0.1918 -0.6330  0.3946
   24MOL   C158 7104   6.952   3.283   5.151 -0.5602 -0.2179 -0.0692
   24MOL   N159 7105   6.987   3.364   5.252  0.1120 -0.5789  0.0494
   24MOL   H160 7106   6.909   3.574   5.407 -0.8399  2.5216  1.1019
   24MOL   H161 7107   6.859   3.482   5.546  2.1550 -4.1530 -0.1037
   24MOL   H162 7108   7.053   3.377   5.574  2.1306 -0.2085  0.1171
   24MOL   H163 7109   7.052   3.149   5.499  1.2486 -0.0503 -0.3331
   24MOL   H164 7110   6.970   2.991   5.330  0.7216 -0.7819 -0.5033
   24MOL   H165 7111   6.914   3.075   5.098  1.0307 -1.6928  0.9684
   24MOL   H166 7112   6.931   3.322   5.053  2.3960  0.9087 -0.2913
   24MOL   C167 7113   7.196   3.494   5.455  0.1374 -0.2756 -0.2404
   24MOL   C168 7114   7.312   3.406   5.406  0.0157 -0.1568 -0.2538
   24MOL   C169 7115   7.340   3.434   5.258  0.9918  0.0484 -0.0586
   24MOL   C170 7116   7.342   3.324   5.172  0.2537  0.5952 -0.2137
   24MOL   C171 7117   7.356   3.348   5.034 -0.5604  0.1729  0.1713
   24MOL   C172 7118   7.378   3.485   4.992 -0.3615  0.2686  0.6445
   24MOL   C173 7119   7.377   3.585   5.082  0.3460 -0.6332 -0.4534
   24MOL   N174 7120   7.353   3.564   5.213  0.6702 -0.0041  0.2939
   24MOL   H175 7121   7.216   3.526   5.557 -1.3107 -0.5945  0.1600
   24MOL   H176 7122   7.190   3.578   5.385  0.9449  0.7370  0.8802
   24MOL   H177 7123   7.277   3.304   5.409 -1.5710  0.2851 -2.7894
   24MOL   H178 7124   7.337   3.226   5.215  0.8312  1.0561  0.9315
   24MOL   H179 7125   7.338   3.270   4.962 -2.0762 -0.6817  1.4349
   24MOL   H180 7126   7.390   3.504   4.886 -1.1008 -0.9139  0.3341
   24MOL   H181 7127   7.365   3.686   5.048  0.6621 -0.9019 -1.3646
   24MOL   C182 7128   7.431   3.420   5.501 -0.3075  0.0795  0.0657
   24MOL   C183 7129   7.422   3.333   5.625 -0.3719  0.5811 -0.3601
   24MOL   C184 7130   7.419   3.185   5.592 -0.3183 -0.3490 -0.6792
   24MOL   C185 7131   7.308   3.106   5.637 -1.0657  0.3086 -0.0726
   24MOL   C186 7132   7.294   2.980   5.574  0.9073  0.5464  0.3210
   24MOL   C187 7133   7.391   2.934   5.493  0.0063  0.1755  0.1744
   24MOL   C188 7134   7.500   3.017   5.450  0.7719 -0.3215 -0.9185
   24MOL   N189 7135   7.513   3.137   5.505 -0.3092  0.1465 -0.1702
   24MOL   H190 7136   7.442   3.527   5.522  0.3887  0.2417 -1.1133
   24MOL   H191 7137   7.517   3.385   5.445 -0.3976  1.2785 -0.8373
   24MOL   H192 7138   7.335   3.356   5.687  1.2915  0.2270  2.1921
   24MOL   H193 7139   7.234   3.137   5.709 -1.2020 -1.9648  0.8190
   24MOL   H194 7140   7.208   2.924   5.608  0.4375  1.3671  0.5025
   24MOL   H195 7141   7.379   2.836   5.451  0.9625  1.0558 -2.2463
   24MOL   H196 7142   7.581   2.984   5.386  0.1174 -1.5041 -1.1453
   24MOL   C197 7143   7.536   3.365   5.730  0.0748 -0.3632 -0.6962
   24MOL   C198 7144   7.554   3.264   5.851 -0.7529 -0.7107 -0.3446
   24MOL   C199 7145   7.677   3.301   5.946  0.6859 -0.2289  0.0267
   24MOL   C200 7146   7.793   3.215   5.954  0.4233 -0.1142  0.3000
   24MOL   C201 7147   7.902   3.263   6.031  0.2626 -0.3920  0.2521
   24MOL   C202 7148   7.895   3.388   6.091  0.3056 -0.5852 -0.4180
   24MOL   C203 7149   7.774   3.459   6.081  0.3404 -0.2726 -0.1561
   24MOL   N204 7150   7.666   3.422   6.005 -0.4020 -0.0030 -0.3834
   24MOL   H205 7151   7.512   3.464   5.768  2.8097  0.0050  0.2404
   24MOL   H206 7152   7.632   3.361   5.677  0.9040 -0.5798  0.7879
   24MOL   H207 7153   7.598   3.174   5.809  3.1514  0.8107  0.3292
   24MOL   H208 7154   7.796   3.117   5.909 -1.8363  0.0665 -0.2807
   24MOL   H209 7155   7.993   3.208   6.048  2.3267  3.0346  0.7266
   24MOL   H210 7156   7.974   3.423   6.155  1.4576 -2.7221 -0.5988
   24MOL   H211 7157   7.764   3.556   6.126  3.6137  0.1010 -0.1633
   24MOL   C212 7158   7.431   3.242   5.937  0.8374  0.0027 -0.2046
   24MOL   C213 7159   7.439   3.125   6.033  0.5001 -0.0322  0.1387
   24MOL   C214 7160   7.316   3.138   6.122 -0.1625 -0.2268 -0.4874
   24MOL   C215 7161   7.340   3.140   6.263  0.6074 -0.2377 -0.0224
   24MOL   C216 7162   7.236   3.176   6.350 -0.2505 -0.3414  0.0575
   24MOL   C217 7163   7.108   3.199   6.295 -0.1517  0.4495 -0.9948
   24MOL   C218 7164   7.090   3.185   6.153  0.7163  0.4464  0.2105
   24MOL   N219 7165   7.192   3.153   6.069  0.1906 -0.0191  1.1939
   24MOL   H220 7166   7.350   3.208   5.872  0.0079 -1.6765  1.6674
   24MOL   H221 7167   7.396   3.326   5.996  2.2456 -0.2626  1.0232
   24MOL   H222 7168   7.532   3.130   6.088  1.2964  0.1870 -1.2021
   24MOL   H223 7169   7.440   3.147   6.304 -0.1075  1.1238  1.5514
   24MOL   H224 7170   7.256   3.180   6.456  1.1195 -2.1532 -0.1035
   24MOL   H225 7171   7.021   3.214   6.358  0.4291  0.2434 -0.1450
   24MOL   H226 7172   6.990   3.194   6.113  1.1930  0.1646 -1.0806
   24MOL   C227 7173   7.445   2.978   5.969  0.0533 -1.0457 -0.0098
   24MOL   C228 7174   7.453   2.860   6.067  0.1270  0.1481  0.4665
   24MOL   C229 7175   7.330   2.773   6.047  0.4761  0.2596 -0.0058
   24MOL   C230 7176   7.307   2.689   5.934  0.6338 -0.2180  0.1645
   24MOL   C231 7177   7.197   2.602   5.925  0.1844  0.7728 -0.2339
   24MOL   C232 7178   7.097   2.615   6.024 -0.1466 -0.1079 -0.3904
   24MOL   C233 7179   7.127   2.698   6.132  0.2113  0.7145 -0.0870
   24MOL   N234 7180   7.234   2.776   6.146  0.0288 -0.0197 -0.4828
   24MOL   H235 7181   7.519   2.969   5.889  1.0117  0.4828  0.6570
   24MOL   H236 7182   7.347   2.980   5.923 -0.9529 -2.4829  2.0107
   24MOL   H237 7183   7.422   2.896   6.165 -0.7423  2.3091 -0.5645
   24MOL   H238 7184   7.388   2.672   5.865 -0.0695 -1.6465 -0.3279
   24MOL   H239 7185   7.193   2.531   5.844 -0.1995 -1.0233  1.3392
   24MOL   H240 7186   7.010   2.551   6.022 -1.1759  1.2299  0.5269
   24MOL   H241 7187   7.043   2.708   6.199  0.6384  2.0469  0.2697
   24MOL   C242 7188   7.589   2.783   6.061 -0.3865  0.2517 -0.3848
   24MOL   C243 7189   7.706   2.849   6.144 -0.0776 -0.2469  1.0385
   24MOL   C244 7190   7.662   2.885   6.289 -0.0915  0.6446 -0.3922
   24MOL   C245 7191   7.693   3.013   6.340 -0.1202  1.2501 -0.1343
   24MOL   C246 7192   7.683   3.031   6.482  0.2252 -0.1979 -0.1767
   24MOL   C247 7193   7.611   2.933   6.550  0.2561 -0.2000  0.1307
   24MOL   C248 7194   7.572   2.815   6.488 -0.5819 -1.0877 -0.4479
   24MOL   N249 7195   7.603   2.787   6.361 -0.0420 -0.0540 -0.8325
   24MOL   H250 7196   7.621   2.775   5.957  0.7180 -1.1046  0.0506
   24MOL   H251 7197   7.560   2.691   6.111 -0.1119  1.0132  1.2022
   24MOL   H252 7198   7.740   2.932   6.083 -1.6100  0.3469  0.9528
   24MOL   H253 7199   7.730   3.099   6.287 -0.2164  1.8281  0.7223
   24MOL   H254 7200   7.727   3.121   6.521  0.5332  0.1797 -1.3945
   24MOL   H255 7201   7.588   2.934   6.655 -1.4718 -2.2144 -0.1848
   24MOL   H256 7202   7.533   2.733   6.547 -1.0655 -0.5137  0.0326
   24MOL   C257 7203   7.824   2.748   6.163 -0.5574  0.7864  0.2219
   24MOL   C258 7204   7.948   2.791   6.245 -0.3888 -0.4268 -0.4833
   24MOL   C259 7205   8.042   2.670   6.255 -0.6128 -0.2232  0.0278
   24MOL   C260 7206   8.070   2.598   6.377  0.3635  0.1453 -0.6936
   24MOL   C261 7207   0.001   2.484   6.375 -0.3743 -0.1704 -0.3055
   24MOL   C262 7208   0.067   2.456   6.258  0.7045  0.2925  0.9042
   24MOL   C263 7209   0.048   2.530   6.144  0.4638  0.3066  0.2924
   24MOL   N264 7210   8.112   2.632   6.142  0.4177  0.2537  0.0955
   24MOL   H265 7211   7.863   2.714   6.067  0.4818 -0.0660  0.9373
   24MOL   H266 7212   7.779   2.663   6.212 -0.2227  0.4900  0.0235
   24MOL   H267 7213   7.908   2.805   6.345 -1.0603  1.2071 -0.9605
   24MOL   H268 7214   8.022   2.623   6.470  0.2004  1.3183 -1.0834
   24MOL   H269 7215   0.027   2.414   6.453  0.6230  1.5773  0.9667
   24MOL   H270 7216   0.123   2.364   6.258 -0.4303 -0.4046  0.3798
   24MOL   H271 7217   0.095   2.500   6.051 -0.2039 -0.2038  0.1146
   24MOL   C272 7218   8.014   2.927   6.201 -0.2572  0.2132 -0.6751
   24MOL   C273 7219   8.116   2.985   6.305  0.6446  0.5405 -0.1819
   24MOL   C274 7220   0.102   3.005   6.241  0.7142  0.4124 -0.2902
   24MOL   C275 7221   0.205   2.927   6.292  0.1223 -0.0425 -0.9661
   24MOL   C276 7222   0.334   2.954   6.242  0.2837  0.2125  0.8956
   24MOL   C277 7223   0.348   3.053   6.142 -0.0998 -0.5282 -0.0205
   24MOL   C278 7224   0.235   3.122   6.095  0.3360 -0.0810 -0.2325
   24MOL   N279 7225   0.112   3.100   6.146  0.1092 -0.0872  0.6833
   24MOL   H280 7226   7.946   3.008   6.175 -1.8891 -0.3975  1.4963
   24MOL   H281 7227   8.065   2.892   6.111  0.1996 -1.7588  0.3222
   24MOL   H282 7228   8.141   2.915   6.386  0.2998 -0.8591 -1.2654
   24MOL   H283 7229   0.196   2.843   6.360 -2.4303  0.2551 -0.8655
   24MOL   H284 7230   0.420   2.895   6.270 -0.9211 -2.6554 -1.2646
   24MOL   H285 7231   0.448   3.075   6.107  0.7020 -2.3256  1.0465
   24MOL   H286 7232   0.244   3.200   6.020  1.7720 -1.4744 -1.5310
   24MOL   C287 7233   8.061   3.111   6.381 -0.1118 -0.0540  0.4988
   24MOL   C288 7234   8.128   3.167   6.500 -0.0086 -0.1487  0.2912
   24MOL   C289 7235   8.030   3.255   6.575  0.0991  0.0150 -0.3833
   24MOL   C290 7236   8.028   3.395   6.565  0.2810  0.3710 -0.0672
   24MOL   C291 7237   7.933   3.466   6.633 -0.2171  0.9383 -0.6652
   24MOL   C292 7238   7.848   3.405   6.723 -0.8954 -0.5560 -1.2331
   24MOL   C293 7239   7.854   3.262   6.729  0.3923  0.4800 -0.0801
   24MOL   N294 7240   7.945   3.186   6.660 -0.0144  0.1873 -0.1343
   24MOL   H295 7241   7.954   3.097   6.399 -0.1385  0.6184  0.8661
   24MOL   H296 7242   8.061   3.197   6.314 -2.3174 -0.3354  0.0744
   24MOL   H297 7243   0.062   3.229   6.475 -2.0390  3.1748  1.2519
   24MOL   H298 7244   8.101   3.442   6.500 -0.7219  0.8087 -0.8872
   24MOL   H299 7245   7.930   3.573   6.616 -0.1877  1.2821  1.3159
   24MOL   H300 7246   7.786   3.465   6.788  0.2576  0.7309 -1.3025
   24MOL   H301 7247   7.793   3.209   6.801 -1.0742  0.6108 -1.2191
   24MOL   H302 7248   0.016   3.091   6.567  0.5748 -0.7887 -0.7529
   25MOL     C1 7249   6.945   4.877   7.107 -0.0153  0.2411 -0.6546
   25MOL     C2 7250   7.000   4.739   7.105 -0.1461  0.4086 -0.5022
   25MOL     C3 7251   6.957   4.661   7.222 -0.7040  0.1885 -0.3056
   25MOL     C4 7252   7.057   4.617   7.313  0.2494 -0.2432  1.0288
   25MOL     C5 7253   7.021   4.533   7.415 -0.1877  0.1735 -0.0210
   25MOL     C6 7254   6.881   4.504   7.427 -0.1119 -0.6287  0.8377
   25MOL     C7 7255   6.794   4.535   7.324 -0.5708  0.1829  0.2667
   25MOL     N8 7256   6.827   4.618   7.228 -0.8537  0.0037  0.5121
   25MOL     H9 7257   6.949   4.922   7.207  3.3704 -1.4767  0.0713
   25MOL    H10 7258   6.998   4.950   7.046  3.7703 -1.1612  0.7485
   25MOL    H11 7259   7.107   4.762   7.109  0.4573 -1.6867 -2.8938
   25MOL    H12 7260   7.159   4.651   7.308 -0.3408  1.3852 -0.3789
   25MOL    H13 7261   7.090   4.498   7.491 -2.2865 -0.6243  1.5759
   25MOL    H14 7262   6.851   4.439   7.508 -2.1159  1.5122  1.8529
   25MOL    H15 7263   6.692   4.501   7.323 -1.1178  1.7974  0.1445
   25MOL    H16 7264   6.840   4.869   7.079  0.6020 -0.2918 -2.8601
   25MOL    C17 7265   6.979   4.652   6.979 -0.5120  0.5222 -0.3184
   25MOL    C18 7266   7.037   4.725   6.854  0.3816  0.0325 -0.6396
   25MOL    C19 7267   7.177   4.781   6.877  0.1480 -0.1739  0.1652
   25MOL    C20 7268   7.207   4.917   6.865 -0.4364 -0.4062  0.6899
   25MOL    C21 7269   7.333   4.965   6.901  0.1889  0.9413 -0.2715
   25MOL    C22 7270   7.421   4.863   6.936  0.1623 -0.0382 -0.3430
   25MOL    C23 7271   7.389   4.730   6.947  0.0703  0.0704 -0.6153
   25MOL    N24 7272   7.266   4.686   6.916 -0.0053 -0.4716 -0.1865
   25MOL    H25 7273   6.872   4.630   6.969  0.1210 -2.5335 -0.6734
   25MOL    H26 7274   7.036   4.562   7.002 -1.8959  0.1468  1.7953
   25MOL    H27 7275   6.966   4.805   6.832  2.2340  1.9298  0.2065
   25MOL    H28 7276   7.126   4.980   6.833  0.2495  0.6713  1.0777
   25MOL    H29 7277   7.364   5.068   6.890  1.4935  0.7044  1.0630
   25MOL    H30 7278   7.522   4.892   6.963 -0.7923  1.0122  2.3059
   25MOL    H31 7279   7.457   4.649   6.969 -1.3631 -1.0977 -0.4549
   25MOL    C32 7280   7.040   4.647   6.718 -0.2956  0.3364 -0.0498
   25MOL    C33 7281   6.919   4.556   6.686 -0.1383  0.2943  0.6570
   25MOL    C34 7282   6.788   4.641   6.686 -0.3340  0.2372 -0.1408
   25MOL    C35 7283   6.685   4.610   6.772  0.0300  0.2050  0.5689
   25MOL    C36 7284   6.568   4.686   6.766  0.2121 -0.1639  0.0730
   25MOL    C37 7285   6.558   4.789   6.677  0.2250 -0.4665  0.7622
   25MOL    C38 7286   6.668   4.807   6.587  0.6840  0.0610 -0.2888
   25MOL    N39 7287   6.781   4.736   6.594  0.8099 -0.6383 -0.4059
   25MOL    H40 7288   7.128   4.583   6.722  0.1882  1.0320  0.6261
   25MOL    H41 7289   7.057   4.722   6.641 -0.4023 -0.1299 -0.5269
   25MOL    H42 7290   6.911   4.489   6.772 -0.2822 -1.4146 -0.6649
   25MOL    H43 7291   6.689   4.530   6.845 -1.5668  0.3763  0.8621
   25MOL    H44 7292   6.486   4.677   6.835  0.0616  1.0434  0.0575
   25MOL    H45 7293   6.470   4.851   6.665 -0.2072 -1.3665 -0.7825
   25MOL    H46 7294   6.664   4.888   6.516 -0.3703  0.8865  0.7046
   25MOL    C47 7295   6.944   4.478   6.547 -0.0793 -0.3526  0.1105
   25MOL    C48 7296   6.841   4.374   6.498 -0.1842  0.1207  0.0122
   25MOL    C49 7297   6.796   4.408   6.352 -0.4551  0.4148  0.7266
   25MOL    C50 7298   6.672   4.468   6.328  0.6570  0.1420 -0.2593
   25MOL    C51 7299   6.638   4.509   6.199 -0.6614 -0.2025 -0.1377
   25MOL    C52 7300   6.729   4.485   6.094 -0.0276  0.4172  0.0979
   25MOL    C53 7301   6.850   4.425   6.125 -0.3621  0.8136 -0.3944
   25MOL    N54 7302   6.889   4.393   6.252 -0.1629 -0.1942  0.7992
   25MOL    H55 7303   7.041   4.429   6.558  0.5544  1.0522  0.9485
   25MOL    H56 7304   6.964   4.546   6.464 -0.1979 -1.4048 -0.8008
   25MOL    H57 7305   6.753   4.412   6.550  0.6707  2.0174  0.1468
   25MOL    H58 7306   6.607   4.487   6.412  0.8703 -4.2749  0.9962
   25MOL    H59 7307   6.540   4.547   6.173 -0.7383 -2.4223 -3.4203
   25MOL    H60 7308   6.720   4.509   5.989  2.3993  1.0575  0.0166
   25MOL    H61 7309   6.934   4.400   6.062  0.2903  1.1135  0.3465
   25MOL    C62 7310   6.874   4.227   6.519 -0.3029 -0.7593  0.1395
   25MOL    C63 7311   6.875   4.173   6.668 -0.3727  0.9600  0.4863
   25MOL    C64 7312   6.739   4.162   6.721  0.5451 -0.3602  0.1041
   25MOL    C65 7313   6.672   4.040   6.725  0.4194  0.3487  0.4415
   25MOL    C66 7314   6.542   4.034   6.777  0.4880  0.1596  0.4135
   25MOL    C67 7315   6.481   4.154   6.808 -0.6196 -0.1131  0.0820
   25MOL    C68 7316   6.563   4.269   6.824  0.9585  0.5440  0.1512
   25MOL    N69 7317   6.687   4.278   6.773  0.9726 -0.1786 -0.2639
   25MOL    H70 7318   6.971   4.209   6.472 -0.6003 -2.6592  0.1974
   25MOL    H71 7319   6.810   4.165   6.456 -1.5594 -0.1026  0.7442
   25MOL    H72 7320   6.927   4.249   6.726 -2.0185  3.0137 -0.6590
   25MOL    H73 7321   6.721   3.959   6.674  1.0345  1.3269 -0.5283
   25MOL    H74 7322   6.490   3.942   6.758  1.2212  0.0817 -1.2943
   25MOL    H75 7323   6.378   4.169   6.838 -0.7103  1.0513 -0.7431
   25MOL    H76 7324   6.513   4.356   6.863 -0.6569 -1.4487  2.6967
   25MOL    C77 7325   6.952   4.036   6.676 -0.6204  0.0364 -0.5162
   25MOL    C78 7326   7.104   4.040   6.647 -0.2659  0.5812 -0.3638
   25MOL    C79 7327   7.177   4.155   6.718 -0.1882  0.0537 -0.0704
   25MOL    C80 7328   7.215   4.144   6.858  0.2233 -0.3330  0.0166
   25MOL    C81 7329   7.278   4.257   6.923  0.2178 -0.0648 -0.2598
   25MOL    C82 7330   7.309   4.367   6.840 -0.3296  0.2396  0.3836
   25MOL    C83 7331   7.276   4.367   6.705  0.2881 -0.5955 -0.0101
   25MOL    N84 7332   7.215   4.262   6.649  0.7595  0.5206 -0.1766
   25MOL    H85 7333   6.913   3.959   6.610 -1.9705  1.3232 -1.2273
   25MOL    H86 7334   6.950   3.987   6.774  1.0950  1.0852  0.0684
   25MOL    H87 7335   7.102   4.055   6.539 -1.7523  2.8587 -0.0459
   25MOL    H88 7336   7.188   4.055   6.913  1.9089 -0.8246  0.0693
   25MOL    H89 7337   7.301   4.253   7.028 -1.4707 -0.4479  0.1164
   25MOL    H90 7338   7.361   4.449   6.887  0.7187 -0.2097  0.0406
   25MOL    H91 7339   7.279   4.460   6.649  0.4889 -1.3846 -1.3481
   25MOL    C92 7340   7.155   3.900   6.675  0.0148 -0.1112  0.2153
   25MOL    C93 7341   7.296   3.860   6.646 -0.4510 -1.0102 -0.2815
   25MOL    C94 7342   7.325   3.724   6.717 -1.1608 -0.0274 -0.3977
   25MOL    C95 7343   7.300   3.605   6.649  0.5938  0.1074 -0.1623
   25MOL    C96 7344   7.342   3.480   6.710 -0.3869 -0.1017  0.1522
   25MOL    C97 7345   7.412   3.490   6.827  0.7361  0.1366 -0.3594
   25MOL    C98 7346   7.414   3.609   6.895 -0.1789 -0.2292 -0.0371
   25MOL    N99 7347   7.385   3.729   6.836 -0.5700  0.0125  0.7514
   25MOL   H100 7348   7.088   3.817   6.650 -0.5306  0.5892 -0.6597
   25MOL   H101 7349   7.160   3.888   6.783 -0.0108  3.9172  0.7208
   25MOL   H102 7350   7.353   3.939   6.695 -1.4394 -0.8643  0.6533
   25MOL   H103 7351   7.241   3.607   6.559 -0.7365 -0.6276  0.6706
   25MOL   H104 7352   7.315   3.384   6.668  2.3305 -1.1565  0.7277
   25MOL   H105 7353   7.434   3.404   6.890 -0.7296  0.3266  0.4468
   25MOL   H106 7354   7.458   3.605   6.993 -0.2296 -2.9352 -0.0833
   25MOL   C107 7355   7.323   3.864   6.499  0.0530 -0.3040  0.0356
   25MOL   C108 7356   7.460   3.826   6.456 -0.7693 -0.3197 -0.5953
   25MOL   C109 7357   7.487   3.684   6.409  0.4881 -1.5415  0.0002
   25MOL   C110 7358   7.581   3.601   6.480  0.0931 -0.2699 -0.4991
   25MOL   C111 7359   7.598   3.467   6.427 -0.6313 -0.0322  0.0303
   25MOL   C112 7360   7.531   3.428   6.305 -0.8736  0.0028 -0.1540
   25MOL   C113 7361   7.447   3.522   6.246  0.1987 -0.4821 -0.0519
   25MOL   N114 7362   7.418   3.645   6.297  0.4717  0.3563 -0.0801
   25MOL   H115 7363   7.308   3.967   6.469  0.8400 -0.4943 -1.0410
   25MOL   H116 7364   7.254   3.791   6.457 -0.3863  0.1798 -0.0865
   25MOL   H117 7365   7.520   3.848   6.545 -2.0158  3.0006 -0.5285
   25MOL   H118 7366   7.632   3.633   6.569  0.1013 -0.2940 -0.4951
   25MOL   H119 7367   7.659   3.386   6.463 -0.9823 -0.3906 -0.1786
   25MOL   H120 7368   7.570   3.341   6.256  1.4744 -0.0535  1.7405
   25MOL   H121 7369   7.414   3.515   6.143  0.5433 -0.3479 -0.1722
   25MOL   C122 7370   7.522   3.932   6.353  0.1037  0.2962 -0.2166
   25MOL   C123 7371   7.548   4.086   6.409  0.6216  1.0455 -0.2003
   25MOL   C124 7372   7.630   4.079   6.539  0.5962 -0.2261 -0.9558
   25MOL   C125 7373   7.580   4.133   6.655  0.4201 -0.0258 -0.2022
   25MOL   C126 7374   7.669   4.178   6.757 -0.2856  0.2507  0.6017
   25MOL   C127 7375   7.805   4.136   6.750  0.7582 -0.2336  0.1037
   25MOL   C128 7376   7.845   4.070   6.630  0.0533  0.7912 -0.0816
   25MOL   N129 7377   7.761   4.046   6.526 -0.0809 -0.1144  0.1881
   25MOL   H130 7378   7.472   3.939   6.256  1.1874  1.8945 -0.6920
   25MOL   H131 7379   7.621   3.906   6.314 -0.7474 -2.3112 -0.7266
   25MOL   H132 7380   7.452   4.126   6.442  1.5714  0.6560  3.3177
   25MOL   H133 7381   7.478   4.163   6.668 -0.6098 -2.4462 -2.2088
   25MOL   H134 7382   7.629   4.229   6.844 -1.4199 -0.5064  0.5235
   25MOL   H135 7383   7.878   4.155   6.828  0.3966  0.2702  0.3275
   25MOL   H136 7384   7.949   4.045   6.616 -0.3079 -0.2289 -1.0098
   25MOL   C137 7385   7.616   4.182   6.305  0.2276  0.4252  0.4398
   25MOL   C138 7386   7.514   4.248   6.212  0.1725  0.1873 -0.2020
   25MOL   C139 7387   7.426   4.347   6.284 -0.2261  0.8849  0.4706
   25MOL   C140 7388   7.290   4.349   6.245  0.3336  0.0984 -0.0932
   25MOL   C141 7389   7.213   4.452   6.302  0.2025  0.1600 -0.9416
   25MOL   C142 7390   7.266   4.545   6.388  0.1773 -0.1388 -0.1336
   25MOL   C143 7391   7.404   4.536   6.407  0.5071  0.6179 -0.1068
   25MOL   N144 7392   7.482   4.434   6.369 -0.3324 -0.7009 -0.2301
   25MOL   H145 7393   7.699   4.135   6.252 -1.6086  1.0994 -3.1596
   25MOL   H146 7394   7.663   4.268   6.352  2.9168 -0.5082 -0.4724
   25MOL   H147 7395   7.447   4.170   6.178 -1.5636  1.4967  0.1298
   25MOL   H148 7396   7.252   4.271   6.181 -0.8078  0.2701  0.3620
   25MOL   H149 7397   7.107   4.461   6.282  0.1880  2.7649  0.1231
   25MOL   H150 7398   7.210   4.632   6.420 -1.1184 -0.5854 -1.1393
   25MOL   H151 7399   7.456   4.622   6.448  1.6310  0.1696 -0.5727
   25MOL   C152 7400   7.582   4.315   6.097 -0.3572 -0.0462 -0.2338
   25MOL   C153 7401   7.548   4.257   5.962  0.1598 -0.5713 -0.2567
   25MOL   C154 7402   7.440   4.342   5.898  0.3803 -0.0349  0.0588
   25MOL   C155 7403   7.304   4.299   5.890  0.6544 -0.2169 -0.3053
   25MOL   C156 7404   7.200   4.368   5.826  0.9214 -0.3156  0.1296
   25MOL   C157 7405   7.244   4.497   5.782 -0.7007 -0.5793  1.0364
   25MOL   C158 7406   7.378   4.534   5.784 -0.0173  0.0478 -0.1144
   25MOL   N159 7407   7.473   4.460   5.842  0.4779 -0.1189  0.2711
   25MOL   H160 7408   7.690   4.302   6.104 -0.0699  1.2509 -1.9210
   25MOL   H161 7409   7.568   4.423   6.104 -3.4123 -0.4785  1.2930
   25MOL   H162 7410   7.498   4.163   5.985 -0.2724 -0.4334 -0.6268
   25MOL   H163 7411   7.280   4.201   5.930  1.4788 -0.3821 -0.2097
   25MOL   H164 7412   7.098   4.331   5.826  0.4494  0.9485  0.8274
   25MOL   H165 7413   7.177   4.569   5.736  2.0000  1.5533  0.2610
   25MOL   H166 7414   7.400   4.634   5.748 -1.2091  0.8806  1.3688
   25MOL   C167 7415   7.662   4.230   5.869  0.2069 -0.1590 -0.5783
   25MOL   C168 7416   7.760   4.113   5.918 -0.3230 -0.0001 -0.2379
   25MOL   C169 7417   7.688   3.980   5.928 -0.5878  0.3418  0.0949
   25MOL   C170 7418   7.681   3.899   6.045  0.4174  0.1537 -0.1591
   25MOL   C171 7419   7.613   3.780   6.039  0.3199  0.5775  0.2939
   25MOL   C172 7420   7.564   3.739   5.913 -0.6355 -0.0858 -0.0120
   25MOL   C173 7421   7.578   3.824   5.798 -0.6389 -0.5579  0.2416
   25MOL   N174 7422   7.643   3.941   5.806 -0.3096 -0.2034 -0.0709
   25MOL   H175 7423   7.714   4.326   5.860 -1.2270  0.8006  1.0199
   25MOL   H176 7424   7.619   4.206   5.772  0.1333 -0.5233 -0.4535
   25MOL   H177 7425   7.781   4.127   6.024 -0.5136  0.8253 -0.2991
   25MOL   H178 7426   7.729   3.925   6.139  0.0934  1.1434 -0.2570
   25MOL   H179 7427   7.599   3.716   6.125 -0.7100  0.0194 -0.2877
   25MOL   H180 7428   7.516   3.643   5.907  0.8892 -0.7801 -1.2735
   25MOL   H181 7429   7.550   3.818   5.695  0.0707 -3.1385  0.1587
   25MOL   C182 7430   7.892   4.114   5.846  0.3830 -0.1347 -0.3696
   25MOL   C183 7431   7.983   4.239   5.864  0.1713  0.4237  0.1522
   25MOL   C184 7432   7.996   4.273   6.012 -0.4733  0.3144  0.3550
   25MOL   C185 7433   7.989   4.406   6.053  0.5367  0.0934  0.0695
   25MOL   C186 7434   7.991   4.428   6.192 -0.3916 -0.4973  0.1756
   25MOL   C187 7435   7.997   4.315   6.282  1.0674 -0.1564  0.0032
   25MOL   C188 7436   8.013   4.188   6.227 -0.0972  0.2026 -0.2879
   25MOL   N189 7437   8.014   4.174   6.100  0.2303 -0.2943 -0.4230
   25MOL   H190 7438   7.877   4.104   5.739  1.2885 -1.0438 -0.4216
   25MOL   H191 7439   7.950   4.030   5.884 -0.7807 -0.0327  1.6856
   25MOL   H192 7440   7.930   4.319   5.813 -0.4619  0.7394  1.2804
   25MOL   H193 7441   7.975   4.489   5.985  1.6903 -0.5957 -1.0339
   25MOL   H194 7442   7.966   4.525   6.233 -2.2708 -0.3514 -1.2558
   25MOL   H195 7443   7.988   4.319   6.390  1.1020 -1.8291  0.0694
   25MOL   H196 7444   8.020   4.095   6.282 -0.2309  0.5714  0.3614
   25MOL   C197 7445   8.120   4.222   5.810 -0.0773  0.3054  1.0011
   25MOL   C198 7446   8.132   4.220   5.653 -0.1303 -0.0610 -0.9620
   25MOL   C199 7447   8.078   4.358   5.601 -0.1621 -0.0590  0.1689
   25MOL   C200 7448   7.966   4.350   5.512  1.0579  0.1775 -0.0866
   25MOL   C201 7449   7.918   4.466   5.448  0.1547  0.6978 -0.7466
   25MOL   C202 7450   7.993   4.584   5.476  0.0902 -0.5335  0.4248
   25MOL   C203 7451   8.102   4.584   5.561 -0.8619  0.7207 -0.2793
   25MOL   N204 7452   8.140   4.475   5.640 -0.3259  0.0144 -0.4270
   25MOL   H205 7453   0.021   4.135   5.850  2.5421  0.7683 -1.3315
   25MOL   H206 7454   0.033   4.305   5.836  1.4711  0.0782 -1.9933
   25MOL   H207 7455   8.064   4.141   5.621 -2.4981  1.9837 -1.0728
   25MOL   H208 7456   7.933   4.252   5.479  1.3089 -0.3972  1.3366
   25MOL   H209 7457   7.839   4.459   5.374 -0.5693  1.6733 -0.0864
   25MOL   H210 7458   7.976   4.677   5.423  0.2426  1.1359  3.2187
   25MOL   H211 7459   8.148   4.680   5.578 -0.1707  0.3802 -0.2197
   25MOL   C212 7460   0.126   4.187   5.609 -0.2602 -0.0112  0.3142
   25MOL   C213 7461   0.129   4.168   5.458  0.0437 -0.3988 -0.0549
   25MOL   C214 7462   0.248   4.247   5.404  0.2317  0.1580 -0.0730
   25MOL   C215 7463   0.218   4.357   5.319  0.0797 -0.0430 -0.0221
   25MOL   C216 7464   0.325   4.436   5.283  0.5822 -0.2094 -0.2702
   25MOL   C217 7465   0.456   4.399   5.324  0.3505 -0.2322  1.0470
   25MOL   C218 7466   0.472   4.291   5.405  0.1550  0.2792  0.1023
   25MOL   N219 7467   0.370   4.215   5.445  0.0647  0.7476 -0.1318
   25MOL   H220 7468   0.173   4.104   5.661  1.2131  0.5945 -0.0256
   25MOL   H221 7469   0.181   4.271   5.651  0.1394  0.0768 -0.3827
   25MOL   H222 7470   0.041   4.220   5.419  0.6186  1.1820  0.6880
   25MOL   H223 7471   0.115   4.377   5.296 -0.3184 -0.2931  1.4906
   25MOL   H224 7472   0.301   4.523   5.224  0.2049 -2.1958 -3.2099
   25MOL   H225 7473   0.546   4.450   5.290  0.4201 -0.5267  0.7958
   25MOL   H226 7474   0.569   4.254   5.435  0.5389  1.9582  1.0205
   25MOL   C227 7475   0.132   4.021   5.422 -1.2536  1.1078 -0.1557
   25MOL   C228 7476   0.028   3.926   5.478 -0.0342 -0.1423 -0.1347
   25MOL   C229 7477   8.043   3.952   5.426 -0.4366 -1.4425 -0.1436
   25MOL   C230 7478   7.929   3.933   5.510 -0.5947 -0.3936 -0.6350
   25MOL   C231 7479   7.799   3.961   5.464  0.5184  0.1449 -0.4367
   25MOL   C232 7480   7.792   4.018   5.335  0.4839 -0.6182 -0.8573
   25MOL   C233 7481   7.907   4.052   5.265  0.0170 -0.2282  0.6763
   25MOL   N234 7482   8.032   4.009   5.301  0.6318  0.0378 -0.4604
   25MOL   H235 7483   0.226   3.996   5.470 -0.1834  1.5583 -1.9755
   25MOL   H236 7484   0.151   4.013   5.315  1.1026 -1.3752  0.3941
   25MOL   H237 7485   0.023   3.928   5.587  1.4930  1.4933 -0.0753
   25MOL   H238 7486   7.934   3.889   5.609 -0.6415 -3.8577 -2.0844
   25MOL   H239 7487   7.712   3.950   5.526  1.1239 -1.2230  0.1892
   25MOL   H240 7488   7.694   4.047   5.299  0.5229  0.6023 -0.0184
   25MOL   H241 7489   7.913   4.106   5.172 -0.4657 -0.8260  0.2986
   25MOL   C242 7490   0.061   3.782   5.438  0.4939  0.4165 -1.0794
   25MOL   C243 7491   0.100   3.697   5.555  0.5452  0.1282 -0.0666
   25MOL   C244 7492   8.123   3.669   5.639  0.2556  1.2058  0.1377
   25MOL   C245 7493   8.118   3.708   5.775 -0.1303  0.5046 -0.4614
   25MOL   C246 7494   8.005   3.677   5.857  0.3443  0.0683 -0.0826
   25MOL   C247 7495   7.890   3.620   5.794 -0.0040 -0.5354  0.3689
   25MOL   C248 7496   7.901   3.590   5.655 -0.5458 -0.4873 -0.2924
   25MOL   N249 7497   8.016   3.607   5.586  0.4682  0.6237 -0.3396
   25MOL   H250 7498   0.146   3.789   5.370  1.7348  1.8746  0.5718
   25MOL   H251 7499   8.133   3.739   5.376 -1.8225  1.4157  1.1237
   25MOL   H252 7500   0.161   3.750   5.627 -0.3129 -0.1602  0.8946
   25MOL   H253 7501   0.051   3.756   5.820 -0.8695  1.0606  0.3550
   25MOL   H254 7502   8.009   3.696   5.964  0.3060  0.0293 -0.0738
   25MOL   H255 7503   7.802   3.600   5.853 -1.4939  0.7629 -1.3531
   25MOL   H256 7504   7.828   3.531   5.601 -0.0654 -1.1535 -0.2288
   25MOL   C257 7505   0.178   3.572   5.528  0.0334 -0.0896  0.0334
   25MOL   C258 7506   0.320   3.597   5.461 -0.5623 -0.3553 -0.4754
   25MOL   C259 7507   0.410   3.702   5.541  0.1358 -0.5540  0.3408
   25MOL   C260 7508   0.417   3.832   5.496  0.4532  0.4847 -0.4840
   25MOL   C261 7509   0.475   3.933   5.574  0.3242 -0.5182 -0.0286
   25MOL   C262 7510   0.504   3.898   5.706  0.0854  0.3018  0.0346
   25MOL   C263 7511   0.477   3.763   5.755 -0.2250  0.3703  0.8952
   25MOL   N264 7512   0.442   3.667   5.666  0.1991 -0.5618 -0.0706
   25MOL   H265 7513   0.110   3.514   5.466 -0.0851 -0.4709  0.5248
   25MOL   H266 7514   0.189   3.517   5.621 -3.1496 -1.3382 -0.2799
   25MOL   H267 7515   0.294   3.627   5.359 -0.6628  1.3289  0.0400
   25MOL   H268 7516   0.388   3.854   5.394  0.8253 -1.2050 -0.9640
   25MOL   H269 7517   0.489   4.032   5.535 -1.0692 -0.5504 -0.6415
   25MOL   H270 7518   0.535   3.975   5.775  1.1851 -0.4154  0.3528
   25MOL   H271 7519   0.510   3.725   5.850  0.9411  0.6502  0.6153
   25MOL   C272 7520   0.403   3.465   5.460 -0.0102  0.2665 -0.3314
   25MOL   C273 7521   0.347   3.348   5.367 -0.3494 -0.6822 -0.4070
   25MOL   C274 7522   0.326   3.398   5.224  0.0325  0.8020 -0.7704
   25MOL   C275 7523   0.198   3.400   5.168  0.4128  0.0378 -0.0155
   25MOL   C276 7524   0.182   3.443   5.033 -0.0165 -0.0203  0.6953
   25MOL   C277 7525   0.300   3.496   4.968  0.0055  0.4548  0.1167
   25MOL   C278 7526   0.422   3.478   5.033  0.2040 -0.0248  0.8483
   25MOL   N279 7527   0.439   3.430   5.155 -0.0130  0.2567  0.1710
   25MOL   H280 7528   0.415   3.429   5.562 -0.7255 -0.2547 -0.4300
   25MOL   H281 7529   0.497   3.507   5.422 -0.2434  1.7953  0.7528
   25MOL   H282 7530   0.253   3.324   5.418 -0.7903  1.2180 -0.3011
   25MOL   H283 7531   0.113   3.377   5.231 -0.4798 -1.2744 -1.6519
   25MOL   H284 7532   0.086   3.453   4.985  1.1838  1.2976 -1.5796
   25MOL   H285 7533   0.297   3.523   4.863  0.2055  0.6184  0.1560
   25MOL   H286 7534   0.510   3.503   4.977  0.4158  0.5433  1.4231
   25MOL   C287 7535   0.440   3.222   5.383 -0.0221  0.0115 -0.2047
   25MOL   C288 7536   0.404   3.102   5.298  0.4384  0.0741  0.5423
   25MOL   C289 7537   0.516   3.000   5.310  0.4117 -0.8777 -0.0704
   25MOL   C290 7538   0.640   3.029   5.247  0.1138 -0.1940  0.5757
   25MOL   C291 7539   0.758   2.956   5.275 -0.0510  0.5936 -0.1814
   25MOL   C292 7540   0.742   2.845   5.365 -0.1189 -0.8090 -0.6754
   25MOL   C293 7541   0.619   2.819   5.420  0.5157 -0.1949 -0.4460
   25MOL   N294 7542   0.512   2.904   5.406  0.2437 -0.0136 -0.2444
   25MOL   H295 7543   0.448   3.184   5.485  2.2770  1.3236  0.1362
   25MOL   H296 7544   0.538   3.256   5.350  0.2207 -0.8585 -0.3793
   25MOL   H297 7545   0.379   3.116   5.193 -0.2417  0.6197  0.7674
   25MOL   H298 7546   0.643   3.118   5.185  1.9639  1.2079  2.6077
   25MOL   H299 7547   0.856   2.976   5.234  0.6244  1.5039  1.8207
   25MOL   H300 7548   0.825   2.778   5.381 -0.6738 -1.4018 -0.2015
   25MOL   H301 7549   0.600   2.737   5.487  0.8176 -0.0345 -0.1620
   25MOL   H302 7550   0.312   3.058   5.336  1.0082 -0.6921  1.0405
   26MOL     C1 7551   7.462   6.874   2.447 -1.0804  0.0525 -0.3635
   26MOL     C2 7552   7.449   6.909   2.301  0.6682 -0.5806  0.9071
   26MOL     C3 7553   7.452   6.776   2.225 -0.0415 -0.1126 -0.4992
   26MOL     C4 7554   7.556   6.742   2.139 -0.2878 -0.7954  0.4905
   26MOL     C5 7555   7.539   6.628   2.056 -0.1267  0.3466 -1.0654
   26MOL     C6 7556   7.424   6.547   2.065  0.4404 -0.2768  0.4337
   26MOL     C7 7557   7.322   6.593   2.154  0.3044 -0.0732  0.0301
   26MOL     N8 7558   7.341   6.698   2.238  0.2193 -0.6679  0.1741
   26MOL     H9 7559   7.369   6.836   2.491 -0.2135 -1.6511  0.0208
   26MOL    H10 7560   7.540   6.800   2.465 -0.7422  0.4995  0.0232
   26MOL    H11 7561   7.537   6.969   2.279  1.7875 -1.5883  2.5582
   26MOL    H12 7562   7.634   6.813   2.112  0.3294 -0.2868  3.4811
   26MOL    H13 7563   7.611   6.608   1.979  1.2087  1.0060 -0.0109
   26MOL    H14 7564   7.399   6.464   2.000  1.3074 -0.0358 -0.2131
   26MOL    H15 7565   7.229   6.540   2.164  0.8086 -1.0913 -0.5081
   26MOL    H16 7566   7.498   6.962   2.501 -2.5150 -0.1354  0.9483
   26MOL    C17 7567   7.325   7.002   2.270 -0.1261 -0.0454 -0.4521
   26MOL    C18 7568   7.360   7.105   2.160  0.1446 -0.2452  0.5396
   26MOL    C19 7569   7.380   7.047   2.022  0.1360  0.2217 -0.3491
   26MOL    C20 7570   7.291   6.965   1.963  0.0797  0.3419  0.2497
   26MOL    C21 7571   7.321   6.900   1.840  0.3697  0.8799  0.4259
   26MOL    C22 7572   7.437   6.938   1.774 -0.0512  0.3307 -0.5856
   26MOL    C23 7573   7.515   7.033   1.841 -0.4537  0.4844  0.3542
   26MOL    N24 7574   7.491   7.084   1.957 -0.4931 -0.3586 -0.4767
   26MOL    H25 7575   7.286   7.046   2.362 -2.5500  1.1525 -1.9835
   26MOL    H26 7576   7.240   6.942   2.237  0.7731 -2.2329  1.0977
   26MOL    H27 7577   7.456   7.153   2.175  0.0031 -0.0452  0.8304
   26MOL    H28 7578   7.191   6.953   2.002 -0.3261  0.8255 -0.6248
   26MOL    H29 7579   7.241   6.846   1.791  1.0927  2.0100 -2.0858
   26MOL    H30 7580   7.454   6.894   1.677 -1.2342 -0.9068 -0.2405
   26MOL    H31 7581   7.604   7.067   1.789  1.5304 -3.7854  0.6844
   26MOL    C32 7582   7.256   7.218   2.157  0.2791  0.2371  0.5935
   26MOL    C33 7583   7.245   7.303   2.292  0.0529 -0.3152 -0.4941
   26MOL    C34 7584   7.390   7.335   2.334 -0.3304 -0.4943 -0.2453
   26MOL    C35 7585   7.446   7.281   2.449  0.0337  0.4305  0.2645
   26MOL    C36 7586   7.576   7.327   2.487 -0.3085  0.4840  0.0338
   26MOL    C37 7587   7.651   7.410   2.400 -0.2682 -0.1019  0.3834
   26MOL    C38 7588   7.589   7.452   2.285  0.3813 -0.6837 -0.1739
   26MOL    N39 7589   7.459   7.423   2.254 -0.4301 -0.7688 -0.3015
   26MOL    H40 7590   7.153   7.183   2.142  0.1021 -0.2786  2.7867
   26MOL    H41 7591   7.278   7.286   2.075 -2.1238  1.3372  0.8035
   26MOL    H42 7592   7.214   7.241   2.375 -1.9561 -1.5838 -2.1478
   26MOL    H43 7593   7.391   7.210   2.509  0.3252  0.9770  1.1838
   26MOL    H44 7594   7.629   7.281   2.570 -0.0493 -0.2457 -0.5245
   26MOL    H45 7595   7.751   7.440   2.428  0.8441 -1.4319 -2.0252
   26MOL    H46 7596   7.638   7.520   2.216 -0.2337  1.5439  1.5307
   26MOL    C47 7597   7.157   7.432   2.266  0.4504  0.1462  0.3356
   26MOL    C48 7598   7.153   7.531   2.384 -0.0773 -0.2822  0.0383
   26MOL    C49 7599   7.100   7.669   2.352 -0.6080 -0.1572  0.0802
   26MOL    C50 7600   7.181   7.781   2.355 -0.5324  0.2851  0.1133
   26MOL    C51 7601   7.129   7.903   2.317 -0.1100  0.8986 -0.0444
   26MOL    C52 7602   6.991   7.918   2.294  0.0425 -0.2506 -0.1835
   26MOL    C53 7603   6.913   7.804   2.298 -0.0858  0.4118  0.1368
   26MOL    N54 7604   6.969   7.680   2.322  0.3021  0.2342 -0.5071
   26MOL    H55 7605   7.056   7.404   2.237  0.0722  0.7285  1.0862
   26MOL    H56 7606   7.198   7.481   2.178  1.9221 -2.9802 -0.8081
   26MOL    H57 7607   7.259   7.543   2.410 -0.6538  0.0498  2.3863
   26MOL    H58 7608   7.287   7.771   2.374 -0.7759  2.5640  2.9997
   26MOL    H59 7609   7.191   7.990   2.303 -2.0355  2.1012 -1.4824
   26MOL    H60 7610   6.947   8.014   2.271 -0.0788 -0.2876 -0.0990
   26MOL    H61 7611   6.815   7.807   2.252  1.5732 -0.3311 -3.6990
   26MOL    C62 7612   7.097   7.475   2.513  0.3534 -0.5084 -0.3655
   26MOL    C63 7613   6.952   7.424   2.516  1.0221 -0.6662  0.2597
   26MOL    C64 7614   6.932   7.285   2.454  0.1013 -0.2976 -0.2030
   26MOL    C65 7615   6.862   7.269   2.337  0.0790 -0.5747 -0.6523
   26MOL    C66 7616   6.855   7.138   2.277  0.4358  0.2824 -0.7015
   26MOL    C67 7617   6.922   7.036   2.333  0.5120  0.1268 -0.1158
   26MOL    C68 7618   6.989   7.064   2.455  0.2214  0.7694  0.0183
   26MOL    N69 7619   7.001   7.182   2.516 -0.7625  0.2221  0.1665
   26MOL    H70 7620   7.106   7.554   2.587 -0.8576 -0.8777  0.1847
   26MOL    H71 7621   7.170   7.402   2.548  2.1682  0.0453 -2.8471
   26MOL    H72 7622   6.882   7.490   2.466 -1.5310 -1.9753  2.0244
   26MOL    H73 7623   6.805   7.351   2.295 -0.7525  0.0671  1.6429
   26MOL    H74 7624   6.795   7.120   2.190 -1.1066  1.8196  0.0005
   26MOL    H75 7625   6.915   6.935   2.295 -1.3898 -0.0148  0.5505
   26MOL    H76 7626   7.052   6.986   2.495  0.5657  1.1842  0.2863
   26MOL    C77 7627   6.890   7.417   2.655 -0.8351 -0.2585  0.2096
   26MOL    C78 7628   6.734   7.382   2.679  0.4690 -0.3302 -0.5059
   26MOL    C79 7629   6.713   7.252   2.765  0.1890 -0.0194  0.2813
   26MOL    C80 7630   6.631   7.154   2.710  0.9146  0.4231  0.3640
   26MOL    C81 7631   6.613   7.035   2.787 -0.0353  0.2222  0.0160
   26MOL    C82 7632   6.672   7.031   2.923  0.7368 -0.2207  0.3192
   26MOL    C83 7633   6.750   7.136   2.962  0.0250 -0.7984 -0.5790
   26MOL    N84 7634   6.773   7.246   2.884 -0.3636 -1.1452  0.1215
   26MOL    H85 7635   6.918   7.501   2.718  0.3942 -0.2413 -0.3417
   26MOL    H86 7636   6.950   7.338   2.700  0.5303  1.7182  1.9518
   26MOL    H87 7637   6.695   7.358   2.580  0.2480 -1.2862 -0.1896
   26MOL    H88 7638   6.602   7.165   2.606 -2.1777 -1.3395  0.9702
   26MOL    H89 7639   6.565   6.944   2.752  1.8768 -1.5845  1.8935
   26MOL    H90 7640   6.670   6.945   2.989 -1.3860 -0.2309  0.2569
   26MOL    H91 7641   6.800   7.143   3.058 -0.4022  0.6754 -0.4473
   26MOL    C92 7642   6.643   7.492   2.735  0.3390  0.0364  0.0900
   26MOL    C93 7643   6.629   7.606   2.627 -0.1483  0.2032  0.0377
   26MOL    C94 7644   6.566   7.565   2.498  0.4483  0.1347  0.2097
   26MOL    C95 7645   6.617   7.598   2.374  0.2706 -0.2449  0.4434
   26MOL    C96 7646   6.543   7.563   2.259  0.0803  0.1995  0.3423
   26MOL    C97 7647   6.422   7.495   2.273 -0.3589  0.9527  0.3389
   26MOL    C98 7648   6.379   7.472   2.405  0.0461 -1.0251  0.8846
   26MOL    N99 7649   6.449   7.510   2.514  0.2432 -0.3645  0.7260
   26MOL   H100 7650   6.673   7.528   2.833 -0.3087 -0.7310  0.5729
   26MOL   H101 7651   6.540   7.463   2.755  0.7904 -1.2080  0.6275
   26MOL   H102 7652   6.724   7.637   2.582 -0.4854 -0.0221 -0.8334
   26MOL   H103 7653   6.710   7.652   2.359  0.2068 -1.1531 -3.9536
   26MOL   H104 7654   6.579   7.594   2.162 -0.5999  1.2175  0.4075
   26MOL   H105 7655   6.375   7.460   2.183 -3.3559  2.4814  1.2535
   26MOL   H106 7656   6.292   7.413   2.427 -0.9056 -0.4252 -1.1909
   26MOL   C107 7657   6.561   7.731   2.685 -0.4532 -0.2946 -0.5109
   26MOL   C108 7658   6.631   7.867   2.699  0.2272 -0.1541 -0.1113
   26MOL   C109 7659   6.755   7.876   2.792  0.5488  1.1053 -0.3921
   26MOL   C110 7660   6.749   7.937   2.916 -0.3735 -0.0799 -0.1821
   26MOL   C111 7661   6.863   7.946   3.004 -0.0715  0.5444  0.3088
   26MOL   C112 7662   6.980   7.872   2.963  0.2828 -0.1858  0.1599
   26MOL   C113 7663   6.972   7.812   2.836  0.0718 -0.0220 -0.0831
   26MOL   N114 7664   6.863   7.805   2.758 -0.1942 -1.0464  0.1836
   26MOL   H115 7665   6.524   7.694   2.780  1.1286  0.3882  0.3911
   26MOL   H116 7666   6.462   7.745   2.642 -1.2109  0.3499  1.3904
   26MOL   H117 7667   6.550   7.927   2.740 -0.3814 -1.2066  0.2442
   26MOL   H118 7668   6.665   8.001   2.939 -0.4945  0.4151 -1.9210
   26MOL   H119 7669   6.854   7.998   3.098  1.1858 -0.4891  1.0135
   26MOL   H120 7670   7.070   7.853   3.020  0.6549  1.8329  0.2766
   26MOL   H121 7671   7.050   7.745   2.806 -0.9464 -0.5154 -1.7035
   26MOL   C122 7672   6.665   7.950   2.569  0.5705 -0.0762  0.3711
   26MOL   C123 7673   6.559   7.943   2.459  0.5934 -0.4142  0.3264
   26MOL   C124 7674   6.419   7.998   2.503  0.4426  0.2237 -0.2248
   26MOL   C125 7675   6.304   7.920   2.485  0.5094  0.1612 -0.0961
   26MOL   C126 7676   6.184   7.972   2.537 -0.5457  0.7022  0.0690
   26MOL   C127 7677   6.181   8.100   2.597 -0.2737  0.4809  0.2830
   26MOL   C128 7678   6.296   0.019   2.609  0.3337 -0.2174 -0.4028
   26MOL   N129 7679   6.417   8.119   2.569 -0.6222 -0.4561  0.3807
   26MOL   H130 7680   6.767   7.922   2.545  1.3781  1.6726  1.6836
   26MOL   H131 7681   6.679   8.054   2.596  1.0415  0.1353 -0.6752
   26MOL   H132 7682   6.553   7.839   2.424  2.0644  0.8713 -4.0892
   26MOL   H133 7683   6.307   7.822   2.440  4.0753 -0.6456  1.7157
   26MOL   H134 7684   6.095   7.914   2.519  0.4967 -0.5380 -1.2010
   26MOL   H135 7685   6.091   8.135   2.644 -1.0110 -0.0651 -0.7182
   26MOL   H136 7686   6.295   0.117   2.656  0.4880 -0.9107  1.0841
   26MOL   C137 7687   6.612   8.023   2.341 -0.5767  0.6237 -0.1074
   26MOL   C138 7688   6.515   8.061   2.214  0.1655 -0.5809 -0.4405
   26MOL   C139 7689   6.588   0.006   2.120  0.5496 -0.1850  0.5754
   26MOL   C140 7690   6.540   0.135   2.088 -0.5082  0.3868 -0.7972
   26MOL   C141 7691   6.623   0.214   2.011 -0.4771 -0.2253  0.7942
   26MOL   C142 7692   6.749   0.160   1.966 -0.0769 -0.0033 -0.0595
   26MOL   C143 7693   6.788   0.031   2.001 -0.5108  0.3273 -0.9680
   26MOL   N144 7694   6.710   8.113   2.083  0.0506 -0.0998 -0.2414
   26MOL   H145 7695   6.706   7.986   2.299 -0.0613  0.2858  1.2891
   26MOL   H146 7696   6.640   8.114   2.394 -0.5737 -1.2993  3.3863
   26MOL   H147 7697   6.438   8.117   2.267  0.3526 -0.1636 -0.6060
   26MOL   H148 7698   6.448   0.171   2.131 -1.4418 -0.6099 -1.9103
   26MOL   H149 7699   6.603   0.318   1.990 -0.0757 -0.2506  0.2727
   26MOL   H150 7700   6.823   0.218   1.913 -0.0431  0.1602  0.1637
   26MOL   H151 7701   6.885   8.139   1.980 -0.7813 -0.0118 -1.5212
   26MOL   C152 7702   6.448   7.941   2.144 -0.1100 -0.4021  0.2690
   26MOL   C153 7703   6.341   7.979   2.038  0.0633  0.0747  0.2288
   26MOL   C154 7704   6.288   7.851   1.969  0.0406  0.1815  0.0344
   26MOL   C155 7705   6.250   7.739   2.045  0.6663 -0.2806  0.3701
   26MOL   C156 7706   6.213   7.619   1.975 -0.4167 -0.0306 -0.4674
   26MOL   C157 7707   6.220   7.621   1.835  0.0779  0.1543  0.1684
   26MOL   C158 7708   6.253   7.737   1.771  0.3606 -0.0340  0.0139
   26MOL   N159 7709   6.289   7.849   1.836 -0.3221  0.1823  0.2784
   26MOL   H160 7710   6.407   7.882   2.226  1.7559  0.9369  2.2153
   26MOL   H161 7711   6.526   7.884   2.092 -1.6699  0.5854 -3.3264
   26MOL   H162 7712   6.397   8.039   1.966  0.4651  1.7470  1.8899
   26MOL   H163 7713   6.251   7.733   2.153 -0.8484 -3.1852  0.2952
   26MOL   H164 7714   6.202   7.524   2.024 -2.9865  0.8935  0.7951
   26MOL   H165 7715   6.209   7.539   1.766  1.0180 -0.7802  1.1101
   26MOL   H166 7716   6.269   7.748   1.665 -1.6768 -0.4190 -0.3450
   26MOL   C167 7717   6.218   8.057   2.100  0.3404 -0.0146 -0.3960
   26MOL   C168 7718   6.128   8.124   2.004  0.0765 -0.1590 -0.3373
   26MOL   C169 7719   6.010   0.030   2.074 -0.2734 -0.0682  0.2506
   26MOL   C170 7720   5.897   0.045   1.993 -0.4991  0.2118  0.3836
   26MOL   C171 7721   5.784   0.115   2.043 -0.2770 -0.2801  0.2884
   26MOL   C172 7722   5.793   0.164   2.175 -0.3648 -0.0941  0.0119
   26MOL   C173 7723   5.915   0.144   2.249 -0.5127  0.5314  0.2286
   26MOL   N174 7724   6.024   0.085   2.195  0.6851  0.8387  0.7856
   26MOL   H175 7725   6.257   8.139   2.160  0.0115 -1.0835  1.3181
   26MOL   H176 7726   6.161   7.994   2.169  1.8834 -0.5407  0.4334
   26MOL   H177 7727   6.085   8.051   1.936  0.1291  0.4946 -1.0796
   26MOL   H178 7728   5.889   8.150   1.896 -1.9854 -0.2303  0.7026
   26MOL   H179 7729   5.690   0.114   1.991 -2.0007 -2.0316  3.3387
   26MOL   H180 7730   5.707   0.217   2.212  0.2968  0.9847  0.0586
   26MOL   H181 7731   5.919   0.155   2.357  0.2265  2.5535  0.0068
   26MOL   C182 7732   6.183   0.089   1.917  0.1533 -0.1240 -0.5207
   26MOL   C183 7733   6.195   0.045   1.772 -0.5860  0.0237 -0.9496
   26MOL   C184 7734   6.067   0.035   1.693  0.0078 -1.1222 -0.4496
   26MOL   C185 7735   6.021   8.061   1.649  0.1395 -0.3483  0.4317
   26MOL   C186 7736   5.895   8.043   1.585  0.0120 -0.8083  0.4173
   26MOL   C187 7737   5.824   0.009   1.555 -0.5280  0.5508  0.0893
   26MOL   C188 7738   5.875   0.128   1.603 -0.5856 -0.3611  0.0250
   26MOL   N189 7739   5.990   0.145   1.673  0.5094  0.4870  0.1388
   26MOL   H190 7740   6.271   0.124   1.971  0.1867 -1.0126  0.0197
   26MOL   H191 7741   6.108   0.167   1.913 -1.1325 -1.3272 -0.4189
   26MOL   H192 7742   6.235   8.095   1.770 -1.0212 -0.1428 -1.2314
   26MOL   H193 7743   6.060   7.963   1.672 -0.9707 -1.5541 -2.5687
   26MOL   H194 7744   5.857   7.946   1.556 -1.4998  0.2716 -1.3321
   26MOL   H195 7745   5.726   0.008   1.509 -0.1906 -0.0826 -0.6218
   26MOL   H196 7746   5.820   0.222   1.600 -1.0841 -0.6243  0.9431
   26MOL   C197 7747   6.298   0.132   1.706 -0.4756  0.1675  0.3435
   26MOL   C198 7748   6.328   0.079   1.562  1.1225 -0.3364  0.9433
   26MOL   C199 7749   6.346   0.199   1.473 -0.2807  0.1325  0.2347
   26MOL   C200 7750   6.257   0.220   1.364 -0.3402 -0.0779  0.8271
   26MOL   C201 7751   6.286   0.331   1.277  0.6339 -0.0255 -0.0194
   26MOL   C202 7752   6.387   0.415   1.312  0.7176 -0.0459 -0.1747
   26MOL   C203 7753   6.468   0.385   1.420  0.0340 -0.3470  0.2975
   26MOL   N204 7754   6.440   0.290   1.509 -0.4738  0.3347 -0.0764
   26MOL   H205 7755   6.391   0.136   1.763  0.0323  1.6809 -0.5556
   26MOL   H206 7756   6.248   0.228   1.695 -0.5911 -0.1572 -2.2427
   26MOL   H207 7757   6.233   0.038   1.526  1.7849 -0.4845 -0.6585
   26MOL   H208 7758   6.183   0.149   1.330  1.7464 -1.1525 -1.6386
   26MOL   H209 7759   6.218   0.351   1.196  1.3072 -0.5824 -0.7293
   26MOL   H210 7760   6.400   0.507   1.256 -0.5132  0.5286  0.4608
   26MOL   H211 7761   6.546   0.449   1.457 -1.1664 -0.3649  3.0159
   26MOL   C212 7762   6.443   8.132   1.565 -0.4587  0.6082  0.7669
   26MOL   C213 7763   6.464   8.059   1.438 -0.0610  0.1838  0.6899
   26MOL   C214 7764   6.571   7.946   1.456  0.0738  0.3962  0.6134
   26MOL   C215 7765   6.682   7.941   1.374 -0.4354  0.6676 -0.2570
   26MOL   C216 7766   6.774   7.835   1.380 -0.1279 -0.1304 -0.0617
   26MOL   C217 7767   6.742   7.732   1.480  0.1665  0.2111  1.3546
   26MOL   C218 7768   6.630   7.743   1.560  0.2469 -0.2322 -0.4222
   26MOL   N219 7769   6.548   7.850   1.545 -0.0074  0.5012 -0.6859
   26MOL   H220 7770   6.426   8.066   1.651 -1.9635  0.6014  0.4766
   26MOL   H221 7771   6.531   0.038   1.590  0.5711 -0.5866 -0.0019
   26MOL   H222 7772   6.504   8.125   1.362 -1.9996  1.6832  0.9491
   26MOL   H223 7773   6.700   8.015   1.297 -0.7445  0.5440 -0.4462
   26MOL   H224 7774   6.866   7.838   1.324 -1.8127  2.2899 -2.8162
   26MOL   H225 7775   6.799   7.640   1.477  1.0381  0.7333  1.8747
   26MOL   H226 7776   6.592   7.664   1.624  3.0063 -1.2443  0.0606
   26MOL   C227 7777   6.335   7.996   1.375 -0.1348  0.0683 -0.3039
   26MOL   C228 7778   6.344   7.903   1.257 -0.0252 -0.1411  0.2890
   26MOL   C229 7779   6.356   7.760   1.290 -0.2913 -0.2232 -0.2687
   26MOL   C230 7780   6.454   7.675   1.235 -0.1824  0.5202  0.3815
   26MOL   C231 7781   6.460   7.543   1.276 -0.4788  0.3194  0.3993
   26MOL   C232 7782   6.365   7.498   1.364 -0.3878  0.1978  0.4329
   26MOL   C233 7783   6.257   7.581   1.404 -0.1639  0.9889 -0.2086
   26MOL   N234 7784   6.257   7.716   1.372  0.1812  0.1384  0.2286
   26MOL   H235 7785   6.278   8.079   1.334  0.8766  0.8441 -0.1596
   26MOL   H236 7786   6.282   7.959   1.463  1.6977 -0.2815  0.6916
   26MOL   H237 7787   6.437   7.922   1.203 -0.7136  2.0276 -0.1999
   26MOL   H238 7788   6.520   7.719   1.161  0.5757 -0.2277  0.6142
   26MOL   H239 7789   6.529   7.475   1.229  0.0003 -0.4482  2.1604
   26MOL   H240 7790   6.361   7.393   1.389  0.7645  0.2064  0.6877
   26MOL   H241 7791   6.190   7.547   1.481  2.9754 -0.0061  2.1766
   26MOL   C242 7792   6.227   7.924   1.159  0.6565  0.4825 -0.1412
   26MOL   C243 7793   6.260   8.013   1.031  0.1043  0.3764  0.2546
   26MOL   C244 7794   6.136   8.024   0.947  0.5608 -0.6831 -0.6243
   26MOL   C245 7795   6.131   7.972   0.812 -0.4102 -0.4021 -0.4859
   26MOL   C246 7796   6.018   8.009   0.738 -0.1052 -0.4911 -0.6911
   26MOL   C247 7797   5.931   8.108   0.786 -0.6393 -0.3671  0.3834
   26MOL   C248 7798   5.951   0.004   0.921 -0.2324  0.0845  0.3149
   26MOL   N249 7799   6.040   8.103   1.002 -0.6050  0.6147 -0.5138
   26MOL   H250 7800   6.141   7.956   1.218 -0.5153 -2.5770 -0.1101
   26MOL   H251 7801   6.192   7.826   1.129  0.9060 -0.1231  1.4677
   26MOL   H252 7802   6.340   7.961   0.979  1.9251  3.1814  0.1542
   26MOL   H253 7803   6.209   7.908   0.776  0.4679  0.3555  0.0502
   26MOL   H254 7804   6.005   7.967   0.639 -0.6904 -0.6387 -0.5507
   26MOL   H255 7805   5.865   0.003   0.715 -0.3687 -0.5140  0.0300
   26MOL   H256 7806   5.888   0.074   0.974 -0.6392  0.9184 -1.2263
   26MOL   C257 7807   6.332   8.148   1.044 -0.2698  0.5331 -0.6422
   26MOL   C258 7808   6.374   0.065   0.914  0.6048  0.0150  0.0352
   26MOL   C259 7809   6.419   0.211   0.945 -0.3530  0.1214  0.3133
   26MOL   C260 7810   6.350   0.322   0.890 -0.2563 -0.0427 -0.0975
   26MOL   C261 7811   6.394   0.456   0.915 -0.0321  0.3106 -0.2074
   26MOL   C262 7812   6.506   0.461   0.997  0.1123  1.0084 -0.6821
   26MOL   C263 7813   6.568   0.341   1.047  0.0139 -0.7843  0.0478
   26MOL   N264 7814   6.518   0.220   1.030 -0.0869 -0.4679 -0.4132
   26MOL   H265 7815   6.421   8.136   1.106 -1.5284 -3.9996  0.4882
   26MOL   H266 7816   6.252   0.054   1.090 -0.6587 -1.2288  0.9748
   26MOL   H267 7817   6.283   0.060   0.854 -1.1498  1.7928  2.4393
   26MOL   H268 7818   6.268   0.313   0.819  0.2030 -0.2782 -0.5978
   26MOL   H269 7819   6.348   0.537   0.861 -2.6890 -1.1175 -0.1760
   26MOL   H270 7820   6.562   0.553   1.005  1.4199 -0.0172  3.0444
   26MOL   H271 7821   6.659   0.342   1.105 -0.3013 -0.4816  0.5393
   26MOL   C272 7822   6.484   8.127   0.842  0.1910 -0.1685 -0.1569
   26MOL   C273 7823   6.527   0.032   0.707  0.1776  0.0104  0.7099
   26MOL   C274 7824   6.674   0.004   0.675 -0.1847  0.3201 -0.0006
   26MOL   C275 7825   6.715   8.038   0.607 -0.0733  0.1996 -0.1039
   26MOL   C276 7826   6.857   8.024   0.593  0.4143  0.2679 -0.3496
   26MOL   C277 7827   6.946   8.128   0.639 -0.2762 -0.0483  0.5741
   26MOL   C278 7828   6.888   0.084   0.704  0.3241  0.6541 -0.4297
   26MOL   N279 7829   6.755   0.108   0.712  0.1596  0.2509  0.0384
   26MOL   H280 7830   6.446   8.027   0.822  2.8885 -1.3738  0.5251
   26MOL   H281 7831   6.572   8.121   0.906  1.4187  0.6572 -1.7167
   26MOL   H282 7832   6.523   0.140   0.716 -0.1751  0.1854 -1.3163
   26MOL   H283 7833   6.653   7.952   0.585 -0.6053  0.3861  0.6332
   26MOL   H284 7834   6.905   7.943   0.539 -0.3260 -0.9085  0.7276
   26MOL   H285 7835   7.053   8.133   0.626 -0.4896 -0.3409 -1.5497
   26MOL   H286 7836   6.952   0.169   0.721  0.9329 -0.2339  1.8303
   26MOL   C287 7837   6.433   8.151   0.589 -0.1699 -0.4973  0.4846
   26MOL   C288 7838   6.433   0.094   0.469 -0.2551  1.1745  0.4597
   26MOL   C289 7839   6.395   0.239   0.498 -0.5359  0.1880 -0.3705
   26MOL   C290 7840   6.494   0.336   0.514 -0.2310 -0.4345  0.9116
   26MOL   C291 7841   6.457   0.462   0.564  0.3774  0.1869 -0.5413
   26MOL   C292 7842   6.320   0.493   0.578  0.3495 -0.1435 -0.0364
   26MOL   C293 7843   6.232   0.395   0.531  0.8356  0.1748  0.1198
   26MOL   N294 7844   6.266   0.270   0.503 -0.2620  0.0965  0.8651
   26MOL   H295 7845   6.328   8.149   0.617 -0.3078  0.3916  0.0235
   26MOL   H296 7846   6.450   8.048   0.555  0.2681 -0.5564  0.8759
   26MOL   H297 7847   6.364   0.057   0.394 -3.0078  1.5035  2.7294
   26MOL   H298 7848   6.596   0.308   0.491  0.0351  0.3369  1.1549
   26MOL   H299 7849   6.538   0.531   0.585  2.2816 -2.3319  0.6136
   26MOL   H300 7850   6.286   0.589   0.614 -0.3768  0.0025 -1.1054
   26MOL   H301 7851   6.128   0.423   0.528  0.2903 -1.5869  1.5279
   26MOL   H302 7852   6.533   0.083   0.427 -0.5284  3.1744 -0.8012
   27MOL     C1 7853   2.538   7.109   3.570  0.4093  0.0884 -0.0522
   27MOL     C2 7854   2.416   7.018   3.571  0.0158  0.3280 -0.7365
   27MOL     C3 7855   2.445   6.915   3.683  0.0603  0.1290 -0.6166
   27MOL     C4 7856   2.476   6.953   3.821  0.6247  0.0907  0.3772
   27MOL     C5 7857   2.507   6.856   3.921  0.3383  0.2490  0.0778
   27MOL     C6 7858   2.507   6.725   3.882 -0.8882  0.3882  0.1254
   27MOL     C7 7859   2.477   6.696   3.749 -0.1046 -0.7798  0.1256
   27MOL     N8 7860   2.436   6.782   3.654 -0.6045  0.1310 -0.2803
   27MOL     H9 7861   2.636   7.074   3.602  0.6905  0.5319 -0.4237
   27MOL    H10 7862   2.548   7.154   3.471 -1.1711  1.6342  0.4664
   27MOL    H11 7863   2.440   6.962   3.480 -1.2611  1.5992 -1.8891
   27MOL    H12 7864   2.479   7.058   3.847  0.3822  0.4601 -1.0118
   27MOL    H13 7865   2.545   6.883   4.018  2.7768 -1.0906 -0.4648
   27MOL    H14 7866   2.543   6.650   3.950 -0.2506 -0.8189 -1.5043
   27MOL    H15 7867   2.466   6.591   3.728  0.8351 -0.7453 -0.5523
   27MOL    H16 7868   2.522   7.193   3.638 -0.7398 -0.4756  0.3904
   27MOL    C17 7869   2.273   7.077   3.559 -0.1848  0.3769  0.2006
   27MOL    C18 7870   2.166   6.976   3.532 -0.8650 -0.2184 -0.4776
   27MOL    C19 7871   2.028   7.042   3.552  0.1157  0.1833  0.1987
   27MOL    C20 7872   1.976   7.145   3.469  0.0563  0.0429 -0.0827
   27MOL    C21 7873   1.853   7.201   3.497  0.5850  0.2743 -0.4377
   27MOL    C22 7874   1.772   7.141   3.597  0.5324  1.0671 -0.1077
   27MOL    C23 7875   1.823   7.034   3.668 -0.0564  0.5525 -0.6757
   27MOL    N24 7876   1.947   6.983   3.648  0.0272  0.1136  0.0269
   27MOL    H25 7877   2.272   7.146   3.475 -2.6208 -0.5794 -0.6068
   27MOL    H26 7878   2.244   7.139   3.644 -2.8894  0.9577 -1.0783
   27MOL    H27 7879   2.175   6.915   3.622 -2.3084  1.4373  0.8408
   27MOL    H28 7880   2.025   7.197   3.387  0.9203 -0.4449  0.1203
   27MOL    H29 7881   1.804   7.277   3.438 -1.5102  0.0390  0.9158
   27MOL    H30 7882   1.673   7.180   3.615 -0.9756 -2.6471  0.1911
   27MOL    H31 7883   1.771   6.991   3.753  1.2915 -2.7427 -1.4576
   27MOL    C32 7884   2.174   6.892   3.406  0.3186 -0.5685  0.4203
   27MOL    C33 7885   2.063   6.784   3.403 -0.2049  0.1226 -0.0250
   27MOL    C34 7886   1.957   6.806   3.288  0.4538  0.1710 -0.4313
   27MOL    C35 7887   1.823   6.815   3.324 -0.2011 -0.3035  0.5893
   27MOL    C36 7888   1.736   6.833   3.216 -0.6176  0.2703 -0.0433
   27MOL    C37 7889   1.780   6.824   3.086 -0.4040 -0.5692  0.0877
   27MOL    C38 7890   1.920   6.819   3.061 -0.4922 -0.4284 -0.4297
   27MOL    N39 7891   2.010   6.805   3.164  0.3987 -0.5174  0.3852
   27MOL    H40 7892   2.269   6.846   3.381  0.2852  0.2303 -1.2148
   27MOL    H41 7893   2.172   6.956   3.318 -1.7858 -2.4486 -0.9447
   27MOL    H42 7894   2.001   6.794   3.492  2.3534  0.5279  1.7639
   27MOL    H43 7895   1.784   6.804   3.424  4.0752 -0.5932  2.3124
   27MOL    H44 7896   1.632   6.844   3.243 -1.2521 -0.4878 -2.0603
   27MOL    H45 7897   1.718   6.838   2.998  1.9432 -1.2849 -1.7028
   27MOL    H46 7898   1.958   6.808   2.961  0.2607 -1.1577 -0.0701
   27MOL    C47 7899   2.113   6.642   3.379 -0.6963 -0.1035 -0.1294
   27MOL    C48 7900   2.170   6.581   3.505 -0.3456 -0.8223  0.4494
   27MOL    C49 7901   2.073   6.586   3.619  0.2297 -0.2264 -0.0860
   27MOL    C50 7902   2.109   6.637   3.747  0.8306 -0.6966  0.0469
   27MOL    C51 7903   2.007   6.642   3.847  0.0228  0.1606  0.8237
   27MOL    C52 7904   1.880   6.590   3.810 -0.8651  0.3253 -0.8540
   27MOL    C53 7905   1.867   6.515   3.689 -0.6085  0.8443  0.1446
   27MOL    N54 7906   1.956   6.525   3.591  0.0104  0.0576 -0.2631
   27MOL    H55 7907   2.185   6.647   3.297 -1.5530 -2.7130 -1.0925
   27MOL    H56 7908   2.032   6.577   3.345 -0.0270 -0.1951 -1.5725
   27MOL    H57 7909   2.258   6.636   3.538 -0.2433 -0.0033 -1.1227
   27MOL    H58 7910   2.209   6.676   3.760  0.4878  0.1830  0.1295
   27MOL    H59 7911   2.023   6.684   3.945  0.4048  1.0208  0.3995
   27MOL    H60 7912   1.800   6.587   3.883  0.6674  1.3113  0.8953
   27MOL    H61 7913   1.779   6.453   3.676  1.3857 -2.8463  3.1243
   27MOL    C62 7914   2.221   6.443   3.476 -0.3490  1.1495  0.5475
   27MOL    C63 7915   2.373   6.423   3.443  0.4313  0.0528  0.0171
   27MOL    C64 7916   2.405   6.266   3.440 -0.2832 -0.1459 -0.5231
   27MOL    C65 7917   2.520   6.213   3.501 -0.4408 -0.5271  0.3848
   27MOL    C66 7918   2.544   6.074   3.478 -0.5420 -0.8887  0.1961
   27MOL    C67 7919   2.453   5.997   3.409 -0.1081 -0.1611 -0.9025
   27MOL    C68 7920   2.344   6.059   3.350  0.2115 -0.5962 -0.2846
   27MOL    N69 7921   2.316   6.188   3.372 -0.7232 -0.2280 -0.5166
   27MOL    H70 7922   2.161   6.396   3.398  1.6953  0.0649 -0.4069
   27MOL    H71 7923   2.218   6.396   3.574 -1.8059  0.4385  0.1699
   27MOL    H72 7924   2.423   6.469   3.528 -0.2810 -0.0476  0.4916
   27MOL    H73 7925   2.599   6.271   3.546  0.0150 -0.7600 -0.0982
   27MOL    H74 7926   2.632   6.024   3.517  0.0218  0.9906  1.4238
   27MOL    H75 7927   2.476   5.892   3.396  0.5264 -0.2250  0.6136
   27MOL    H76 7928   2.268   6.000   3.299  0.2810 -1.2620  0.3658
   27MOL    C77 7929   2.423   6.490   3.305 -0.2020 -0.1471  0.2773
   27MOL    C78 7930   2.530   6.603   3.310  0.6598  0.6643 -0.4836
   27MOL    C79 7931   2.639   6.587   3.409  0.5624  0.4573  0.1212
   27MOL    C80 7932   2.681   6.685   3.496 -0.9158 -0.2072  0.1173
   27MOL    C81 7933   2.779   6.660   3.594  0.3310  0.7100  0.5589
   27MOL    C82 7934   2.834   6.530   3.600  0.3483  0.1688 -0.6353
   27MOL    C83 7935   2.802   6.444   3.495 -0.6281 -0.0745 -0.6482
   27MOL    N84 7936   2.705   6.468   3.402  0.0249 -0.4174 -0.1938
   27MOL    H85 7937   2.348   6.521   3.232  1.3251  1.0423 -0.8237
   27MOL    H86 7938   2.466   6.401   3.258 -1.0913 -0.5183  0.1517
   27MOL    H87 7939   2.482   6.700   3.323 -0.0490  0.2784 -0.1970
   27MOL    H88 7940   2.629   6.780   3.493 -1.1175 -0.3753 -3.2427
   27MOL    H89 7941   2.800   6.734   3.670 -2.7399  0.2229  1.9495
   27MOL    H90 7942   2.902   6.501   3.679  1.8409  0.6907 -1.7059
   27MOL    H91 7943   2.836   6.343   3.481 -1.7848 -0.4441 -0.8556
   27MOL    C92 7944   2.597   6.619   3.170  0.6623  0.3989  0.2543
   27MOL    C93 7945   2.517   6.708   3.067 -0.0264 -0.3663  0.6186
   27MOL    C94 7946   2.551   6.856   3.096  0.0778 -0.6096  0.3522
   27MOL    C95 7947   2.456   6.942   3.164 -0.1156 -0.2970 -0.0845
   27MOL    C96 7948   2.492   7.069   3.208 -0.2034  0.2652 -0.7207
   27MOL    C97 7949   2.632   7.097   3.217  0.6058  0.5800  0.2152
   27MOL    C98 7950   2.713   7.016   3.137 -0.5914 -0.6947 -0.1938
   27MOL    N99 7951   2.677   6.902   3.077  0.4130  0.0269 -0.0425
   27MOL   H100 7952   2.600   6.515   3.140  0.3172  0.5449 -0.2913
   27MOL   H101 7953   2.700   6.654   3.175  0.0934  2.4235 -1.1507
   27MOL   H102 7954   2.410   6.691   3.078  0.2992 -3.1523 -0.0832
   27MOL   H103 7955   2.353   6.909   3.174 -0.1031  0.2925  2.5339
   27MOL   H104 7956   2.427   7.136   3.263 -0.0465 -0.8819  0.9035
   27MOL   H105 7957   2.659   7.194   3.256 -0.9690  1.2325 -0.2777
   27MOL   H106 7958   2.813   7.046   3.111 -0.5937 -0.4880  0.0336
   27MOL   C107 7959   2.572   6.673   2.925 -0.3105  0.3443  0.7543
   27MOL   C108 7960   2.551   6.538   2.876  0.5859 -0.1537 -0.1510
   27MOL   C109 7961   2.402   6.489   2.895 -0.5665 -1.0271  0.6148
   27MOL   C110 7962   2.378   6.374   2.970 -0.2320 -0.1621  0.7914
   27MOL   C111 7963   2.245   6.343   3.007  0.0921 -0.0088 -0.2612
   27MOL   C112 7964   2.142   6.434   2.962 -0.0917  1.0367 -0.1627
   27MOL   C113 7965   2.177   6.549   2.890 -0.6518  0.2264  0.3010
   27MOL   N114 7966   2.304   6.572   2.852 -0.3302  0.1638  0.2409
   27MOL   H115 7967   2.676   6.698   2.907 -1.2832  3.0495 -1.4683
   27MOL   H116 7968   2.514   6.741   2.862  1.0962  1.3204  0.5093
   27MOL   H117 7969   2.611   6.471   2.938  2.1060  0.0193 -1.4030
   27MOL   H118 7970   2.461   6.313   3.003  1.1558  1.2637  0.0773
   27MOL   H119 7971   2.222   6.258   3.069  0.7619 -0.8296 -1.1224
   27MOL   H120 7972   2.038   6.417   2.986 -0.0503 -1.2313 -1.4312
   27MOL   H121 7973   2.104   6.620   2.852  0.5342  1.9310  1.1318
   27MOL   C122 7974   2.593   6.521   2.728 -0.1018  0.1594  0.2923
   27MOL   C123 7975   2.612   6.370   2.677  0.4444 -0.5147 -0.5620
   27MOL   C124 7976   2.547   6.342   2.538  0.2231 -1.0152  0.1797
   27MOL   C125 7977   2.440   6.249   2.523 -1.0129 -0.1849 -0.2675
   27MOL   C126 7978   2.372   6.248   2.404 -0.4675 -0.0181 -0.4185
   27MOL   C127 7979   2.423   6.319   2.298  0.0559  0.0916 -0.3257
   27MOL   C128 7980   2.538   6.402   2.324  1.0798  0.7315 -0.2285
   27MOL   N129 7981   2.592   6.419   2.443  0.2385 -0.6926  0.3189
   27MOL   H130 7982   2.674   6.582   2.689 -0.0730 -0.3382 -0.4318
   27MOL   H131 7983   2.507   6.558   2.671 -1.6635 -2.4097  0.8910
   27MOL   H132 7984   2.555   6.305   2.743 -0.6691  3.5772  2.8007
   27MOL   H133 7985   2.405   6.189   2.606  0.8261  0.8546  1.3003
   27MOL   H134 7986   2.278   6.196   2.391 -0.3869 -0.0479 -0.8867
   27MOL   H135 7987   2.379   6.315   2.199 -0.4139 -3.1123 -0.0443
   27MOL   H136 7988   2.585   6.458   2.245  1.9622  1.0177  0.4904
   27MOL   C137 7989   2.770   6.339   2.674  0.3171  0.0460 -0.0760
   27MOL   C138 7990   2.834   6.292   2.804 -0.7566  0.1619  0.5267
   27MOL   C139 7991   2.764   6.179   2.879 -0.7787 -0.0259  0.9155
   27MOL   C140 7992   2.717   6.196   3.011 -0.2371 -0.6313  0.0475
   27MOL   C141 7993   2.656   6.091   3.076 -0.0963  0.3944  0.0649
   27MOL   C142 7994   2.636   5.968   3.006 -0.6437 -0.7266  0.3874
   27MOL   C143 7995   2.696   5.955   2.879  0.7053 -0.7800  0.0161
   27MOL   N144 7996   2.750   6.059   2.809  0.1731 -0.1509  0.0283
   27MOL   H145 7997   2.821   6.419   2.621 -1.1365  0.7853 -0.3867
   27MOL   H146 7998   2.785   6.255   2.606 -0.3932 -0.6902  0.6673
   27MOL   H147 7999   2.829   6.367   2.883 -1.0234 -1.7491  2.3563
   27MOL   H148 8000   2.739   6.287   3.065  1.3235  0.0719 -1.7095
   27MOL   H149 8001   2.607   6.096   3.172  0.8805  0.8779  0.5376
   27MOL   H150 8002   2.588   5.882   3.049 -3.2416 -0.3370 -1.6288
   27MOL   H151 8003   2.685   5.862   2.826 -0.6281  1.1545 -3.3042
   27MOL   C152 8004   2.987   6.260   2.782 -0.0664 -0.1700 -0.5119
   27MOL   C153 8005   3.084   6.376   2.762 -0.3002 -0.7882 -0.6292
   27MOL   C154 8006   3.036   6.497   2.836  0.1221 -0.1376 -0.5872
   27MOL   C155 8007   2.986   6.604   2.761 -0.2136 -0.1916  0.1933
   27MOL   C156 8008   2.942   6.722   2.831 -0.2751 -0.2426  0.1113
   27MOL   C157 8009   2.939   6.722   2.967  0.2860 -0.1861 -0.8751
   27MOL   C158 8010   2.972   6.603   3.034 -0.3768  0.0483 -0.4587
   27MOL   N159 8011   3.034   6.498   2.970  0.1190 -0.1040  0.0862
   27MOL   H160 8012   3.003   6.193   2.698  1.7284 -1.2470  0.6438
   27MOL   H161 8013   3.015   6.191   2.862  1.0290  1.9105  0.9499
   27MOL   H162 8014   3.077   6.404   2.657 -2.8643  0.7205 -0.0963
   27MOL   H163 8015   2.987   6.609   2.653 -0.3156 -1.0517  0.1536
   27MOL   H164 8016   2.917   6.811   2.774  0.6145 -1.0732 -1.6230
   27MOL   H165 8017   2.896   6.792   3.038 -2.3943 -1.5454 -1.1086
   27MOL   H166 8018   2.975   6.588   3.142 -3.3247 -0.2571 -0.3795
   27MOL   C167 8019   3.231   6.348   2.801  0.2769 -0.1746 -0.1250
   27MOL   C168 8020   3.311   6.246   2.721  0.1631  0.4093 -0.0910
   27MOL   C169 8021   3.354   6.286   2.586  0.0751 -0.7278 -0.1636
   27MOL   C170 8022   3.293   6.219   2.476 -0.0130  0.0416 -0.0561
   27MOL   C171 8023   3.303   6.269   2.342  0.4279 -0.4009  0.2589
   27MOL   C172 8024   3.376   6.386   2.328  0.1733  0.9269 -0.3635
   27MOL   C173 8025   3.430   6.450   2.438  0.2126  0.4227 -0.4051
   27MOL   N174 8026   3.422   6.403   2.564 -0.1346  0.7665  0.0573
   27MOL   H175 8027   3.248   6.320   2.905 -1.0006  2.2763  0.7930
   27MOL   H176 8028   3.285   6.442   2.795 -0.8375  0.4247 -0.7780
   27MOL   H177 8029   3.241   6.167   2.695  0.5509  0.4838 -1.3661
   27MOL   H178 8030   3.228   6.135   2.492  1.1860 -1.0478 -0.8643
   27MOL   H179 8031   3.244   6.219   2.267 -0.5705  0.0663  0.7177
   27MOL   H180 8032   3.378   6.435   2.232  0.9060  0.1795 -0.7323
   27MOL   H181 8033   3.479   6.546   2.428  0.6162  0.2531 -0.0551
   27MOL   C182 8034   3.440   6.201   2.803 -0.8039  0.4227 -0.2961
   27MOL   C183 8035   3.409   6.095   2.906 -1.1218 -0.2614 -0.2266
   27MOL   C184 8036   3.323   5.984   2.850 -0.2343  0.4104 -0.3700
   27MOL   C185 8037   3.192   5.973   2.897  0.7611  0.1070  0.2602
   27MOL   C186 8038   3.111   5.873   2.840 -0.2561 -0.0395 -0.6413
   27MOL   C187 8039   3.165   5.792   2.744  0.5434  0.6687  0.0894
   27MOL   C188 8040   3.296   5.807   2.706  0.5013  1.2780  0.1581
   27MOL   N189 8041   3.376   5.898   2.767  0.2830 -0.2484 -0.3451
   27MOL   H190 8042   3.496   6.284   2.846  0.4079 -0.9552  0.8464
   27MOL   H191 8043   3.507   6.141   2.741 -2.5979 -0.6579 -1.2085
   27MOL   H192 8044   3.342   6.139   2.979 -0.3073 -0.9267  0.9519
   27MOL   H193 8045   3.144   6.045   2.962 -0.1728  0.3774 -0.7015
   27MOL   H194 8046   3.006   5.866   2.865  0.1922  0.2461  1.3524
   27MOL   H195 8047   3.107   5.721   2.686  1.9878 -1.3871  1.1132
   27MOL   H196 8048   3.342   5.735   2.640  0.1112 -0.0176  1.2742
   27MOL   C197 8049   3.530   6.046   2.998  0.5093 -0.3645 -0.1304
   27MOL   C198 8050   3.596   6.160   3.074 -0.5037 -0.0471 -0.4164
   27MOL   C199 8051   3.505   6.262   3.142 -0.0916  0.4293  0.4751
   27MOL   C200 8052   3.443   6.234   3.272  0.0135 -0.8274 -0.4372
   27MOL   C201 8053   3.344   6.321   3.322 -0.0857 -0.5471 -0.2299
   27MOL   C202 8054   3.314   6.433   3.239 -0.5817  0.5248  0.2388
   27MOL   C203 8055   3.383   6.464   3.126 -1.0963 -0.2379 -0.8409
   27MOL   N204 8056   3.483   6.383   3.081  0.6555 -0.3688  0.2021
   27MOL   H205 8057   3.602   5.999   2.931  0.8522 -1.4120  0.9544
   27MOL   H206 8058   3.492   5.971   3.066 -0.3773 -1.7961 -2.1550
   27MOL   H207 8059   3.644   6.209   2.990 -1.1077 -0.0944 -0.7854
   27MOL   H208 8060   3.454   6.143   3.328 -1.1293  0.2313  1.5505
   27MOL   H209 8061   3.295   6.308   3.417  2.0332 -0.1070  0.9460
   27MOL   H210 8062   3.239   6.501   3.275 -0.3790  0.8421  0.0716
   27MOL   H211 8063   3.363   6.552   3.066  0.1431  0.5549 -0.1253
   27MOL   C212 8064   3.707   6.097   3.173 -0.4541 -1.1018 -0.1704
   27MOL   C213 8065   3.816   6.201   3.225  0.1390 -0.7972  0.0268
   27MOL   C214 8066   3.765   6.281   3.344 -0.3595  0.5461 -0.2196
   27MOL   C215 8067   3.721   6.416   3.342 -0.0882 -0.1186  0.0472
   27MOL   C216 8068   3.653   6.469   3.449  0.0286  0.1559 -0.5057
   27MOL   C217 8069   3.660   6.392   3.573  0.7326  0.7805 -0.0410
   27MOL   C218 8070   3.715   6.265   3.570 -0.0888  0.7194 -0.5888
   27MOL   N219 8071   3.755   6.205   3.458  0.1849 -0.5352  0.0653
   27MOL   H220 8072   3.761   6.023   3.114  0.0481 -0.8636 -0.0038
   27MOL   H221 8073   3.649   6.044   3.249 -0.8701 -0.3185  0.0606
   27MOL   H222 8074   3.818   6.278   3.148  1.5042 -1.1457 -0.3033
   27MOL   H223 8075   3.738   6.477   3.254  0.0314 -0.9466 -0.5067
   27MOL   H224 8076   3.598   6.562   3.442  0.5952  0.3861 -2.1898
   27MOL   H225 8077   3.615   6.438   3.659 -0.1721  0.7442 -0.4892
   27MOL   H226 8078   3.726   6.223   3.669 -1.7525 -2.5248 -1.7167
   27MOL   C227 8079   3.962   6.153   3.245  0.5341  0.1319 -0.1787
   27MOL   C228 8080   4.048   6.107   3.121 -0.2062 -0.1576  0.5270
   27MOL   C229 8081   4.096   6.225   3.033 -0.0341  0.0793  0.1755
   27MOL   C230 8082   4.046   6.232   2.909 -0.2355 -0.0721 -0.7365
   27MOL   C231 8083   4.073   6.351   2.832 -0.2947  0.2415  0.2093
   27MOL   C232 8084   4.171   6.444   2.878  0.1969  0.4104  0.2728
   27MOL   C233 8085   4.215   6.430   3.011 -0.5158 -0.5011 -0.5186
   27MOL   N234 8086   4.175   6.322   3.085 -0.1546  0.0457 -0.5276
   27MOL   H235 8087   3.948   6.074   3.318  2.1787  0.1214  0.1284
   27MOL   H236 8088   4.015   6.234   3.295  1.4515  1.3631 -3.0171
   27MOL   H237 8089   3.976   6.061   3.053 -0.3532  0.9788 -0.1066
   27MOL   H238 8090   3.987   6.155   2.861 -1.4341  0.5330 -0.2716
   27MOL   H239 8091   4.032   6.363   2.733 -0.0035  0.7923  0.1501
   27MOL   H240 8092   4.192   6.524   2.808  0.0587  1.0511  0.9623
   27MOL   H241 8093   4.294   6.489   3.057 -0.6580 -1.5671  1.1366
   27MOL   C242 8094   4.158   6.007   3.161 -0.1405 -0.3448 -0.3123
   27MOL   C243 8095   4.111   5.865   3.181 -0.7141  0.8539 -0.2751
   27MOL   C244 8096   4.070   5.798   3.050  1.0067  0.4127 -0.5971
   27MOL   C245 8097   3.934   5.783   3.009 -0.4902  1.1466 -0.0525
   27MOL   C246 8098   3.907   5.737   2.882 -0.3264  0.1363  0.0827
   27MOL   C247 8099   4.011   5.719   2.794  0.5959 -0.5373  0.3945
   27MOL   C248 8100   4.138   5.730   2.836 -0.5771 -0.0999 -0.1250
   27MOL   N249 8101   4.168   5.772   2.961 -0.1514  0.0772 -0.1534
   27MOL   H250 8102   4.212   6.043   3.248 -1.4902 -1.9239  1.2012
   27MOL   H251 8103   4.231   6.013   3.080  1.2338  0.4896  0.9580
   27MOL   H252 8104   4.015   5.869   3.231  0.7613  0.9722  2.6911
   27MOL   H253 8105   3.854   5.802   3.078 -1.7642 -1.3799 -0.7733
   27MOL   H254 8106   3.806   5.710   2.854 -0.7763  0.0919  1.7084
   27MOL   H255 8107   4.003   5.679   2.694  0.8345  2.0488 -0.6940
   27MOL   H256 8108   4.215   5.724   2.760 -0.5456  0.4494 -0.1382
   27MOL   C257 8109   4.205   5.783   3.270 -0.1651  0.3305  0.1185
   27MOL   C258 8110   4.189   5.802   3.430 -0.5506  0.3959 -0.0426
   27MOL   C259 8111   4.049   5.787   3.487 -0.2173 -0.0207 -0.3318
   27MOL   C260 8112   3.978   5.887   3.555 -0.8707  0.4782 -0.2096
   27MOL   C261 8113   3.842   5.870   3.586  0.4353 -0.0019  0.1455
   27MOL   C262 8114   3.795   5.738   3.563 -0.4533  0.7014 -0.1415
   27MOL   C263 8115   3.873   5.637   3.509  1.1397 -0.3467  0.2984
   27MOL   N264 8116   3.996   5.664   3.467  0.4579  0.1663  0.6095
   27MOL   H265 8117   4.305   5.793   3.230  0.7345 -2.0101  1.6854
   27MOL   H266 8118   4.169   5.682   3.254  2.5852 -0.9406  1.6639
   27MOL   H267 8119   4.216   5.907   3.441  0.4034  0.1690 -0.2035
   27MOL   H268 8120   4.021   5.985   3.569  0.6330  0.0288 -1.4548
   27MOL   H269 8121   3.784   5.952   3.625 -0.5939 -2.0274  3.0337
   27MOL   H270 8122   3.694   5.723   3.597 -0.2314 -0.5838 -0.0381
   27MOL   H271 8123   3.838   5.535   3.518  0.2651 -0.0720 -0.0169
   27MOL   C272 8124   4.293   5.720   3.509  0.0180 -0.1460 -0.2203
   27MOL   C273 8125   4.323   5.786   3.652 -0.2396 -0.0715 -0.1142
   27MOL   C274 8126   4.412   5.696   3.739  0.3599 -0.9102  0.0499
   27MOL   C275 8127   4.530   5.638   3.685  0.7188  0.3303  0.3393
   27MOL   C276 8128   4.604   5.549   3.767  0.1052 -0.0276 -0.3377
   27MOL   C277 8129   4.569   5.532   3.900  0.3678  0.6124  0.2850
   27MOL   C278 8130   4.452   5.597   3.948 -0.3293  0.7294  0.1646
   27MOL   N279 8131   4.373   5.675   3.867  0.1138 -0.8102  0.1516
   27MOL   H280 8132   4.383   5.710   3.449 -0.0151  4.0340 -1.1528
   27MOL   H281 8133   4.257   5.618   3.523  1.4730 -0.5058  0.9286
   27MOL   H282 8134   4.224   5.787   3.698 -1.1306  0.5356 -1.9935
   27MOL   H283 8135   4.551   5.650   3.580  0.8483 -1.7126  0.1047
   27MOL   H284 8136   4.690   5.493   3.734 -0.3959 -2.3643  2.1968
   27MOL   H285 8137   4.635   5.477   3.966  1.4231  0.5604 -0.7902
   27MOL   H286 8138   4.424   5.597   4.052 -0.7519 -0.6162  0.0577
   27MOL   C287 8139   4.384   5.926   3.651 -0.0810  0.2225  0.0149
   27MOL   C288 8140   4.387   5.999   3.784 -0.1723 -0.0262  0.0105
   27MOL   C289 8141   4.259   6.072   3.814 -0.7452 -0.4213  0.6142
   27MOL   C290 8142   4.226   6.197   3.749  0.3078 -0.2516 -0.8711
   27MOL   C291 8143   4.100   6.261   3.777  0.2189  0.0670 -0.0057
   27MOL   C292 8144   4.013   6.192   3.860 -0.5707  0.2528  0.3487
   27MOL   C293 8145   4.055   6.071   3.920 -0.5682  0.5565  0.2321
   27MOL   N294 8146   4.174   6.012   3.896  0.1130 -0.2749  0.7732
   27MOL   H295 8147   4.337   5.989   3.576 -0.0651 -0.4759 -0.5826
   27MOL   H296 8148   4.487   5.916   3.615 -0.6406  0.2792 -1.6394
   27MOL   H297 8149   4.477   6.061   3.788 -1.8805  2.5030 -0.0486
   27MOL   H298 8150   4.294   6.247   3.683 -0.2495  0.6659 -0.7600
   27MOL   H299 8151   4.064   6.346   3.720 -1.6800 -0.2470  0.6853
   27MOL   H300 8152   3.911   6.224   3.877 -0.8119 -1.3951  2.1374
   27MOL   H301 8153   3.984   6.019   3.983  2.1001  1.1593  3.8373
   27MOL   H302 8154   4.395   5.926   3.865 -2.1617 -1.5808 -1.1735
   28MOL     C1 8155   1.928   7.717   1.176 -0.5000 -0.1260  0.2160
   28MOL     C2 8156   1.792   7.691   1.117  0.2851  0.2239 -0.1501
   28MOL     C3 8157   1.686   7.800   1.147 -0.9199  0.0540 -0.5261
   28MOL     C4 8158   1.578   7.782   1.236 -0.3401  0.6901  0.1084
   28MOL     C5 8159   1.479   7.882   1.253 -0.2562  0.3377  0.5208
   28MOL     C6 8160   1.493   7.997   1.180 -0.4297 -0.4991  0.8547
   28MOL     C7 8161   1.605   8.009   1.092  0.5102  1.0062 -0.0931
   28MOL     N8 8162   1.704   7.923   1.082 -0.3551 -0.4742  0.1887
   28MOL     H9 8163   1.927   7.730   1.285 -1.2135 -0.3975  0.2496
   28MOL    H10 8164   1.988   7.629   1.155 -1.5628 -1.0306  0.8762
   28MOL    H11 8165   1.757   7.595   1.156  1.1028 -0.8503 -1.9500
   28MOL    H12 8166   1.561   7.682   1.272  0.2329  0.3754 -0.4712
   28MOL    H13 8167   1.392   7.862   1.313  0.0229 -0.5794  0.6293
   28MOL    H14 8168   1.422   8.079   1.172 -0.6694 -0.7726  0.1793
   28MOL    H15 8169   1.609   8.102   1.037  1.8472  0.3017 -1.2155
   28MOL    H16 8170   1.973   7.806   1.134  1.2662  0.2418  2.7821
   28MOL    C17 8171   1.800   7.659   0.963  0.4143 -0.0789 -0.9482
   28MOL    C18 8172   1.674   7.604   0.898  0.4793  0.4603  0.2121
   28MOL    C19 8173   1.694   7.605   0.748  0.0853  0.1336 -0.2562
   28MOL    C20 8174   1.636   7.703   0.670  0.0775 -0.1469 -0.1508
   28MOL    C21 8175   1.654   7.695   0.529  0.0498  0.1132 -0.4735
   28MOL    C22 8176   1.742   7.597   0.479  0.0671 -0.0426  0.1259
   28MOL    C23 8177   1.798   7.507   0.566 -0.0456  0.8627 -0.1840
   28MOL    N24 8178   1.779   7.511   0.695 -0.1225  0.0193 -0.4321
   28MOL    H25 8179   1.880   7.588   0.943 -1.0430 -1.2623 -2.8121
   28MOL    H26 8180   1.826   7.756   0.921 -1.5512  0.9219  0.0588
   28MOL    H27 8181   1.585   7.665   0.919  0.7767  0.8087  0.4777
   28MOL    H28 8182   1.565   7.769   0.718  0.0930 -0.7559  0.7397
   28MOL    H29 8183   1.606   7.761   0.458  0.2629 -2.1375 -2.8210
   28MOL    H30 8184   1.745   7.591   0.371 -1.5330 -1.5807  0.1554
   28MOL    H31 8185   1.859   7.424   0.534 -3.2573 -1.8252  0.4610
   28MOL    C32 8186   1.633   7.458   0.945  0.3877 -0.5226 -0.2989
   28MOL    C33 8187   1.496   7.400   0.894  0.2203 -0.5661  1.6104
   28MOL    C34 8188   1.525   7.343   0.754 -0.8016 -0.2115  0.0783
   28MOL    C35 8189   1.458   7.392   0.636 -0.6235  0.5208 -0.5189
   28MOL    C36 8190   1.481   7.342   0.510 -0.0830 -0.0664  0.1530
   28MOL    C37 8191   1.575   7.240   0.506 -0.9002 -0.1757 -0.7350
   28MOL    C38 8192   1.628   7.182   0.625 -0.0403 -0.6300 -0.1671
   28MOL    N39 8193   1.604   7.235   0.748  0.1691 -0.8486 -0.5517
   28MOL    H40 8194   1.632   7.466   1.054 -1.0410  1.0257 -0.4061
   28MOL    H41 8195   1.709   7.381   0.931 -0.4802 -1.5787  0.7766
   28MOL    H42 8196   1.429   7.486   0.887 -2.0015 -2.2801  1.1109
   28MOL    H43 8197   1.396   7.480   0.650 -1.0056  0.0715  0.6296
   28MOL    H44 8198   1.433   7.386   0.424 -0.3417  0.6014  0.6403
   28MOL    H45 8199   1.616   7.209   0.411 -1.1261  0.4965 -1.0572
   28MOL    H46 8200   1.692   7.096   0.616 -0.6768 -0.9947 -1.2106
   28MOL    C47 8201   1.442   7.297   1.002  0.6200 -0.9371  0.5377
   28MOL    C48 8202   1.377   7.368   1.126 -0.2151  0.5158  0.1155
   28MOL    C49 8203   1.272   7.467   1.072 -0.3198 -0.4391 -0.0343
   28MOL    C50 8204   1.279   7.604   1.104 -0.4221  0.1040 -0.8561
   28MOL    C51 8205   1.178   7.692   1.057  0.5639 -0.0110 -0.6034
   28MOL    C52 8206   1.081   7.632   0.973  0.2375  0.7753  0.7028
   28MOL    C53 8207   1.089   7.494   0.944  0.6165 -0.0472  0.1927
   28MOL    N54 8208   1.177   7.412   0.999  0.1244  0.1179  0.0396
   28MOL    H55 8209   1.521   7.233   1.039  1.9491  0.0707 -0.4904
   28MOL    H56 8210   1.365   7.239   0.950 -1.3879  0.2144  2.1627
   28MOL    H57 8211   1.452   7.425   1.180  0.3015 -1.2509  1.2992
   28MOL    H58 8212   1.354   7.637   1.174 -1.4746 -0.5471  0.6159
   28MOL    H59 8213   1.183   7.799   1.066 -1.4758  0.2021 -1.6741
   28MOL    H60 8214   1.005   7.692   0.927  2.1339  1.4876 -1.5760
   28MOL    H61 8215   1.002   7.450   0.897 -0.9419  1.8522  1.2107
   28MOL    C62 8216   1.313   7.266   1.218 -0.0232  0.4547  0.7434
   28MOL    C63 8217   1.365   7.262   1.364 -0.0567 -0.2083  0.8582
   28MOL    C64 8218   1.376   7.398   1.421 -0.2942  1.1655  0.4379
   28MOL    C65 8219   1.497   7.432   1.485  0.3869  0.0609  0.4582
   28MOL    C66 8220   1.520   7.557   1.527  0.3337 -0.4540  0.1287
   28MOL    C67 8221   1.416   7.648   1.511 -0.2644  0.0858 -0.2225
   28MOL    C68 8222   1.290   7.606   1.463 -0.0238  0.2706  0.2065
   28MOL    N69 8223   1.275   7.481   1.412 -0.2793  0.0907  0.3242
   28MOL    H70 8224   1.320   7.167   1.173 -0.4821  1.7353 -2.2474
   28MOL    H71 8225   1.206   7.284   1.220 -0.4272 -1.6336 -0.6180
   28MOL    H72 8226   1.463   7.217   1.347 -0.3984 -0.3903 -0.7171
   28MOL    H73 8227   1.574   7.357   1.492  1.8755  1.2834 -1.9452
   28MOL    H74 8228   1.614   7.586   1.572 -0.3056 -1.1010  1.9578
   28MOL    H75 8229   1.434   7.746   1.552 -0.1614  0.5390 -1.3255
   28MOL    H76 8230   1.198   7.659   1.444  0.8233  2.0257  0.8985
   28MOL    C77 8231   1.265   7.185   1.450  0.1448  0.0403 -0.0134
   28MOL    C78 8232   1.294   7.032   1.463  0.6182 -0.7685 -0.0101
   28MOL    C79 8233   1.433   7.002   1.501  0.3742 -0.8209 -0.4287
   28MOL    C80 8234   1.520   6.935   1.411  1.0434 -0.7320  0.8622
   28MOL    C81 8235   1.651   6.910   1.450  0.8932  0.1685 -0.4513
   28MOL    C82 8236   1.694   6.944   1.580  0.0703 -1.0897 -0.5476
   28MOL    C83 8237   1.600   7.007   1.666  0.3540 -0.4186 -0.2008
   28MOL    N84 8238   1.476   7.039   1.626  0.0637 -0.4545  0.4058
   28MOL    H85 8239   1.160   7.208   1.430  1.1337  2.0293 -3.1377
   28MOL    H86 8240   1.281   7.227   1.550 -1.4258  0.2854  0.1462
   28MOL    H87 8241   1.275   6.978   1.370 -0.5474  0.7447 -0.6802
   28MOL    H88 8242   1.488   6.915   1.310  2.1178 -0.9069  0.5535
   28MOL    H89 8243   1.718   6.849   1.390  0.6244 -0.2801 -0.2971
   28MOL    H90 8244   1.786   6.902   1.619 -0.1258 -2.4574 -1.5152
   28MOL    H91 8245   1.625   7.038   1.766 -0.3623 -0.8607  0.1211
   28MOL    C92 8246   1.196   6.964   1.555  0.2437  0.3326  0.2088
   28MOL    C93 8247   1.058   6.938   1.495  1.2106  0.0798  0.0148
   28MOL    C94 8248   1.047   6.810   1.423  0.0308 -0.6214  0.5920
   28MOL    C95 8249   1.037   6.806   1.280  0.2943 -0.1613  0.0154
   28MOL    C96 8250   1.027   6.680   1.215 -0.7246  0.6112 -1.1564
   28MOL    C97 8251   1.018   6.560   1.289  0.0083 -0.4949 -0.0948
   28MOL    C98 8252   1.019   6.577   1.430  0.5285 -0.9322  0.3301
   28MOL    N99 8253   1.039   6.697   1.490  0.4971  0.1766  0.2669
   28MOL   H100 8254   1.194   7.013   1.653  3.7626  0.8129  0.1103
   28MOL   H101 8255   1.238   6.865   1.573 -0.4000  0.3239  1.8045
   28MOL   H102 8256   1.041   7.009   1.414  1.5398 -1.2504 -1.2399
   28MOL   H103 8257   1.031   6.897   1.223 -0.0135 -0.9855 -1.2776
   28MOL   H104 8258   1.018   6.680   1.108 -0.5488 -0.8096 -1.1774
   28MOL   H105 8259   1.013   6.469   1.232  1.3185 -0.7230  0.1377
   28MOL   H106 8260   1.015   6.498   1.503 -1.2530 -1.4437 -0.2876
   28MOL   C107 8261   0.947   6.959   1.604 -0.3826 -0.3481  0.4623
   28MOL   C108 8262   0.890   7.106   1.627  0.0314  0.0875  0.7352
   28MOL   C109 8263   0.873   7.180   1.499 -0.4447 -0.5382  0.1611
   28MOL   C110 8264   0.925   7.307   1.461 -1.5332  0.3853 -1.0128
   28MOL   C111 8265   0.912   7.351   1.330 -0.2009  0.2326  0.3449
   28MOL   C112 8266   0.833   7.282   1.239  0.3544  0.3195 -0.1416
   28MOL   C113 8267   0.773   7.166   1.284 -0.5061  0.5720 -0.8153
   28MOL   N114 8268   0.789   7.116   1.414  0.5370  0.9989  0.5171
   28MOL   H115 8269   0.979   6.906   1.693  1.5692 -0.8852 -0.5158
   28MOL   H116 8270   0.872   6.896   1.557  0.7082 -1.5744  0.3416
   28MOL   H117 8271   0.973   7.153   1.680  0.1441  0.4475  0.2481
   28MOL   H118 8272   0.989   7.360   1.530 -0.4348 -0.6319 -1.2488
   28MOL   H119 8273   0.978   7.433   1.307  0.0546 -0.0657 -0.0050
   28MOL   H120 8274   0.833   7.312   1.135  0.0712  0.4615 -0.1021
   28MOL   H121 8275   0.720   7.096   1.221  0.9089 -0.2485 -1.1158
   28MOL   C122 8276   0.773   7.101   1.723  0.4908  0.2589  0.6295
   28MOL   C123 8277   0.807   7.085   1.880 -0.4807 -0.5188  0.2580
   28MOL   C124 8278   0.864   7.202   1.952  0.4070 -0.0815 -0.7132
   28MOL   C125 8279   0.979   7.189   2.039 -0.0186  0.3115 -0.0461
   28MOL   C126 8280   1.020   7.297   2.118 -0.2433  0.2777  0.4740
   28MOL   C127 8281   0.948   7.420   2.100  0.1660  0.4179  0.2211
   28MOL   C128 8282   0.840   7.423   2.012 -0.0400  0.3330  0.0459
   28MOL   N129 8283   0.799   7.315   1.943  0.1489 -0.1326  0.2683
   28MOL   H130 8284   0.707   7.023   1.685 -0.7862  2.0519 -0.9451
   28MOL   H131 8285   0.714   7.192   1.712  1.1431  0.8301  1.7982
   28MOL   H132 8286   0.889   7.014   1.893  2.1505  2.4700  0.4682
   28MOL   H133 8287   1.026   7.093   2.056 -2.1285 -0.6929  0.3739
   28MOL   H134 8288   1.099   7.278   2.189  0.1096 -3.3150 -0.7700
   28MOL   H135 8289   0.973   7.504   2.163 -1.9758  0.6177  0.8172
   28MOL   H136 8290   0.787   7.515   1.992 -1.9392  0.0046  3.1039
   28MOL   C137 8291   0.683   7.032   1.950  0.6926  0.0189  0.2701
   28MOL   C138 8292   0.673   6.886   1.929  0.3591  0.2399  0.1002
   28MOL   C139 8293   0.758   6.811   2.034 -0.2324 -0.4642 -0.7838
   28MOL   C140 8294   0.875   6.742   1.991  1.0480  0.0482 -0.2835
   28MOL   C141 8295   0.954   6.682   2.090 -0.3745 -0.6282  0.2720
   28MOL   C142 8296   0.911   6.691   2.227  0.1420 -0.5243 -0.0208
   28MOL   C143 8297   0.796   6.762   2.259  0.2421 -0.6066  0.5014
   28MOL   N144 8298   0.716   6.816   2.164  0.4979  0.2319  0.5818
   28MOL   H145 8299   0.590   7.086   1.932 -0.5882 -1.6479  1.6890
   28MOL   H146 8300   0.696   7.063   2.054  1.5317 -2.9304  1.0779
   28MOL   H147 8301   0.728   6.866   1.837  1.4270 -0.6500  0.9077
   28MOL   H148 8302   0.893   6.731   1.885 -0.1591 -1.6922 -0.3221
   28MOL   H149 8303   1.041   6.624   2.062  0.2925  0.7859 -0.6179
   28MOL   H150 8304   0.971   6.657   2.310 -2.3050  0.4092  2.2039
   28MOL   H151 8305   0.763   6.768   2.361  0.5552 -3.1066  0.7701
   28MOL   C152 8306   0.529   6.835   1.920 -0.1108  0.4715 -0.0016
   28MOL   C153 8307   0.493   6.711   1.836  0.2571  0.2406  0.0391
   28MOL   C154 8308   0.337   6.687   1.855 -0.4982  0.4560 -0.7370
   28MOL   C155 8309   0.281   6.567   1.900 -0.0008  0.6653 -0.2565
   28MOL   C156 8310   0.141   6.547   1.902  0.3551 -0.2281 -0.3680
   28MOL   C157 8311   0.063   6.645   1.856  0.5616  0.5105 -0.5359
   28MOL   C158 8312   0.120   6.769   1.814 -0.2443  0.3820  0.1322
   28MOL   N159 8313   0.257   6.786   1.812  0.0136 -0.4272  0.8562
   28MOL   H160 8314   0.471   6.918   1.882 -1.1489 -0.1832  0.1236
   28MOL   H161 8315   0.500   6.805   2.021 -0.5995  0.3052 -0.1919
   28MOL   H162 8316   0.542   6.622   1.875 -0.1402 -0.2406 -0.5589
   28MOL   H163 8317   0.349   6.493   1.939 -1.0186  1.0756  2.3606
   28MOL   H164 8318   0.101   6.452   1.936 -0.9898  0.6450  0.5155
   28MOL   H165 8319   8.109   6.624   1.856  0.6035  0.2987 -0.3738
   28MOL   H166 8320   0.056   6.846   1.774 -0.2768  0.7993  0.9804
   28MOL   C167 8321   0.543   6.724   1.686  0.1043 -0.3638  0.0782
   28MOL   C168 8322   0.517   6.601   1.596  0.3313 -0.0271 -0.6148
   28MOL   C169 8323   0.526   6.640   1.447 -0.4266 -0.0988 -0.4633
   28MOL   C170 8324   0.412   6.619   1.363 -0.0293 -0.1239  0.2356
   28MOL   C171 8325   0.420   6.652   1.223 -0.3970 -0.1929  0.5762
   28MOL   C172 8326   0.538   6.716   1.179  0.1011  0.0813 -0.2095
   28MOL   C173 8327   0.645   6.735   1.272 -0.1055 -0.0217 -0.1760
   28MOL   N174 8328   0.640   6.696   1.401  0.5749 -0.6988 -0.2521
   28MOL   H175 8329   0.648   6.753   1.674 -0.1626  0.2316 -0.7888
   28MOL   H176 8330   0.498   6.809   1.637  2.3530  1.5775  1.2909
   28MOL   H177 8331   0.413   6.572   1.611  1.1749 -2.9868 -0.0956
   28MOL   H178 8332   0.321   6.578   1.403  1.3479 -3.5659 -0.0500
   28MOL   H179 8333   0.335   6.630   1.160  0.2086 -2.8921  0.6473
   28MOL   H180 8334   0.548   6.743   1.075 -0.2242  1.3945  0.0887
   28MOL   H181 8335   0.734   6.783   1.235  0.1525  0.5104  1.1069
   28MOL   C182 8336   0.606   6.474   1.621  0.9985  0.6016  0.5827
   28MOL   C183 8337   0.525   6.359   1.693 -0.0227 -0.5671  0.1515
   28MOL   C184 8338   0.430   6.287   1.603  0.0790  0.3569 -0.2850
   28MOL   C185 8339   0.290   6.285   1.611 -0.5675 -0.0675  0.7141
   28MOL   C186 8340   0.210   6.209   1.515  0.3859  0.0021 -1.0077
   28MOL   C187 8341   0.275   6.142   1.412 -0.7505  0.5846  0.0282
   28MOL   C188 8342   0.416   6.152   1.407 -0.1196  0.5232 -0.3826
   28MOL   N189 8343   0.489   6.218   1.498 -0.2662  0.7281  0.0658
   28MOL   H190 8344   0.690   6.506   1.682  1.7189  1.3047 -0.7681
   28MOL   H191 8345   0.651   6.431   1.532 -1.0957  3.1053 -1.7913
   28MOL   H192 8346   0.464   6.416   1.762  0.0784 -2.7856  2.1226
   28MOL   H193 8347   0.252   6.330   1.702 -1.8207 -2.6045  1.4850
   28MOL   H194 8348   0.102   6.208   1.522  0.3412 -0.1194 -1.7694
   28MOL   H195 8349   0.219   6.100   1.330  1.1524  0.3573 -1.1702
   28MOL   H196 8350   0.462   6.122   1.314 -0.7133  1.0208 -0.8446
   28MOL   C197 8351   0.614   6.258   1.767 -0.7289 -0.6479 -0.5584
   28MOL   C198 8352   0.682   6.298   1.903 -0.4872 -0.4960  0.2132
   28MOL   C199 8353   0.591   6.355   2.015  0.4540  0.2313  0.1283
   28MOL   C200 8354   0.631   6.474   2.086  0.0453  0.2192 -0.6472
   28MOL   C201 8355   0.541   6.514   2.189  0.4953  0.0044  0.0868
   28MOL   C202 8356   0.436   6.426   2.229  1.0915 -0.3818 -0.1697
   28MOL   C203 8357   0.400   6.316   2.150 -0.4642 -0.5432 -0.4746
   28MOL   N204 8358   0.481   6.282   2.048  0.6903 -0.5370 -0.3266
   28MOL   H205 8359   0.689   6.223   1.697  1.2000  0.3538  0.9467
   28MOL   H206 8360   0.560   6.169   1.798 -2.0383 -0.1205 -1.2811
   28MOL   H207 8361   0.750   6.379   1.876 -1.2542  0.1797  0.2910
   28MOL   H208 8362   0.714   6.529   2.044  0.5748  0.1906  0.3517
   28MOL   H209 8363   0.552   6.604   2.248  3.6988  0.9491 -1.8545
   28MOL   H210 8364   0.366   6.450   2.308  0.9753  1.4838 -0.8299
   28MOL   H211 8365   0.311   6.257   2.166 -0.7341 -0.4584 -1.5923
   28MOL   C212 8366   0.770   6.177   1.951 -0.1799  0.3408  0.6092
   28MOL   C213 8367   0.910   6.213   2.013 -0.2847 -0.2290  0.6088
   28MOL   C214 8368   1.011   6.263   1.909  0.7873  0.1731  0.3418
   28MOL   C215 8369   1.088   6.176   1.837 -0.1980  0.0552 -0.9458
   28MOL   C216 8370   1.168   6.231   1.728 -0.6396 -0.2086 -0.1882
   28MOL   C217 8371   1.167   6.372   1.714  0.8010  0.3439  0.1452
   28MOL   C218 8372   1.090   6.455   1.797 -0.2904  0.8287 -0.5072
   28MOL   N219 8373   1.009   6.395   1.891  0.3232  0.4346 -0.5639
   28MOL   H220 8374   0.777   6.099   1.876 -1.6112  2.8476 -2.2364
   28MOL   H221 8375   0.719   6.129   2.034 -0.3244 -0.1401  0.2395
   28MOL   H222 8376   0.954   6.116   2.033 -2.6475 -1.6877 -1.0468
   28MOL   H223 8377   1.087   6.073   1.867 -0.6946  0.2451 -0.3028
   28MOL   H224 8378   1.216   6.151   1.674 -0.7262  1.4721 -2.8510
   28MOL   H225 8379   1.230   6.412   1.637 -1.5674  1.3495 -1.3531
   28MOL   H226 8380   1.089   6.563   1.795 -0.6957  0.8434  0.2616
   28MOL   C227 8381   0.908   6.292   2.143 -0.3791  0.1168 -0.1714
   28MOL   C228 8382   0.841   6.220   2.263  0.3771 -0.5820 -0.2088
   28MOL   C229 8383   0.919   6.092   2.302  0.2570  0.0212 -0.0304
   28MOL   C230 8384   1.046   6.090   2.358 -0.1683  0.3132  0.0372
   28MOL   C231 8385   1.104   5.971   2.401 -0.0221  0.1594  0.9168
   28MOL   C232 8386   1.034   5.851   2.359  0.0040 -0.1761 -0.2490
   28MOL   C233 8387   0.908   5.859   2.293  0.1869  0.0515  0.0745
   28MOL   N234 8388   0.851   5.979   2.268  0.4605  0.0417  0.1365
   28MOL   H235 8389   0.874   6.394   2.130 -0.4953 -0.2360 -2.8725
   28MOL   H236 8390   1.010   6.307   2.176 -0.9159 -1.1209  2.1931
   28MOL   H237 8391   0.740   6.193   2.234  0.3802  1.9145 -2.8043
   28MOL   H238 8392   1.092   6.182   2.393 -1.0271  1.6278 -2.1887
   28MOL   H239 8393   1.202   5.966   2.446 -0.2781 -0.9280  1.3660
   28MOL   H240 8394   1.087   5.762   2.391  1.0225  0.5494  0.1165
   28MOL   H241 8395   0.854   5.771   2.262 -0.0215  0.5887 -1.0924
   28MOL   C242 8396   0.829   6.322   2.378 -0.2055 -0.7779 -0.0960
   28MOL   C243 8397   0.747   6.265   2.500 -0.4413  0.2557 -0.5499
   28MOL   C244 8398   0.750   6.362   2.615  0.2970  0.4122 -0.2023
   28MOL   C245 8399   0.655   6.467   2.628 -0.7005  0.0598  0.1408
   28MOL   C246 8400   0.664   6.541   2.746 -0.1946 -0.0071 -0.2472
   28MOL   C247 8401   0.746   6.498   2.850  0.6306 -0.1104 -0.4302
   28MOL   C248 8402   0.824   6.390   2.831 -0.4308  0.7462  0.9840
   28MOL   N249 8403   0.837   6.320   2.716 -0.0746 -0.0503  0.3806
   28MOL   H250 8404   0.778   6.414   2.350  1.2678 -0.2593 -1.1482
   28MOL   H251 8405   0.927   6.351   2.416 -0.2287  0.7387 -1.1281
   28MOL   H252 8406   0.809   6.180   2.529 -0.6555 -0.2480 -1.5492
   28MOL   H253 8407   0.581   6.487   2.552 -1.8879  0.9652  1.5143
   28MOL   H254 8408   0.599   6.625   2.765  0.6406  0.6090 -0.0983
   28MOL   H255 8409   0.749   6.558   2.939 -0.1819  0.1465 -0.5751
   28MOL   H256 8410   0.896   6.358   2.905  0.2383  1.4081  0.6294
   28MOL   C257 8411   0.608   6.201   2.460 -0.0510  0.0174  0.0067
   28MOL   C258 8412   0.494   6.180   2.565 -0.1177 -0.0740  0.7032
   28MOL   C259 8413   0.364   6.157   2.508 -0.1457  0.5336 -1.3214
   28MOL   C260 8414   0.268   6.259   2.529 -0.4884  0.2111  0.3472
   28MOL   C261 8415   0.148   6.251   2.462  1.0514  0.2312 -1.0695
   28MOL   C262 8416   0.134   6.149   2.364  0.1193 -0.1931  0.5046
   28MOL   C263 8417   0.228   6.044   2.358 -0.3946 -0.0226  0.2257
   28MOL   N264 8418   0.350   6.052   2.424  0.1868 -0.3790 -0.3060
   28MOL   H265 8419   0.627   6.100   2.424 -1.7554 -0.7418  1.1487
   28MOL   H266 8420   0.566   6.241   2.367  2.1007  2.4349  0.0260
   28MOL   H267 8421   0.485   6.272   2.622  1.2130  1.4869 -1.5479
   28MOL   H268 8422   0.277   6.343   2.596 -0.8139  0.8247 -0.3598
   28MOL   H269 8423   0.065   6.318   2.476 -0.2879 -1.8036  1.1373
   28MOL   H270 8424   0.042   6.128   2.312 -0.9265  2.3648  1.2394
   28MOL   H271 8425   0.205   5.956   2.300 -2.3364 -0.1068  1.1028
   28MOL   C272 8426   0.532   6.080   2.678 -0.1558  0.5569  0.0762
   28MOL   C273 8427   0.424   6.026   2.776 -0.2437  0.1083 -0.0209
   28MOL   C274 8428   0.479   5.913   2.861 -0.8036 -0.3583  0.0485
   28MOL   C275 8429   0.413   5.788   2.864  0.4446 -0.2071 -0.2163
   28MOL   C276 8430   0.467   5.678   2.936  0.1854  0.3404 -0.3237
   28MOL   C277 8431   0.579   5.708   3.014 -0.0715  0.0265  0.4461
   28MOL   C278 8432   0.649   5.830   2.998  0.6169  0.5509  0.3471
   28MOL   N279 8433   0.595   5.935   2.933 -0.5566 -0.2044  0.1746
   28MOL   H280 8434   0.609   6.129   2.739  1.2153 -2.2689  0.6906
   28MOL   H281 8435   0.577   5.992   2.634 -1.0316  0.6440 -1.0128
   28MOL   H282 8436   0.344   5.989   2.712 -0.4281 -0.5478  0.5779
   28MOL   H283 8437   0.321   5.775   2.810  0.3581 -1.4201  0.1998
   28MOL   H284 8438   0.422   5.580   2.936 -0.2608  0.5205 -1.8878
   28MOL   H285 8439   0.621   5.634   3.080 -0.8483  0.2943  1.2555
   28MOL   H286 8440   0.731   5.851   3.064  1.2646 -2.4005  0.5397
   28MOL   C287 8441   0.360   6.136   2.865  0.5421 -0.3071  0.0670
   28MOL   C288 8442   0.438   6.227   2.954  0.0399 -0.6416  0.0011
   28MOL   C289 8443   0.378   6.362   2.982  0.0455 -0.3181  0.0940
   28MOL   C290 8444   0.330   6.399   3.111 -0.1097  0.3190 -0.4161
   28MOL   C291 8445   0.278   6.526   3.129 -0.3368  0.6051 -0.1556
   28MOL   C292 8446   0.260   6.604   3.016 -0.2657 -0.4065  0.3069
   28MOL   C293 8447   0.312   6.571   2.892  0.4148 -0.0678  0.5470
   28MOL   N294 8448   0.367   6.445   2.875  0.1217 -0.5836 -0.0393
   28MOL   H295 8449   0.275   6.085   2.910 -1.1568  2.2863 -0.0774
   28MOL   H296 8450   0.305   6.195   2.791 -0.1721 -0.7258  0.2557
   28MOL   H297 8451   0.535   6.256   2.914 -0.9198  1.4928 -0.9107
   28MOL   H298 8452   0.338   6.331   3.194  3.0358 -0.0699 -0.9752
   28MOL   H299 8453   0.242   6.560   3.225  0.2612  1.6481 -0.2896
   28MOL   H300 8454   0.223   6.705   3.023 -0.3063 -0.3508 -0.6591
   28MOL   H301 8455   0.314   6.639   2.809  0.3483 -0.4303  0.2478
   28MOL   H302 8456   0.448   6.182   3.052 -0.4330 -1.7662 -0.4601
   29MOL     C1 8457   0.576   4.257   6.322  0.0942  0.0366  0.1532
   29MOL     C2 8458   0.721   4.286   6.290 -0.0465  0.2081  0.1485
   29MOL     C3 8459   0.803   4.307   6.415 -0.1881 -0.1640  0.7849
   29MOL     C4 8460   0.885   4.423   6.434 -0.4746  0.7133  0.0090
   29MOL     C5 8461   0.971   4.429   6.544  0.0668  0.4018  0.2412
   29MOL     C6 8462   0.953   4.328   6.636  0.1877 -0.0619 -0.2511
   29MOL     C7 8463   0.849   4.229   6.619  0.1499 -0.0571 -0.0714
   29MOL     N8 8464   0.783   4.214   6.506  0.3872  0.3205  0.4821
   29MOL     H9 8465   0.577   4.168   6.386 -0.0613  0.2436  0.4425
   29MOL    H10 8466   0.524   4.341   6.366  1.0662  0.5668  0.3075
   29MOL    H11 8467   0.723   4.380   6.235 -1.4547 -0.8117 -1.6937
   29MOL    H12 8468   0.886   4.505   6.363 -0.9770  1.8115  1.2410
   29MOL    H13 8469   1.039   4.512   6.560 -0.2470  0.9675 -1.2878
   29MOL    H14 8470   1.017   4.334   6.723 -1.1488  0.7293  0.6892
   29MOL    H15 8471   0.828   4.162   6.702 -1.9004  1.1870  0.4439
   29MOL    H16 8472   0.517   4.238   6.233 -1.5308 -0.5208  1.3208
   29MOL    C17 8473   0.777   4.175   6.194 -0.0316  0.0391 -0.3843
   29MOL    C18 8474   0.898   4.216   6.099  0.5215  0.2521 -0.3840
   29MOL    C19 8475   1.024   4.261   6.172  0.1198 -0.0050 -0.2635
   29MOL    C20 8476   1.079   4.179   6.271  0.5813 -0.0594 -0.0574
   29MOL    C21 8477   1.183   4.239   6.348  0.5300  0.6644  0.0372
   29MOL    C22 8478   1.236   4.364   6.310 -0.2979 -0.5126 -0.2453
   29MOL    C23 8479   1.170   4.429   6.208 -0.1921  0.4275 -0.1999
   29MOL    N24 8480   1.071   4.376   6.134 -0.2961 -0.2549  0.1896
   29MOL    H25 8481   0.702   4.156   6.117  0.8607 -0.2030 -1.1993
   29MOL    H26 8482   0.785   4.078   6.241 -2.1865  0.8037  1.6865
   29MOL    H27 8483   0.871   4.299   6.034  2.1129  1.9308  1.0700
   29MOL    H28 8484   1.033   4.085   6.296 -0.0331  0.3556  0.3831
   29MOL    H29 8485   1.234   4.178   6.421  0.6708  0.4288 -0.2557
   29MOL    H30 8486   1.308   4.410   6.375  0.5605 -3.1954  0.7901
   29MOL    H31 8487   1.188   4.534   6.188 -1.9938  0.5314 -1.3971
   29MOL    C32 8488   0.934   4.100   6.001 -0.3368 -0.1934 -0.0730
   29MOL    C33 8489   0.827   4.051   5.905 -0.5514  0.0966 -0.1028
   29MOL    C34 8490   0.770   4.159   5.817  0.4565  0.1692 -0.3426
   29MOL    C35 8491   0.640   4.203   5.832  0.8064 -0.2889 -0.3716
   29MOL    C36 8492   0.602   4.303   5.744  1.0035  0.3447  0.1819
   29MOL    C37 8493   0.697   4.364   5.658 -0.9111  0.4130 -0.3536
   29MOL    C38 8494   0.825   4.307   5.650  0.1214  0.2393 -0.0767
   29MOL    N39 8495   0.861   4.210   5.727 -0.4027  0.5209  0.5248
   29MOL    H40 8496   0.962   4.010   6.055 -0.3314  0.2658  0.6975
   29MOL    H41 8497   1.027   4.133   5.956  1.5581 -3.3506  1.3368
   29MOL    H42 8498   0.749   4.006   5.966  0.4167 -2.5233 -0.7005
   29MOL    H43 8499   0.561   4.165   5.896 -0.2041 -0.2123 -1.5740
   29MOL    H44 8500   0.501   4.340   5.747  1.1029  0.6092  0.2576
   29MOL    H45 8501   0.674   4.449   5.595 -3.1718 -1.3767 -2.0272
   29MOL    H46 8502   0.895   4.352   5.581 -0.9265  1.2836 -0.4690
   29MOL    C47 8503   0.875   3.931   5.811  0.3660 -0.1158 -0.1438
   29MOL    C48 8504   0.934   3.809   5.879  0.0703  0.4900  0.0381
   29MOL    C49 8505   0.870   3.775   6.011 -0.0097 -0.2075  0.1002
   29MOL    C50 8506   0.942   3.766   6.138 -0.7538 -0.1406  0.0187
   29MOL    C51 8507   0.863   3.752   6.257  0.1708 -0.2123  0.6329
   29MOL    C52 8508   0.730   3.710   6.241  0.5104  0.2622 -0.5131
   29MOL    C53 8509   0.672   3.700   6.116  0.3601 -0.0803 -0.4100
   29MOL    N54 8510   0.737   3.744   6.007  1.0669  0.5038 -0.3230
   29MOL    H55 8511   0.934   3.969   5.728 -1.7936 -0.3358 -1.8480
   29MOL    H56 8512   0.780   3.906   5.762  0.1576  1.7701 -0.7387
   29MOL    H57 8513   1.031   3.843   5.916  2.1978 -2.6047 -2.4622
   29MOL    H58 8514   1.048   3.786   6.142 -0.6743 -0.7291  1.4005
   29MOL    H59 8515   0.916   3.753   6.351  1.3997 -3.0759  0.0277
   29MOL    H60 8516   0.669   3.681   6.326  1.1376  2.9188  0.8750
   29MOL    H61 8517   0.567   3.676   6.101 -0.1036  2.2026 -1.0434
   29MOL    C62 8518   0.959   3.691   5.786 -0.1751  1.1461 -0.4552
   29MOL    C63 8519   1.036   3.571   5.852  0.4583  0.3546  0.2139
   29MOL    C64 8520   0.942   3.451   5.863 -0.7485  0.0697 -0.1437
   29MOL    C65 8521   0.860   3.423   5.976 -0.1653 -0.1483 -0.2657
   29MOL    C66 8522   0.772   3.315   5.975  0.5625 -0.2957 -0.3866
   29MOL    C67 8523   0.760   3.233   5.864 -0.8291 -0.5222 -0.7764
   29MOL    C68 8524   0.830   3.281   5.751  0.7663  0.0512  0.1607
   29MOL    N69 8525   0.918   3.381   5.752 -0.7698 -0.1144 -0.1058
   29MOL    H70 8526   1.021   3.718   5.700  1.2860 -0.1960  0.1465
   29MOL    H71 8527   0.864   3.662   5.740  0.8168 -0.4280 -1.5924
   29MOL    H72 8528   1.060   3.592   5.956  1.1759 -0.3765  0.2014
   29MOL    H73 8529   0.870   3.482   6.066  1.1476 -1.2879  0.3532
   29MOL    H74 8530   0.713   3.297   6.063  1.4341  0.5348  0.3699
   29MOL    H75 8531   0.681   3.160   5.854 -2.7076  1.7434 -3.3378
   29MOL    H76 8532   0.808   3.230   5.658  1.5205  1.1557 -0.6279
   29MOL    C77 8533   1.168   3.532   5.781 -0.2980 -0.0995  0.1322
   29MOL    C78 8534   1.275   3.643   5.755 -0.7453  1.3196 -0.2128
   29MOL    C79 8535   1.272   3.759   5.859 -0.3827 -0.6451  0.2913
   29MOL    C80 8536   1.257   3.889   5.810 -0.0488  0.4964  0.5821
   29MOL    C81 8537   1.285   4.004   5.886 -0.1513 -0.1798  0.9133
   29MOL    C82 8538   1.328   3.976   6.017  0.0615 -0.2698 -0.6244
   29MOL    C83 8539   1.333   3.843   6.066 -0.4957  0.6272  0.5156
   29MOL    N84 8540   1.298   3.736   5.989  0.2336 -0.3047  0.0738
   29MOL    H85 8541   1.143   3.478   5.690 -2.4815 -1.3133  1.4152
   29MOL    H86 8542   1.215   3.462   5.851 -1.0027  0.1264  0.8269
   29MOL    H87 8543   1.254   3.688   5.658 -1.2169 -0.6893 -1.0675
   29MOL    H88 8544   1.228   3.906   5.707 -1.0056 -1.3061  0.5286
   29MOL    H89 8545   1.291   4.100   5.836  0.1318 -1.0200 -0.6900
   29MOL    H90 8546   1.362   4.062   6.073  0.1122 -0.4676 -0.3464
   29MOL    H91 8547   1.380   3.819   6.160 -0.1574 -0.7908 -0.0112
   29MOL    C92 8548   1.413   3.576   5.749  0.0794 -0.6437 -0.4455
   29MOL    C93 8549   1.438   3.454   5.656 -0.6360  0.0709  0.4338
   29MOL    C94 8550   1.493   3.505   5.517  0.2332  1.0405 -0.5738
   29MOL    C95 8551   1.423   3.480   5.400  0.5137 -1.0311 -0.5174
   29MOL    C96 8552   1.468   3.548   5.284  0.4129 -0.1709 -0.0491
   29MOL    C97 8553   1.589   3.621   5.285  0.7451 -0.2973 -0.3660
   29MOL    C98 8554   1.660   3.623   5.403 -0.3021 -0.3898 -0.8000
   29MOL    N99 8555   1.611   3.568   5.518  0.3909 -0.1421 -0.1499
   29MOL   H100 8556   1.441   3.559   5.853  0.2882  0.5138 -0.3141
   29MOL   H101 8557   1.492   3.647   5.725  0.6873 -0.5769  1.7138
   29MOL   H102 8558   1.348   3.395   5.640 -0.5743 -0.1421  0.8774
   29MOL   H103 8559   1.325   3.437   5.386 -1.1540  2.9514 -1.8832
   29MOL   H104 8560   1.408   3.553   5.194  1.3675 -0.5392 -0.7092
   29MOL   H105 8561   1.623   3.675   5.197 -1.1581 -0.0319 -0.9633
   29MOL   H106 8562   1.758   3.667   5.416 -0.6622 -0.3493  2.1727
   29MOL   C107 8563   1.539   3.355   5.718 -0.8316  0.2490 -0.6012
   29MOL   C108 8564   1.496   3.276   5.839  0.8424  0.1218  0.1492
   29MOL   C109 8565   1.383   3.182   5.797  1.5099 -0.0403 -0.1427
   29MOL   C110 8566   1.260   3.181   5.866 -0.0066  0.0011  0.3056
   29MOL   C111 8567   1.166   3.082   5.837 -0.0846  0.1772 -0.3682
   29MOL   C112 8568   1.193   2.986   5.741 -0.0931 -0.0460  0.3647
   29MOL   C113 8569   1.316   2.995   5.672  0.5442 -0.4619 -0.0788
   29MOL   N114 8570   1.408   3.092   5.700  0.2872 -0.3227 -0.5492
   29MOL   H115 8571   1.623   3.417   5.751 -1.4201  0.2453  0.9643
   29MOL   H116 8572   1.577   3.290   5.639  0.1185  0.9072 -0.6967
   29MOL   H117 8573   1.450   3.343   5.912  0.4424  1.3227 -1.1974
   29MOL   H118 8574   1.248   3.245   5.952 -0.1797  0.3609  0.0139
   29MOL   H119 8575   1.079   3.067   5.899  1.5109 -0.5720  1.7394
   29MOL   H120 8576   1.123   2.904   5.726  0.1992 -0.3706  0.7498
   29MOL   H121 8577   1.342   2.920   5.598 -1.5608  0.9812 -2.3801
   29MOL   C122 8578   1.610   3.200   5.911 -0.3113  0.2487  1.7661
   29MOL   C123 8579   1.590   3.170   6.062 -0.1693 -0.2991  0.2402
   29MOL   C124 8580   1.621   3.025   6.088 -0.3929 -0.2166  0.7401
   29MOL   C125 8581   1.527   2.955   6.167 -0.5741  0.4675  0.1375
   29MOL   C126 8582   1.553   2.822   6.213  0.6389 -0.5918 -0.6170
   29MOL   C127 8583   1.674   2.770   6.171  0.5477  0.4588  0.1081
   29MOL   C128 8584   1.759   2.842   6.087  0.5828  0.5427 -0.8288
   29MOL   N129 8585   1.741   2.972   6.054 -0.3206 -0.1166  0.7664
   29MOL   H130 8586   1.694   3.270   5.912  0.0090 -0.1174  0.5975
   29MOL   H131 8587   1.649   3.118   5.851 -1.5321  0.0853  1.1729
   29MOL   H132 8588   1.485   3.182   6.086  0.1032  0.2331  1.1652
   29MOL   H133 8589   1.434   3.009   6.180 -1.2504 -0.8354  0.9579
   29MOL   H134 8590   1.482   2.761   6.268 -2.6908  2.8093 -0.8805
   29MOL   H135 8591   1.696   2.673   6.215 -2.8425  0.0447  1.0171
   29MOL   H136 8592   1.848   2.795   6.047 -1.8559 -2.8171 -2.5705
   29MOL   C137 8593   1.688   3.262   6.148 -0.0217 -0.1773  1.0663
   29MOL   C138 8594   1.630   3.401   6.180  0.3026 -0.1827  0.3006
   29MOL   C139 8595   1.492   3.401   6.249 -0.1561  0.7405 -0.5691
   29MOL   C140 8596   1.376   3.439   6.178  0.7331  0.1245  0.7691
   29MOL   C141 8597   1.252   3.422   6.247 -0.0732  0.2116  0.0955
   29MOL   C142 8598   1.254   3.374   6.375 -0.2752  0.3330  0.0699
   29MOL   C143 8599   1.370   3.331   6.437 -0.1651  0.0973  0.4781
   29MOL   N144 8600   1.489   3.355   6.376  0.2983 -0.2993  0.6659
   29MOL   H145 8601   1.783   3.266   6.096  0.5294  0.1910  2.0783
   29MOL   H146 8602   1.710   3.222   6.247 -1.0361  0.8841  1.7436
   29MOL   H147 8603   1.615   3.458   6.088 -2.7438 -1.3667 -0.0197
   29MOL   H148 8604   1.383   3.470   6.075  0.3233  0.1342  0.7452
   29MOL   H149 8605   1.158   3.450   6.202 -0.2261 -0.3410  0.0689
   29MOL   H150 8606   1.161   3.357   6.427  0.0002 -2.9444 -0.4122
   29MOL   H151 8607   1.372   3.277   6.531 -0.7091  1.1962  1.1292
   29MOL   C152 8608   1.740   3.478   6.262 -0.2386 -0.2695 -0.2523
   29MOL   C153 8609   1.867   3.537   6.186 -0.4630 -0.3339  0.2572
   29MOL   C154 8610   1.825   3.596   6.050 -0.4940 -1.5918 -0.8079
   29MOL   C155 8611   1.890   3.557   5.931  0.3991 -0.6701 -0.8806
   29MOL   C156 8612   1.846   3.607   5.808  0.1258  0.2483  1.2930
   29MOL   C157 8613   1.742   3.705   5.812 -0.9443  0.6295  0.0373
   29MOL   C158 8614   1.686   3.743   5.936  0.3882  0.3750  0.2118
   29MOL   N159 8615   1.726   3.688   6.052  0.0168  0.6670  0.1281
   29MOL   H160 8616   1.760   3.429   6.357 -0.5514  0.1750  0.0471
   29MOL   H161 8617   1.698   3.575   6.290  1.7479  0.1014  1.5942
   29MOL   H162 8618   1.928   3.451   6.159 -0.5281  0.3413 -2.2121
   29MOL   H163 8619   1.974   3.489   5.933  1.9811  1.3055  1.6274
   29MOL   H164 8620   1.899   3.584   5.716  1.4065 -0.7194  2.2471
   29MOL   H165 8621   1.712   3.741   5.714 -0.2695  0.2104 -0.3279
   29MOL   H166 8622   1.602   3.810   5.927 -1.2987 -1.5346  1.3344
   29MOL   C167 8623   1.956   3.642   6.253  1.3876 -0.0558  0.0281
   29MOL   C168 8624   2.030   3.587   6.381  0.6778  0.9532 -0.1833
   29MOL   C169 8625   2.176   3.553   6.339  0.1427  0.0454  0.5033
   29MOL   C170 8626   2.197   3.420   6.289 -0.2422  0.1441 -0.4934
   29MOL   C171 8627   2.317   3.399   6.219 -0.7757 -0.2485  0.0348
   29MOL   C172 8628   2.414   3.501   6.217  0.1297 -1.1270  0.6976
   29MOL   C173 8629   2.385   3.625   6.273  0.6188 -0.0752 -0.2494
   29MOL   N174 8630   2.266   3.652   6.335 -0.3697 -0.1927  0.1734
   29MOL   H175 8631   1.898   3.730   6.281  0.0735 -0.7959 -0.3207
   29MOL   H176 8632   2.029   3.681   6.183  0.3889  1.3486 -0.2489
   29MOL   H177 8633   1.983   3.496   6.420  1.5769  1.5123  2.2942
   29MOL   H178 8634   2.130   3.336   6.299  1.7812 -1.2851  1.4276
   29MOL   H179 8635   2.347   3.300   6.186  1.7988 -0.1791  2.0718
   29MOL   H180 8636   2.513   3.485   6.176  0.4450  0.6550  0.7372
   29MOL   H181 8637   2.461   3.702   6.274  1.9741 -1.3860 -0.8042
   29MOL   C182 8638   2.035   3.685   6.501 -0.6821 -0.3064 -0.3543
   29MOL   C183 8639   1.893   3.716   6.560 -0.0060  0.2310  1.1065
   29MOL   C184 8640   1.849   3.602   6.647  0.1693 -0.1727  0.5457
   29MOL   C185 8641   1.740   3.524   6.607 -0.3670  0.4335  0.0188
   29MOL   C186 8642   1.699   3.408   6.681 -0.1896 -0.2961 -0.2231
   29MOL   C187 8643   1.781   3.381   6.791  0.3452  1.2736 -0.5433
   29MOL   C188 8644   1.888   3.462   6.823 -0.3941  0.0833 -0.6105
   29MOL   N189 8645   1.928   3.572   6.753 -0.0411  0.1197 -0.0661
   29MOL   H190 8646   2.073   3.783   6.471 -2.4281  0.5776  0.2319
   29MOL   H191 8647   2.103   3.646   6.576  0.3648  0.4804 -0.8691
   29MOL   H192 8648   1.817   3.730   6.484  1.3844  2.2584  0.0454
   29MOL   H193 8649   1.681   3.552   6.521  1.1082  0.1046 -1.0987
   29MOL   H194 8650   1.627   3.337   6.646  0.9513 -1.9153  0.6397
   29MOL   H195 8651   1.754   3.290   6.842 -0.4635  0.8857 -1.6363
   29MOL   H196 8652   1.943   3.445   6.914 -0.2355 -0.4588 -0.8064
   29MOL   C197 8653   1.903   3.849   6.650  0.5398  0.1682 -0.1924
   29MOL   C198 8654   1.906   3.982   6.562 -0.1140  0.4084 -0.1168
   29MOL   C199 8655   1.778   4.003   6.479 -0.4714  0.3373 -0.2342
   29MOL   C200 8656   1.790   4.006   6.339 -0.0723  0.6254  0.4137
   29MOL   C201 8657   1.682   4.030   6.258  0.6867  0.4260  0.1275
   29MOL   C202 8658   1.562   4.064   6.320 -0.3562  0.4811  0.3779
   29MOL   C203 8659   1.553   4.059   6.465 -0.7518 -0.0336  0.1552
   29MOL   N204 8660   1.662   4.024   6.540  0.1003 -0.0031  0.5116
   29MOL   H205 8661   1.990   3.842   6.716  0.3091 -0.3183  0.0626
   29MOL   H206 8662   1.818   3.844   6.718  0.8016 -1.2402  0.0572
   29MOL   H207 8663   1.980   3.980   6.482 -1.2992  0.6243 -1.2339
   29MOL   H208 8664   1.878   3.981   6.282  0.0641 -0.3852  1.0631
   29MOL   H209 8665   1.700   4.034   6.152 -0.1724 -0.1149 -0.0413
   29MOL   H210 8666   1.475   4.079   6.257 -0.9190 -1.1412  0.7425
   29MOL   H211 8667   1.460   4.074   6.518 -1.7725 -0.0594 -1.5844
   29MOL   C212 8668   1.944   4.100   6.650  0.4726  0.1465 -0.0764
   29MOL   C213 8669   2.092   4.113   6.679 -0.4492  0.2397 -0.4970
   29MOL   C214 8670   2.174   4.139   6.551  0.5895  0.4702  0.7658
   29MOL   C215 8671   2.250   4.035   6.487 -0.1008 -0.3901 -0.8021
   29MOL   C216 8672   2.318   4.067   6.372  0.7018 -1.6050 -0.4693
   29MOL   C217 8673   2.295   4.194   6.313  0.2571 -0.0892 -0.3770
   29MOL   C218 8674   2.232   4.292   6.389 -0.1018 -0.5499  0.4812
   29MOL   N219 8675   2.164   4.266   6.504 -0.3353  0.4511 -0.4354
   29MOL   H220 8676   1.873   4.097   6.733  1.3822  2.6613  0.8133
   29MOL   H221 8677   1.913   4.186   6.591  0.4821 -0.1337 -0.4892
   29MOL   H222 8678   2.123   4.010   6.698  1.3582  0.6205 -1.3630
   29MOL   H223 8679   2.257   3.935   6.526 -1.8209 -0.4287 -0.5578
   29MOL   H224 8680   2.380   3.995   6.321 -0.3755 -2.0207 -1.2016
   29MOL   H225 8681   2.333   4.226   6.217 -1.4601 -1.2047 -1.4638
   29MOL   H226 8682   2.221   4.393   6.352  3.0176  0.5014  2.3091
   29MOL   C227 8683   2.128   4.210   6.787 -0.0494  0.2505 -0.4008
   29MOL   C228 8684   2.142   4.161   6.930  0.6346  0.2010  0.0291
   29MOL   C229 8685   2.240   4.239   7.021 -0.0149 -0.3757 -0.4284
   29MOL   C230 8686   2.362   4.189   7.077  0.3476  0.5470  0.6529
   29MOL   C231 8687   2.435   4.278   7.166 -0.2441  0.5217 -0.0864
   29MOL   C232 8688   2.387   4.405   7.186 -0.1956 -0.0837 -0.6875
   29MOL   C233 8689   2.273   4.449   7.117  0.1314  0.2081  0.6125
   29MOL   N234 8690   2.204   4.367   7.036 -0.2134 -0.0625 -0.6484
   29MOL   H235 8691   2.072   4.303   6.776  0.7145  0.6143 -1.2844
   29MOL   H236 8692   2.230   4.239   6.759 -0.1276  0.6283 -0.2936
   29MOL   H237 8693   2.178   4.058   6.925 -2.4349 -0.9883  1.5932
   29MOL   H238 8694   2.405   4.093   7.055  0.5769  0.6808  0.5163
   29MOL   H239 8695   2.531   4.251   7.209 -1.1538 -2.2234  0.3113
   29MOL   H240 8696   2.445   4.473   7.246 -0.3323 -1.6868  1.3359
   29MOL   H241 8697   2.243   4.551   7.137 -0.4464  0.1830 -0.1061
   29MOL   C242 8698   2.007   4.143   6.995  0.2553  0.3697  0.9832
   29MOL   C243 8699   1.993   4.131   7.150 -0.8169  0.2941 -0.0283
   29MOL   C244 8700   1.855   4.195   7.197  0.1096  0.2919 -0.2091
   29MOL   C245 8701   1.737   4.126   7.176 -0.0858 -0.7729 -0.1917
   29MOL   C246 8702   1.616   4.189   7.207  0.3530 -0.3186  0.1600
   29MOL   C247 8703   1.612   4.303   7.286  0.1084  0.3108 -0.6163
   29MOL   C248 8704   1.739   4.358   7.311 -0.0905 -0.5779  0.3394
   29MOL   N249 8705   1.849   4.314   7.253  0.2069  0.0460 -0.6357
   29MOL   H250 8706   1.933   4.086   6.939  0.1740  0.2199  1.2418
   29MOL   H251 8707   1.970   4.246   6.988 -4.2730 -1.1048  1.5052
   29MOL   H252 8708   2.065   4.194   7.203 -3.6947  2.2360  1.7336
   29MOL   H253 8709   1.731   4.033   7.124 -0.6886 -1.0743  0.4132
   29MOL   H254 8710   1.523   4.134   7.198 -0.8314  1.6756 -0.2325
   29MOL   H255 8711   1.519   4.342   7.324 -0.4768 -1.2066 -0.4232
   29MOL   H256 8712   1.737   4.456   7.357  1.1490  0.0555 -0.9258
   29MOL   C257 8713   2.013   3.986   7.204 -0.6162 -0.4237 -0.1710
   29MOL   C258 8714   2.037   3.978   7.359  0.5835  0.5241 -0.3006
   29MOL   C259 8715   1.971   3.854   7.405  0.3430  0.4611  0.1012
   29MOL   C260 8716   1.842   3.857   7.462  0.2275  0.2843 -0.3161
   29MOL   C261 8717   1.779   3.741   7.509  0.3375 -0.1127  0.0546
   29MOL   C262 8718   1.849   3.619   7.493 -0.4175  0.1064 -0.0732
   29MOL   C263 8719   1.970   3.621   7.439  0.8177  0.6701 -0.5460
   29MOL   N264 8720   2.028   3.729   7.385 -0.8805  0.4649 -0.5838
   29MOL   H265 8721   2.103   3.940   7.162  0.0032 -0.0088  0.6863
   29MOL   H266 8722   1.928   3.931   7.165  0.5276 -1.4580 -1.2635
   29MOL   H267 8723   1.984   4.061   7.407  0.8926 -0.1004  1.1644
   29MOL   H268 8724   1.785   3.948   7.471 -0.8605 -0.4305  0.1652
   29MOL   H269 8725   1.680   3.756   7.547  0.5884  0.4025  0.5112
   29MOL   H270 8726   1.807   3.525   7.527 -2.9671  1.2153 -0.0896
   29MOL   H271 8727   2.034   3.535   7.427  1.4928  1.2404 -1.0250
   29MOL   C272 8728   2.186   3.996   7.388 -0.0339 -0.3402  0.0415
   29MOL   C273 8729   2.226   4.008   7.536  0.0181  0.2002  0.7139
   29MOL   C274 8730   2.191   3.884   7.620  0.5061 -0.1034 -0.3017
   29MOL   C275 8731   2.071   3.878   7.699 -0.5079 -0.3460 -0.5104
   29MOL   C276 8732   2.046   3.766   7.779  0.3719  0.3907 -0.2680
   29MOL   C277 8733   2.134   3.664   7.768 -0.5711  0.3993 -0.5561
   29MOL   C278 8734   2.246   3.666   7.686  0.1201  0.0059  0.0084
   29MOL   N279 8735   2.277   3.774   7.611  0.7188  0.0647  0.2080
   29MOL   H280 8736   2.238   4.073   7.331 -2.2147  0.8235 -0.4292
   29MOL   H281 8737   2.236   3.910   7.343 -1.1061 -1.4308  0.9249
   29MOL   H282 8738   2.166   4.090   7.577 -1.1340 -0.9989  1.4637
   29MOL   H283 8739   1.999   3.959   7.700  2.0358  2.0062 -0.6109
   29MOL   H284 8740   1.960   3.755   7.844  1.3755 -0.0908  1.0102
   29MOL   H285 8741   2.122   3.575   7.829  1.1239 -0.5937 -1.6209
   29MOL   H286 8742   2.309   3.581   7.665 -1.4823 -0.5532 -2.7584
   29MOL   C287 8743   2.372   4.052   7.560 -0.1801  0.4701  0.3121
   29MOL   C288 8744   2.408   4.063   7.707 -0.2978  0.7355 -0.0276
   29MOL   C289 8745   2.332   4.175   7.783  0.1054 -0.2730  0.2572
   29MOL   C290 8746   2.214   4.148   7.859 -0.0164 -0.5488  0.6054
   29MOL   C291 8747   2.146   4.250   7.929  0.9547  0.5208 -0.3479
   29MOL   C292 8748   2.188   4.383   7.922  0.1437  0.2229 -0.0803
   29MOL   C293 8749   2.306   4.402   7.835  0.3595 -0.0009 -0.0467
   29MOL   N294 8750   2.374   4.303   7.768  0.3574  0.3092  0.0749
   29MOL   H295 8751   2.377   4.157   7.530  0.1431  1.0696  2.3715
   29MOL   H296 8752   2.436   3.983   7.507 -0.3506  0.1575  0.5104
   29MOL   H297 8753   2.513   4.090   7.719  0.0633 -0.8484  0.4639
   29MOL   H298 8754   2.176   4.047   7.873 -1.8964 -0.1072 -1.1322
   29MOL   H299 8755   2.048   4.230   7.969  1.2977  0.9028  0.7187
   29MOL   H300 8756   2.134   4.457   7.980 -1.5777 -1.6722  0.7671
   29MOL   H301 8757   2.345   4.500   7.814 -1.1823  0.6865  0.1969
   29MOL   H302 8758   2.393   3.978   7.773 -0.1087  0.2147 -0.6420
   30MOL     C1 8759   0.373   4.273   3.974 -0.4566  0.5217  0.1511
   30MOL     C2 8760   0.300   4.234   3.850  1.2147 -0.3205  0.6034
   30MOL     C3 8761   0.388   4.235   3.724 -0.6036 -0.4448 -0.5542
   30MOL     C4 8762   0.335   4.290   3.605  0.4463 -0.1802 -0.3505
   30MOL     C5 8763   0.416   4.282   3.491 -0.1677  0.2532 -0.0286
   30MOL     C6 8764   0.536   4.216   3.493 -0.0156 -0.3649  0.1863
   30MOL     C7 8765   0.575   4.159   3.617  0.7112  0.2523  0.4818
   30MOL     N8 8766   0.511   4.177   3.730  0.2457 -0.0336 -0.4466
   30MOL     H9 8767   0.408   4.374   3.954  0.8844  0.0771  0.1485
   30MOL    H10 8768   0.307   4.280   4.060  1.2847  2.4280  1.3855
   30MOL    H11 8769   0.219   4.307   3.843  2.4099  0.9250 -0.3743
   30MOL    H12 8770   0.235   4.330   3.600 -0.3328 -2.2164 -1.5165
   30MOL    H13 8771   0.387   4.332   3.399 -1.0697  1.4736  0.9015
   30MOL    H14 8772   0.597   4.218   3.404  0.0309  2.0799  0.2412
   30MOL    H15 8773   0.672   4.112   3.617  1.5196  1.8950  1.4389
   30MOL    H16 8774   0.462   4.210   3.985 -0.9136 -0.2673 -0.5952
   30MOL    C17 8775   0.231   4.100   3.876 -0.5547 -0.7751  0.3135
   30MOL    C18 8776   0.164   4.024   3.760  0.0891  0.0917  0.2533
   30MOL    C19 8777   0.122   3.889   3.812  0.3748 -0.0228 -0.0371
   30MOL    C20 8778   0.173   3.771   3.751  0.4412  0.3606 -0.6736
   30MOL    C21 8779   0.126   3.649   3.800 -0.3693  0.2903  0.4520
   30MOL    C22 8780   0.011   3.646   3.885 -0.5779  0.9037 -0.6286
   30MOL    C23 8781   8.115   3.769   3.931  0.5404  0.0498  0.2901
   30MOL    N24 8782   0.014   3.888   3.894 -0.5154 -0.0772 -0.3558
   30MOL    H25 8783   0.157   4.119   3.954 -0.6050  0.1390  0.0430
   30MOL    H26 8784   0.301   4.032   3.923 -0.1379 -1.3017 -1.0386
   30MOL    H27 8785   0.242   4.011   3.684 -1.2499  1.0895 -1.3346
   30MOL    H28 8786   0.253   3.779   3.678  0.4787 -0.6230 -0.7437
   30MOL    H29 8787   0.167   3.559   3.757  0.9664  1.3988 -0.6401
   30MOL    H30 8788   8.109   3.557   3.910 -1.1318  1.6127  0.7410
   30MOL    H31 8789   8.019   3.781   3.979  0.3398  0.0097 -0.0931
   30MOL    C32 8790   0.054   4.101   3.689 -0.0616 -0.0871  0.3202
   30MOL    C33 8791   8.119   4.013   3.597 -0.6351  0.4109  0.6107
   30MOL    C34 8792   7.984   4.078   3.566 -0.4072 -0.2214  0.5199
   30MOL    C35 8793   7.869   4.027   3.624  0.2997  0.3451  0.9343
   30MOL    C36 8794   7.743   4.086   3.606 -0.1130  0.8882 -0.0886
   30MOL    C37 8795   7.737   4.192   3.514 -0.2240  0.1282 -0.0203
   30MOL    C38 8796   7.862   4.242   3.462  0.3421 -1.5538  0.0182
   30MOL    N39 8797   7.982   4.190   3.490 -0.1886 -0.3189  0.1467
   30MOL    H40 8798   0.102   4.182   3.635 -0.5422  0.0921  0.1640
   30MOL    H41 8799   8.145   4.154   3.762 -0.6216  0.8005 -0.7755
   30MOL    H42 8800   8.082   3.925   3.650  0.7537  0.3002  1.4153
   30MOL    H43 8801   7.878   3.940   3.687  0.0886  1.0173  1.9023
   30MOL    H44 8802   7.654   4.047   3.654  0.6608  0.8651  1.3725
   30MOL    H45 8803   7.644   4.243   3.495  0.0693  0.5935 -0.2392
   30MOL    H46 8804   7.862   4.329   3.398 -1.2227 -2.6746 -1.5598
   30MOL    C47 8805   0.037   3.973   3.469  0.1123  0.3859  0.2998
   30MOL    C48 8806   8.121   3.868   3.386  0.2891 -1.2025  0.0053
   30MOL    C49 8807   0.025   3.859   3.246 -1.0690 -0.3476 -0.0654
   30MOL    C50 8808   8.101   3.881   3.132  0.3302 -0.4534  0.6014
   30MOL    C51 8809   0.015   3.873   3.007  0.4424 -0.1013 -0.1580
   30MOL    C52 8810   0.157   3.863   3.002 -0.1365  0.0082  0.5969
   30MOL    C53 8811   0.228   3.840   3.125 -0.0679  0.5221  0.7201
   30MOL    N54 8812   0.160   3.831   3.241 -0.1136  0.1143 -0.0339
   30MOL    H55 8813   0.137   3.938   3.493  1.5365  2.4379 -2.2816
   30MOL    H56 8814   0.050   4.064   3.410  0.3190  0.0857 -0.1163
   30MOL    H57 8815   8.018   3.901   3.379  1.0351  1.9555  2.6268
   30MOL    H58 8816   7.997   3.910   3.131  0.2327 -0.6561 -3.0895
   30MOL    H59 8817   8.117   3.891   2.913 -0.2874  0.7785  0.3798
   30MOL    H60 8818   0.216   3.887   2.914  0.8705 -3.5630  0.2445
   30MOL    H61 8819   0.335   3.837   3.135 -0.0074 -1.5018 -0.3275
   30MOL    C62 8820   8.124   3.722   3.445 -0.2308 -1.2869 -0.2618
   30MOL    C63 8821   8.036   3.616   3.381  1.2299  0.8160 -0.1125
   30MOL    C64 8822   8.069   3.479   3.433 -0.0285  0.4593  0.1739
   30MOL    C65 8823   0.002   3.392   3.356 -0.1709  1.1255 -0.3617
   30MOL    C66 8824   0.042   3.263   3.410 -0.5818  0.0654 -0.9064
   30MOL    C67 8825   8.144   3.223   3.538 -0.1284 -0.7735 -0.6092
   30MOL    C68 8826   8.064   3.315   3.606 -0.5759 -0.4736  0.7911
   30MOL    N69 8827   8.030   3.437   3.555 -0.0517 -0.2719 -0.0456
   30MOL    H70 8828   8.094   3.729   3.550  0.3369 -0.3261 -0.1459
   30MOL    H71 8829   0.077   3.694   3.455  0.3127  1.1405  1.2840
   30MOL    H72 8830   8.061   3.609   3.275  0.2263  1.1231 -0.3706
   30MOL    H73 8831   0.045   3.427   3.264  0.1532  2.7722  0.3940
   30MOL    H74 8832   0.116   3.206   3.355 -1.3537 -4.5778  2.5274
   30MOL    H75 8833   0.017   3.135   3.595  0.3497  0.2955  0.8787
   30MOL    H76 8834   8.058   3.300   3.713  0.3389 -1.5771  0.7035
   30MOL    C77 8835   7.885   3.647   3.411  0.4424 -0.2709  0.5061
   30MOL    C78 8836   7.780   3.565   3.333  0.5332  0.2850 -0.7308
   30MOL    C79 8837   7.651   3.544   3.415  0.0981 -0.2315  0.2379
   30MOL    C80 8838   7.611   3.416   3.455  0.5171  0.3413  1.0545
   30MOL    C81 8839   7.498   3.405   3.537  0.1013 -0.3392 -0.7223
   30MOL    C82 8840   7.428   3.521   3.573 -0.0513  0.7020  0.1694
   30MOL    C83 8841   7.481   3.641   3.539  0.4113 -0.2637  0.3498
   30MOL    N84 8842   7.586   3.656   3.450  0.1644 -0.2202 -0.8231
   30MOL    H85 8843   7.871   3.755   3.405 -0.3108 -0.1861  3.4160
   30MOL    H86 8844   7.859   3.638   3.516 -1.4409  0.2955  0.1092
   30MOL    H87 8845   7.823   3.470   3.302  0.1928 -0.7722  1.8821
   30MOL    H88 8846   7.664   3.329   3.419 -2.2078 -1.8790  2.2975
   30MOL    H89 8847   7.454   3.310   3.563 -0.4158  0.4013  1.2433
   30MOL    H90 8848   7.328   3.521   3.614 -0.4926  0.0729 -0.8920
   30MOL    H91 8849   7.431   3.729   3.578  1.3938 -0.3058  1.7525
   30MOL    C92 8850   7.759   3.632   3.198 -1.0168  0.4075  0.4611
   30MOL    C93 8851   7.699   3.543   3.088 -0.5918 -0.0842 -0.3859
   30MOL    C94 8852   7.629   3.627   2.981  0.4065  0.7121  0.5884
   30MOL    C95 8853   7.491   3.608   2.967  0.4146  1.2078  0.2535
   30MOL    C96 8854   7.422   3.693   2.875 -0.1677 -0.3646  0.6400
   30MOL    C97 8855   7.501   3.784   2.794 -0.3062 -0.1435 -1.2661
   30MOL    C98 8856   7.639   3.788   2.810 -0.1659 -0.1821  0.1632
   30MOL    N99 8857   7.700   3.715   2.911 -0.6509  0.3536 -0.3915
   30MOL   H100 8858   7.851   3.679   3.163  0.9397 -3.0646  0.7031
   30MOL   H101 8859   7.697   3.721   3.207 -0.8351  0.7045 -1.0687
   30MOL   H102 8860   7.626   3.476   3.136  0.5736 -1.3429 -0.3408
   30MOL   H103 8861   7.430   3.558   3.040 -0.1669  2.7327  0.8346
   30MOL   H104 8862   7.315   3.692   2.864 -0.0927  1.9432 -0.8083
   30MOL   H105 8863   7.454   3.861   2.735 -0.9177  0.6391  0.2288
   30MOL   H106 8864   7.696   3.868   2.764  3.2852 -1.5119  1.9660
   30MOL   C107 8865   7.805   3.450   3.023  0.3482  0.1429  0.2281
   30MOL   C108 8866   7.777   3.379   2.887  0.1341 -0.0018  0.1298
   30MOL   C109 8867   7.889   3.290   2.838  0.2893 -0.3766  0.1904
   30MOL   C110 8868   7.919   3.268   2.700  0.0617  0.3959 -0.7740
   30MOL   C111 8869   8.017   3.172   2.665  0.1324 -0.8281 -0.5635
   30MOL   C112 8870   8.087   3.106   2.770 -0.6454 -1.0032 -0.3910
   30MOL   C113 8871   8.053   3.144   2.899  0.5877  0.5032 -0.1267
   30MOL   N114 8872   7.956   3.229   2.934 -0.4142 -0.1636 -0.0062
   30MOL   H115 8873   7.820   3.372   3.097 -2.1704 -0.5634  0.0601
   30MOL   H116 8874   7.903   3.498   3.016  1.2602 -1.1700  3.2382
   30MOL   H117 8875   7.766   3.458   2.812 -0.2936 -1.5966 -1.5163
   30MOL   H118 8876   7.859   3.315   2.624  0.4673 -2.1003 -2.7149
   30MOL   H119 8877   8.027   3.141   2.562 -0.9097  0.7912 -1.1663
   30MOL   H120 8878   0.012   3.033   2.748 -0.2487  0.3494 -3.7680
   30MOL   H121 8879   8.094   3.097   2.987 -0.5395  2.2100  1.3467
   30MOL   C122 8880   7.643   3.304   2.889  0.1770 -0.1045  0.1155
   30MOL   C123 8881   7.628   3.179   2.971  0.4518 -0.1972 -1.1252
   30MOL   C124 8882   7.505   3.188   3.054 -0.0926 -0.9715 -0.3863
   30MOL   C125 8883   7.377   3.185   2.995 -0.1661 -0.0308  0.1513
   30MOL   C126 8884   7.268   3.189   3.080  0.2424  1.0559 -0.3252
   30MOL   C127 8885   7.286   3.194   3.222  0.1176  0.0424 -0.1528
   30MOL   C128 8886   7.421   3.200   3.267 -0.1467 -0.0631 -0.2659
   30MOL   N129 8887   7.527   3.201   3.186 -0.9594 -0.2367 -0.5372
   30MOL   H130 8888   7.605   3.287   2.788  1.0060 -0.3175 -0.1602
   30MOL   H131 8889   7.573   3.373   2.935 -0.8243 -1.5439  0.7818
   30MOL   H132 8890   7.716   3.176   3.035  0.5687  2.8588 -1.1015
   30MOL   H133 8891   7.371   3.175   2.888 -2.7611 -2.1290  0.4419
   30MOL   H134 8892   7.166   3.195   3.044 -0.3077  0.6831  1.1337
   30MOL   H135 8893   7.205   3.198   3.293 -1.3603  0.8228 -1.8470
   30MOL   H136 8894   7.444   3.208   3.372  0.3638  0.6195 -0.4298
   30MOL   C137 8895   7.638   3.050   2.888 -0.5990 -0.3016 -0.7502
   30MOL   C138 8896   7.668   2.919   2.960 -0.4047 -0.3481 -0.3555
   30MOL   C139 8897   7.548   2.878   3.040 -0.4148 -0.7800 -0.2366
   30MOL   C140 8898   7.570   2.826   3.170  0.8872 -0.0025  0.5200
   30MOL   C141 8899   7.469   2.766   3.244 -0.0611  0.0249 -0.0639
   30MOL   C142 8900   7.343   2.762   3.188  0.0368 -0.7568  0.0848
   30MOL   C143 8901   7.333   2.824   3.056  0.5293 -0.7247 -0.8148
   30MOL   N144 8902   7.430   2.874   2.978  1.0744 -0.0879  0.1908
   30MOL   H145 8903   7.727   3.072   2.829  1.4123 -1.8812  1.5597
   30MOL   H146 8904   7.551   3.035   2.825 -0.8154  0.5062 -0.6469
   30MOL   H147 8905   7.757   2.936   3.020  0.3655 -1.8970 -1.0414
   30MOL   H148 8906   7.674   2.823   3.200  1.0420 -0.1077 -0.0192
   30MOL   H149 8907   7.485   2.724   3.342  3.0411 -1.2306 -1.0443
   30MOL   H150 8908   7.265   2.716   3.247  0.8121 -0.2570  1.5200
   30MOL   H151 8909   7.233   2.852   3.025 -0.7102 -0.8567  2.8322
   30MOL   C152 8910   7.716   2.802   2.872 -0.1064  0.7358 -0.4508
   30MOL   C153 8911   7.816   2.706   2.926 -0.8836 -0.1956 -0.1165
   30MOL   C154 8912   7.822   2.579   2.843  0.7570  0.6015  0.1500
   30MOL   C155 8913   7.737   2.470   2.874 -0.1557  0.1531  0.1304
   30MOL   C156 8914   7.744   2.352   2.794 -0.9814  0.7078  0.0410
   30MOL   C157 8915   7.831   2.355   2.684  0.5303  0.4212  0.1158
   30MOL   C158 8916   7.903   2.473   2.655  0.1482 -0.1769  0.6672
   30MOL   N159 8917   7.905   2.576   2.740 -0.6808  0.2579  0.1014
   30MOL   H160 8918   7.766   2.829   2.779  0.5335 -1.0195 -0.6265
   30MOL   H161 8919   7.634   2.738   2.841  0.8221 -0.7806  0.1572
   30MOL   H162 8920   7.781   2.663   3.020 -1.9961  2.1110  0.5529
   30MOL   H163 8921   7.666   2.469   2.955 -1.4639 -2.7983 -0.9561
   30MOL   H164 8922   7.680   2.271   2.824  0.4308 -0.1588  0.7692
   30MOL   H165 8923   7.820   2.271   2.617  1.3770  1.1078 -0.9160
   30MOL   H166 8924   7.973   2.459   2.574  0.0215 -2.5577  0.9452
   30MOL   C167 8925   7.950   2.772   2.967 -0.9066 -0.1106  0.4859
   30MOL   C168 8926   8.063   2.669   3.002  0.6340  0.4121 -0.0337
   30MOL   C169 8927   0.035   2.702   2.921  0.2196  0.1402 -0.1039
   30MOL   C170 8928   0.095   2.605   2.837  0.5155 -0.0386  0.0728
   30MOL   C171 8929   0.211   2.645   2.773 -0.1591 -0.2340  0.2812
   30MOL   C172 8930   0.265   2.771   2.793 -0.7097  0.0790 -0.0606
   30MOL   C173 8931   0.201   2.854   2.887  0.1608 -0.2191  0.8367
   30MOL   N174 8932   0.086   2.821   2.949 -0.0514  0.4128  0.4019
   30MOL   H175 8933   7.953   2.847   3.047  3.0591 -1.0229  1.2981
   30MOL   H176 8934   7.987   2.828   2.881  0.8543 -0.3746  1.0514
   30MOL   H177 8935   8.036   2.565   2.979 -1.3179  0.8951 -0.0526
   30MOL   H178 8936   0.043   2.513   2.818 -2.4780  1.5205  0.4722
   30MOL   H179 8937   0.260   2.575   2.707 -0.8652 -0.2820 -0.1944
   30MOL   H180 8938   0.359   2.801   2.750  0.3422 -2.2404  0.5400
   30MOL   H181 8939   0.240   2.951   2.913 -0.6860  0.2074  0.5589
   30MOL   C182 8940   8.104   2.669   3.151  0.2053 -0.7256 -0.5565
   30MOL   C183 8941   7.999   2.623   3.249 -0.0472 -0.6363 -0.4533
   30MOL   C184 8942   7.962   2.478   3.234  1.0054 -0.2779  0.4455
   30MOL   C185 8943   8.064   2.379   3.221  0.1338  0.3530 -0.5741
   30MOL   C186 8944   8.030   2.240   3.204 -0.2098  0.0182  0.2282
   30MOL   C187 8945   7.894   2.217   3.183 -0.0315  0.0924  1.1429
   30MOL   C188 8946   7.795   2.316   3.196  0.0521  0.5501 -0.4392
   30MOL   N189 8947   7.833   2.447   3.215  0.1587  0.6039 -0.2743
   30MOL   H190 8948   8.137   2.768   3.183  1.3534 -1.7696  1.5382
   30MOL   H191 8949   0.038   2.602   3.155  0.8603  0.0763 -0.8722
   30MOL   H192 8950   7.912   2.687   3.233  1.8676  2.8621  2.2421
   30MOL   H193 8951   0.018   2.403   3.227 -0.1616  1.7234 -0.7849
   30MOL   H194 8952   8.103   2.161   3.201  1.4279  1.5554 -2.6557
   30MOL   H195 8953   7.860   2.117   3.163 -0.0595  0.3079  0.0903
   30MOL   H196 8954   7.689   2.297   3.187  0.1237 -0.2491  0.2892
   30MOL   C197 8955   8.028   2.643   3.405  0.9598 -0.0058  0.5908
   30MOL   C198 8956   8.055   2.789   3.460 -0.4161  0.2113 -0.3516
   30MOL   C199 8957   7.973   2.895   3.392  0.0140  0.4190 -0.7527
   30MOL   C200 8958   8.024   2.991   3.304  0.9354 -0.2884 -0.5451
   30MOL   C201 8959   7.947   3.094   3.252  0.2763 -0.0520 -0.2700
   30MOL   C202 8960   7.820   3.113   3.306 -0.0470 -0.5829 -0.5074
   30MOL   C203 8961   7.762   3.016   3.389 -0.5810  0.1263  0.1501
   30MOL   N204 8962   7.838   2.904   3.431 -0.1966 -1.1491 -0.0840
   30MOL   H205 8963   8.110   2.576   3.432  1.0246  0.0906  0.6346
   30MOL   H206 8964   7.946   2.603   3.464  1.0811 -0.3358  0.5378
   30MOL   H207 8965   0.004   2.814   3.426 -1.5510  3.1433 -1.7216
   30MOL   H208 8966   8.128   2.977   3.276  0.5750 -2.0584 -1.0999
   30MOL   H209 8967   7.992   3.179   3.202 -0.6171  0.7264  0.2434
   30MOL   H210 8968   7.764   3.203   3.283 -0.1697 -0.4497  0.3062
   30MOL   H211 8969   7.659   3.017   3.421 -0.7693  2.9322 -0.4147
   30MOL   C212 8970   8.049   2.802   3.611 -0.2433 -0.1119 -0.2422
   30MOL   C213 8971   0.006   2.729   3.688 -0.2211 -0.4417  0.9036
   30MOL   C214 8972   0.145   2.779   3.653  0.7353  0.6416  0.1971
   30MOL   C215 8973   0.243   2.683   3.609  0.4671 -0.0451 -0.3609
   30MOL   C216 8974   0.379   2.719   3.596 -0.7736 -0.5611  0.0695
   30MOL   C217 8975   0.401   2.859   3.597  0.2713 -0.8902  0.0431
   30MOL   C218 8976   0.296   2.948   3.636 -0.0764 -0.6150  0.1352
   30MOL   N219 8977   0.175   2.910   3.671 -0.0234  0.1836  0.2687
   30MOL   H220 8978   7.956   2.759   3.649  0.6851  0.6047  2.9213
   30MOL   H221 8979   8.062   2.905   3.644  0.4722  0.1900 -1.4287
   30MOL   H222 8980   0.007   2.628   3.648  2.4118  1.0589 -3.1659
   30MOL   H223 8981   0.225   2.577   3.598 -0.1251 -0.0064  0.2339
   30MOL   H224 8982   0.459   2.650   3.573 -0.5574 -0.5182  0.6899
   30MOL   H225 8983   0.501   2.898   3.588  0.0884 -0.2647  0.6660
   30MOL   H226 8984   0.311   3.053   3.655  0.1623 -0.2948 -1.7875
   30MOL   C227 8985   8.130   2.718   3.841  0.2648  0.0976  0.0100
   30MOL   C228 8986   8.013   2.630   3.881  0.1202 -0.1522  0.2314
   30MOL   C229 8987   7.990   2.506   3.796 -0.3207 -0.6027 -0.4799
   30MOL   C230 8988   7.888   2.495   3.701  0.9985 -0.0877  0.2988
   30MOL   C231 8989   7.890   2.396   3.609  0.7459  0.2022  0.2322
   30MOL   C232 8990   7.985   2.292   3.626 -0.2324  0.1252  1.0411
   30MOL   C233 8991   8.069   2.299   3.739  0.1018 -0.4706 -0.1192
   30MOL   N234 8992   8.079   2.408   3.816 -0.2956  0.2950 -0.2245
   30MOL   H235 8993   8.123   2.820   3.879  1.0608 -0.1968  0.9674
   30MOL   H236 8994   0.064   2.670   3.888 -0.2377 -1.2393 -0.4332
   30MOL   H237 8995   7.924   2.693   3.871  0.3382  0.6656  3.0185
   30MOL   H238 8996   7.823   2.580   3.686 -0.1570 -1.3428 -2.0822
   30MOL   H239 8997   7.822   2.387   3.526 -0.3942  2.6931  0.8473
   30MOL   H240 8998   7.976   2.194   3.581 -0.0823  0.8639 -0.6398
   30MOL   H241 8999   8.134   2.217   3.764  0.4971 -0.2286 -0.3530
   30MOL   C242 9000   8.011   2.606   4.035  0.0131  0.6793  1.0596
   30MOL   C243 9001   7.877   2.543   4.081  0.4830  0.1258  0.2446
   30MOL   C244 9002   7.912   2.449   4.200 -0.3673  0.2368 -0.4131
   30MOL   C245 9003   7.958   2.320   4.174 -0.7402  0.4929  0.1680
   30MOL   C246 9004   8.002   2.243   4.285  0.0442 -0.1040  0.1789
   30MOL   C247 9005   7.991   2.291   4.418 -0.0977  0.5635 -0.6406
   30MOL   C248 9006   7.946   2.420   4.428 -0.4095  0.5783 -0.2039
   30MOL   N249 9007   7.915   2.503   4.322  0.0731 -1.2995  0.0388
   30MOL   H250 9008   8.028   2.692   4.099  1.4841  0.1846  1.3575
   30MOL   H251 9009   8.097   2.541   4.053 -0.2240 -0.6448 -2.0916
   30MOL   H252 9010   7.829   2.485   4.002 -0.3298 -0.0471  0.8572
   30MOL   H253 9011   7.975   2.293   4.071 -2.1509  1.0931 -0.2251
   30MOL   H254 9012   8.050   2.150   4.258  2.2946  0.5718  1.6571
   30MOL   H255 9013   8.006   2.220   4.498 -1.4961  1.9645  0.8891
   30MOL   H256 9014   7.917   2.477   4.516 -0.5282  0.6238 -0.2712
   30MOL   C257 9015   7.755   2.630   4.117 -0.4033 -0.7429  0.3959
   30MOL   C258 9016   7.657   2.671   4.004  1.3020 -0.5361 -0.0954
   30MOL   C259 9017   7.572   2.562   3.960  1.0186 -0.0306  0.3534
   30MOL   C260 9018   7.580   2.513   3.823 -0.6600 -0.2125 -0.0841
   30MOL   C261 9019   7.492   2.414   3.787 -0.0755  0.2542 -0.2264
   30MOL   C262 9020   7.407   2.357   3.887 -0.0638 -1.0624 -0.1074
   30MOL   C263 9021   7.403   2.409   4.016 -0.1826  0.3596  0.2200
   30MOL   N264 9022   7.488   2.506   4.048  0.4780 -0.3395 -0.0063
   30MOL   H265 9023   7.793   2.714   4.175 -2.1570  0.0506  0.4452
   30MOL   H266 9024   7.696   2.580   4.194 -0.0665 -0.9966  0.4866
   30MOL   H267 9025   7.711   2.713   3.919  1.9231 -0.6214  0.2525
   30MOL   H268 9026   7.631   2.568   3.745 -0.6204 -0.9365 -0.5771
   30MOL   H269 9027   7.496   2.386   3.683  0.3143 -0.9967  0.1094
   30MOL   H270 9028   7.335   2.279   3.867 -0.0753 -0.8365 -0.9322
   30MOL   H271 9029   7.329   2.382   4.090  0.1448 -0.0097  0.4145
   30MOL   C272 9030   7.567   2.793   4.044 -0.3480  0.1299  0.1176
   30MOL   C273 9031   7.628   2.923   4.097 -0.7688  1.1379  0.4826
   30MOL   C274 9032   7.760   2.958   4.026 -0.0069 -0.4136 -0.0067
   30MOL   C275 9033   7.880   2.970   4.098  0.2953  0.4145  0.7233
   30MOL   C276 9034   7.992   3.004   4.021 -0.0128 -0.1715 -0.3308
   30MOL   C277 9035   7.984   3.032   3.885  0.1102 -0.0384  1.1727
   30MOL   C278 9036   7.855   3.016   3.829 -0.2575 -0.5205  0.6258
   30MOL   N279 9037   7.751   2.981   3.893  0.0182  0.1209  0.1466
   30MOL   H280 9038   7.484   2.769   4.111 -0.3626 -1.2872 -0.3921
   30MOL   H281 9039   7.518   2.823   3.952 -1.4732  0.1984  0.7369
   30MOL   H282 9040   7.644   2.895   4.202  2.5979 -0.6990 -0.4454
   30MOL   H283 9041   7.895   2.960   4.205 -0.7258  2.3467  1.0653
   30MOL   H284 9042   8.089   3.004   4.068 -0.1056 -0.9690 -0.1235
   30MOL   H285 9043   8.070   3.059   3.825 -1.0621 -0.7520 -0.8710
   30MOL   H286 9044   7.836   3.038   3.724  1.2760 -1.3324  0.1652
   30MOL   C287 9045   7.531   3.039   4.085 -0.2733  0.5286 -0.0394
   30MOL   C288 9046   7.594   3.179   4.107 -0.4388  0.8931 -0.0104
   30MOL   C289 9047   7.491   3.285   4.100 -0.1352 -0.6133 -0.0219
   30MOL   C290 9048   7.484   3.365   3.985  0.8965  1.0189 -0.4523
   30MOL   C291 9049   7.382   3.461   3.982 -0.1384  0.6160  0.2043
   30MOL   C292 9050   7.310   3.487   4.100  0.7278  0.4071  0.3734
   30MOL   C293 9051   7.324   3.402   4.208  0.4258 -0.0579  0.3984
   30MOL   N294 9052   7.416   3.304   4.210 -0.2765 -0.6827  0.1656
   30MOL   H295 9053   7.451   3.011   4.154  0.5511 -0.0420  0.6969
   30MOL   H296 9054   7.494   3.043   3.983  0.2321  0.6216 -0.2185
   30MOL   H297 9055   7.671   3.196   4.032  1.3023 -0.5535  1.3983
   30MOL   H298 9056   7.539   3.345   3.894 -0.0796 -0.1956 -0.7920
   30MOL   H299 9057   7.365   3.512   3.888 -1.8823 -1.1687 -0.4715
   30MOL   H300 9058   7.240   3.570   4.104 -0.6019 -0.6755  0.0898
   30MOL   H301 9059   7.272   3.429   4.299 -0.3639  0.7614 -0.2868
   30MOL   H302 9060   7.625   3.180   4.212 -1.9760  0.8538  0.4513
   31MOL     C1 9061   4.966   6.697   4.594 -0.6522  0.0726 -0.6578
   31MOL     C2 9062   5.089   6.609   4.636  0.2273 -0.0338 -0.0485
   31MOL     C3 9063   5.114   6.587   4.779  0.0256 -0.2106  0.2555
   31MOL     C4 9064   5.224   6.644   4.847  0.0470 -0.3320 -0.3910
   31MOL     C5 9065   5.241   6.611   4.977 -0.0169  0.3816 -0.5645
   31MOL     C6 9066   5.164   6.509   5.036  0.0964 -0.5843 -0.3943
   31MOL     C7 9067   5.059   6.449   4.959 -0.2763  0.0144  0.4211
   31MOL     N8 9068   5.028   6.498   4.835 -0.0959 -0.1624  0.4693
   31MOL     H9 9069   4.958   6.794   4.643  0.6988  2.2162 -4.4836
   31MOL    H10 9070   4.962   6.724   4.489 -1.1892 -0.3349 -0.7432
   31MOL    H11 9071   5.168   6.679   4.608  1.1905 -0.9877  0.2283
   31MOL    H12 9072   5.283   6.719   4.796  1.2057 -0.3262  0.8987
   31MOL    H13 9073   5.332   6.645   5.024 -0.6137 -0.3717  1.1702
   31MOL    H14 9074   5.186   6.470   5.134 -0.5041  0.6402  0.2508
   31MOL    H15 9075   4.987   6.378   4.995  0.2888 -0.9845 -0.3967
   31MOL    H16 9076   4.869   6.648   4.608 -0.8910  0.6329 -0.3420
   31MOL    C17 9077   5.111   6.486   4.544  0.2648 -0.4229  0.1445
   31MOL    C18 9078   5.135   6.504   4.393 -0.5919 -0.2622  0.0827
   31MOL    C19 9079   5.273   6.559   4.368 -0.2114  0.6008 -0.0801
   31MOL    C20 9080   5.387   6.474   4.387  0.1957 -0.4033  0.2460
   31MOL    C21 9081   5.515   6.525   4.356 -0.5008  0.0572  0.1452
   31MOL    C22 9082   5.534   6.662   4.330 -0.6431  0.1029 -0.4389
   31MOL    C23 9083   5.419   6.740   4.325  0.3898 -0.3574  0.0816
   31MOL    N24 9084   5.296   6.693   4.345 -0.7262  0.3575 -0.2835
   31MOL    H25 9085   5.018   6.429   4.552  0.6427 -1.1143 -0.3032
   31MOL    H26 9086   5.189   6.424   4.589  1.4418  1.3430  0.5607
   31MOL    H27 9087   5.060   6.579   4.367 -0.0916  0.5071  0.8366
   31MOL    H28 9088   5.387   6.367   4.407  0.6904 -0.7702 -1.5739
   31MOL    H29 9089   5.592   6.449   4.351 -1.1760 -0.5090 -2.2732
   31MOL    H30 9090   5.631   6.708   4.318 -0.7556  1.8319  4.1197
   31MOL    H31 9091   5.422   6.843   4.292 -1.4388 -0.5124 -0.5936
   31MOL    C32 9092   5.106   6.380   4.307  0.5612  0.5402 -0.5652
   31MOL    C33 9093   4.961   6.329   4.301  0.6365 -0.2310 -0.3702
   31MOL    C34 9094   4.858   6.445   4.268 -0.2672 -0.0181  0.4037
   31MOL    C35 9095   4.765   6.481   4.368 -0.2501 -0.5999 -0.1436
   31MOL    C36 9096   4.683   6.595   4.348 -0.7393 -0.2399  0.3515
   31MOL    C37 9097   4.701   6.673   4.235  0.3571  0.4564 -0.5622
   31MOL    C38 9098   4.805   6.629   4.146  0.5454  0.1634  0.2410
   31MOL    N39 9099   4.873   6.519   4.157 -0.1898  0.5115 -0.8178
   31MOL    H40 9100   5.162   6.297   4.351  0.6076 -0.0723 -1.7620
   31MOL    H41 9101   5.137   6.399   4.204  0.2399  1.1052 -0.5596
   31MOL    H42 9102   4.943   6.298   4.404  0.1491  2.3397  0.3544
   31MOL    H43 9103   4.763   6.421   4.457  4.6422  0.5643  0.8947
   31MOL    H44 9104   4.622   6.647   4.421 -0.1111  2.8493 -1.2251
   31MOL    H45 9105   4.655   6.767   4.211 -0.4856  0.5645  1.4259
   31MOL    H46 9106   4.831   6.687   4.059 -1.1843  0.1144 -0.3235
   31MOL    C47 9107   4.950   6.200   4.212 -0.0362 -0.2641  0.5484
   31MOL    C48 9108   4.825   6.116   4.216 -0.5495  0.1592  0.4180
   31MOL    C49 9109   4.827   5.991   4.121  0.4894  0.6788 -0.7746
   31MOL    C50 9110   4.734   5.968   4.027 -0.0124  0.4944 -0.3110
   31MOL    C51 9111   4.741   5.851   3.951 -0.6706  0.4738 -0.2053
   31MOL    C52 9112   4.850   5.760   3.971 -0.4401 -0.5639  0.3509
   31MOL    C53 9113   4.943   5.800   4.073  0.1999  0.9828 -0.2702
   31MOL    N54 9114   4.937   5.915   4.143  0.3013 -0.0593  0.6043
   31MOL    H55 9115   5.033   6.131   4.228  0.5183 -0.2423 -1.9714
   31MOL    H56 9116   4.971   6.237   4.111 -1.0972 -1.3955 -0.0861
   31MOL    H57 9117   4.744   6.173   4.170  0.3410  0.2751 -1.0492
   31MOL    H58 9118   4.652   6.033   4.002  1.6151  2.5875 -0.2854
   31MOL    H59 9119   4.673   5.836   3.869  1.0687 -1.9085 -1.2821
   31MOL    H60 9120   4.864   5.669   3.914 -0.8036 -0.6553  0.4082
   31MOL    H61 9121   5.024   5.730   4.088  0.8922  1.8120 -0.1416
   31MOL    C62 9122   4.768   6.077   4.353 -0.1705 -0.2540 -0.0011
   31MOL    C63 9123   4.834   5.978   4.450  0.0110 -0.1743 -1.5331
   31MOL    C64 9124   4.958   6.038   4.522 -0.8471 -0.2051 -0.4644
   31MOL    C65 9125   5.085   5.995   4.480  0.6526 -0.6590  0.4460
   31MOL    C66 9126   5.200   6.055   4.542  0.2027  0.2505 -0.3071
   31MOL    C67 9127   5.182   6.150   4.643 -0.2448 -0.3849 -0.3617
   31MOL    C68 9128   5.054   6.172   4.682  0.1482  0.3205  0.8113
   31MOL    N69 9129   4.943   6.124   4.622  0.0290  0.5923 -0.4967
   31MOL    H70 9130   4.676   6.022   4.331  0.4556 -1.2927 -0.0854
   31MOL    H71 9131   4.731   6.161   4.411 -1.1729 -2.0386  2.0587
   31MOL    H72 9132   4.866   5.887   4.398 -0.4507 -0.2013 -1.7656
   31MOL    H73 9133   5.083   5.918   4.405 -0.8624 -0.8197  0.6352
   31MOL    H74 9134   5.297   6.031   4.502  2.4122  0.4176  4.6184
   31MOL    H75 9135   5.264   6.211   4.678 -1.1565  0.4199  0.3738
   31MOL    H76 9136   5.041   6.244   4.761  0.7149 -0.9152  2.0592
   31MOL    C77 9137   4.724   5.939   4.556 -0.5047 -0.8424 -0.2378
   31MOL    C78 9138   4.627   5.826   4.525 -0.0210  0.5205 -0.4263
   31MOL    C79 9139   4.696   5.688   4.513  0.2642  0.1061  0.7713
   31MOL    C80 9140   4.679   5.610   4.394  0.2888  0.7534 -0.0226
   31MOL    C81 9141   4.740   5.489   4.376 -0.1106 -0.1528 -0.4301
   31MOL    C82 9142   4.803   5.431   4.491  0.1097 -0.5253 -0.0325
   31MOL    C83 9143   4.805   5.508   4.609  0.2771  0.2210 -0.1400
   31MOL    N84 9144   4.755   5.638   4.620 -0.0040 -0.3449 -0.0212
   31MOL    H85 9145   4.666   6.024   4.593  0.7786  0.1445 -0.4343
   31MOL    H86 9146   4.777   5.915   4.649 -2.1037 -2.7421  0.2217
   31MOL    H87 9147   4.597   5.852   4.423 -1.8529  3.7314  0.8702
   31MOL    H88 9148   4.616   5.654   4.317  2.0585  2.8704 -0.3244
   31MOL    H89 9149   4.732   5.422   4.291  0.2654 -0.4824 -0.2087
   31MOL    H90 9150   4.845   5.333   4.478  0.0145 -0.5991  0.2111
   31MOL    H91 9151   4.849   5.468   4.699  0.3382  2.2180  0.7601
   31MOL    C92 9152   4.497   5.832   4.613 -0.4530  0.3983  0.1909
   31MOL    C93 9153   4.393   5.930   4.546  0.8248 -0.1539 -1.0189
   31MOL    C94 9154   4.324   5.857   4.432 -0.0925 -0.5032 -0.3154
   31MOL    C95 9155   4.229   5.756   4.448  0.2837  0.5194  0.1333
   31MOL    C96 9156   4.172   5.693   4.338  0.2399  0.4223 -0.2449
   31MOL    C97 9157   4.211   5.741   4.214 -0.1400 -0.2592 -0.6174
   31MOL    C98 9158   4.309   5.833   4.205  0.5884  0.3652 -0.0887
   31MOL    N99 9159   4.362   5.897   4.311  0.3054 -0.2051  0.0981
   31MOL   H100 9160   4.531   5.848   4.715  3.4723 -1.3937 -0.7579
   31MOL   H101 9161   4.441   5.738   4.618 -1.6092  1.0892  0.3818
   31MOL   H102 9162   4.450   6.010   4.499  1.5890 -0.3485 -0.4260
   31MOL   H103 9163   4.191   5.738   4.548  1.5240  1.3318  0.7613
   31MOL   H104 9164   4.089   5.624   4.339 -0.7078  1.5093 -1.7915
   31MOL   H105 9165   4.165   5.700   4.125  0.0184 -0.1108 -0.7666
   31MOL   H106 9166   4.355   5.857   4.110 -0.9776 -0.2486 -1.0174
   31MOL   C107 9167   4.293   5.982   4.649  0.1605 -0.2263 -0.4882
   31MOL   C108 9168   4.208   6.110   4.604  0.1740 -0.2042 -0.7485
   31MOL   C109 9169   4.091   6.064   4.505  0.0911  0.4923  0.2235
   31MOL   C110 9170   4.081   6.106   4.374 -1.5613  0.2447 -0.3309
   31MOL   C111 9171   3.972   6.065   4.294  0.1829 -0.5532  0.3579
   31MOL   C112 9172   3.883   5.971   4.352 -0.4912  0.6303  0.3918
   31MOL   C113 9173   3.901   5.929   4.487 -0.3541 -0.3708  0.8049
   31MOL   N114 9174   4.005   5.974   4.559 -0.7507  0.3177 -0.3813
   31MOL   H115 9175   4.336   6.010   4.745 -2.3564  0.7482  0.4117
   31MOL   H116 9176   4.226   5.904   4.686 -1.8877  2.2691  1.2429
   31MOL   H117 9177   4.275   6.173   4.546  0.8939 -0.9183 -0.7017
   31MOL   H118 9178   4.161   6.164   4.332 -1.5266 -0.3818 -1.1466
   31MOL   H119 9179   3.959   6.109   4.196  2.2551  0.0899  0.3606
   31MOL   H120 9180   3.796   5.934   4.300 -0.6726  0.4868  0.7938
   31MOL   H121 9181   3.825   5.877   4.543  2.3648 -0.6342  4.4363
   31MOL   C122 9182   4.148   6.191   4.713 -0.0539 -0.6534  0.1488
   31MOL   C123 9183   4.245   6.238   4.824  0.4835  1.0329  0.6121
   31MOL   C124 9184   4.371   6.298   4.762  0.7626 -0.0263 -0.3231
   31MOL   C125 9185   4.498   6.234   4.776 -0.4429  0.5613 -0.2273
   31MOL   C126 9186   4.614   6.293   4.728 -0.6642  0.1279  0.5200
   31MOL   C127 9187   4.597   6.423   4.675  0.7556  0.9749 -0.0823
   31MOL   C128 9188   4.464   6.481   4.652 -0.1479 -0.2190 -0.3934
   31MOL   N129 9189   4.359   6.419   4.704 -0.5149 -0.4279 -0.4844
   31MOL   H130 9190   4.059   6.143   4.754 -0.8192 -1.2891 -2.1653
   31MOL   H131 9191   4.102   6.281   4.672  0.8204 -0.8533 -1.2954
   31MOL   H132 9192   4.274   6.149   4.880  0.2473  0.2940 -0.4342
   31MOL   H133 9193   4.500   6.138   4.825 -0.3834 -0.5648 -2.3876
   31MOL   H134 9194   4.713   6.253   4.745  0.2712  2.5413  1.0722
   31MOL   H135 9195   4.682   6.486   4.653  1.8033 -0.8782 -1.4247
   31MOL   H136 9196   4.447   6.574   4.601 -1.9889 -0.5564 -0.4300
   31MOL   C137 9197   4.174   6.347   4.916 -0.0820  0.0093 -0.3698
   31MOL   C138 9198   4.039   6.315   4.968 -0.7160 -0.4308  0.5331
   31MOL   C139 9199   4.044   6.185   5.054 -0.0744  0.0144  0.3850
   31MOL   C140 9200   3.946   6.090   5.034 -0.4586 -0.0141  0.0140
   31MOL   C141 9201   3.939   5.968   5.106  0.4215  0.7244 -0.7496
   31MOL   C142 9202   4.040   5.954   5.204  0.0195 -0.0630 -0.3336
   31MOL   C143 9203   4.141   6.052   5.222 -0.6483  0.5697 -0.5784
   31MOL   N144 9204   4.138   6.171   5.151 -0.7924 -0.2533  0.7806
   31MOL   H145 9205   4.171   6.449   4.877  0.0644 -0.5193 -1.7893
   31MOL   H146 9206   4.238   6.350   5.004 -0.0202 -1.2633 -0.3621
   31MOL   H147 9207   3.976   6.311   4.879  1.5790 -0.1502 -1.1775
   31MOL   H148 9208   3.878   6.109   4.953 -0.3422  0.7229  0.0796
   31MOL   H149 9209   3.858   5.904   5.074  2.3775 -2.0661 -0.2343
   31MOL   H150 9210   4.038   5.868   5.269 -0.0928 -0.7577 -1.2318
   31MOL   H151 9211   4.221   6.056   5.295 -1.7157  0.9501  0.6023
   31MOL   C152 9212   3.990   6.433   5.059 -0.3069 -0.6886  0.2333
   31MOL   C153 9213   3.841   6.461   5.078  0.7369  0.2377  0.2258
   31MOL   C154 9214   3.769   6.337   5.122  0.8565  0.0995  0.1739
   31MOL   C155 9215   3.764   6.297   5.256 -0.0338  0.0940 -0.0545
   31MOL   C156 9216   3.682   6.188   5.292 -0.2050 -0.3040 -0.2509
   31MOL   C157 9217   3.619   6.114   5.197 -0.4479 -0.3615 -0.1724
   31MOL   C158 9218   3.626   6.164   5.065 -0.2508 -0.5108 -0.4601
   31MOL   N159 9219   3.702   6.271   5.022 -0.1953  0.6234 -0.2001
   31MOL   H160 9220   4.022   6.526   5.011 -0.2705  0.4047  2.3208
   31MOL   H161 9221   4.037   6.434   5.157  0.1746 -1.2297  0.0095
   31MOL   H162 9222   3.803   6.487   4.979 -0.5656 -0.2589  0.5905
   31MOL   H163 9223   3.822   6.350   5.330  0.8360 -2.0852  0.8568
   31MOL   H164 9224   3.682   6.162   5.396  0.9168 -0.3029 -0.2443
   31MOL   H165 9225   3.551   6.034   5.222  0.1234  0.0082  2.6924
   31MOL   H166 9226   3.560   6.116   4.995 -0.7539 -0.9415  0.3078
   31MOL   C167 9227   3.802   6.583   5.166 -0.0832  0.1091  0.6927
   31MOL   C168 9228   3.851   6.722   5.112 -0.9745 -0.6754 -0.5200
   31MOL   C169 9229   3.748   6.796   5.028 -0.4908  0.4563  0.2078
   31MOL   C170 9230   3.781   6.841   4.907  0.7409 -0.0696  0.6770
   31MOL   C171 9231   3.697   6.931   4.846 -0.1582  0.1055 -0.5693
   31MOL   C172 9232   3.574   6.967   4.905  0.3506 -0.4446  0.5830
   31MOL   C173 9233   3.543   6.903   5.029  0.3103  0.0541  0.2002
   31MOL   N174 9234   3.630   6.821   5.090 -0.2599 -0.0615  0.2194
   31MOL   H175 9235   3.839   6.585   5.268 -0.7059  1.3879  0.9019
   31MOL   H176 9236   3.694   6.591   5.175 -0.5454 -1.1767 -2.7666
   31MOL   H177 9237   3.931   6.704   5.040 -0.7652 -2.1054  0.0597
   31MOL   H178 9238   3.875   6.815   4.859  0.0639  1.7019 -1.6861
   31MOL   H179 9239   3.725   6.986   4.757  2.1686  2.6694  1.6620
   31MOL   H180 9240   3.502   7.033   4.860  0.1592 -1.2123 -0.2415
   31MOL   H181 9241   3.458   6.942   5.082 -1.6644 -0.8117 -2.2592
   31MOL   C182 9242   3.923   6.810   5.220  0.4655  0.0149 -0.0484
   31MOL   C183 9243   4.071   6.775   5.246 -0.1179  0.4997  0.7680
   31MOL   C184 9244   4.158   6.764   5.122 -0.4193 -0.4620  0.0910
   31MOL   C185 9245   4.228   6.652   5.089  0.7591  0.0678 -0.1671
   31MOL   C186 9246   4.315   6.657   4.978  0.0787  0.2132 -0.1391
   31MOL   C187 9247   4.323   6.772   4.903 -0.7090  0.6054 -0.5582
   31MOL   C188 9248   4.244   6.882   4.941  0.2497 -0.0863 -0.1086
   31MOL   N189 9249   4.161   6.877   5.048 -0.3263 -0.0275  0.2844
   31MOL   H190 9250   3.868   6.815   5.314 -0.1620  1.1259 -0.4666
   31MOL   H191 9251   3.917   6.913   5.185 -0.0228  0.4546  1.3314
   31MOL   H192 9252   4.073   6.670   5.275 -1.4265 -0.2026 -1.6224
   31MOL   H193 9253   4.222   6.564   5.150  2.6626  0.2666  0.3362
   31MOL   H194 9254   4.378   6.572   4.955 -1.6505 -0.8312 -1.0681
   31MOL   H195 9255   4.380   6.765   4.811 -0.2830  0.5172 -0.2877
   31MOL   H196 9256   4.243   6.969   4.878 -0.2681  0.4711  0.6535
   31MOL   C197 9257   4.145   6.862   5.355  0.4253  0.3649 -0.8450
   31MOL   C198 9258   4.283   6.814   5.402 -0.3066 -0.2448 -0.9629
   31MOL   C199 9259   4.380   6.929   5.394  0.6752 -0.7344 -0.4598
   31MOL   C200 9260   4.487   6.913   5.305 -0.9545 -0.0042 -0.9467
   31MOL   C201 9261   4.586   7.010   5.301  0.6979 -0.4116  0.7085
   31MOL   C202 9262   4.566   7.129   5.375  0.0118  0.0928  0.5423
   31MOL   C203 9263   4.453   7.136   5.458 -0.0302  0.3710 -0.2965
   31MOL   N204 9264   4.359   7.041   5.466  0.5986 -0.2097 -0.2330
   31MOL   H205 9265   4.078   6.869   5.441 -0.3111  0.5909 -1.4302
   31MOL   H206 9266   4.148   6.964   5.317  0.6180  1.1861  1.3066
   31MOL   H207 9267   4.328   6.734   5.343  0.7885  1.0402 -1.8879
   31MOL   H208 9268   4.495   6.823   5.245  0.8645 -0.7000  0.2972
   31MOL   H209 9269   4.678   6.989   5.248  0.6645 -0.5079  0.6875
   31MOL   H210 9270   4.637   7.210   5.386  0.2725 -0.2434  1.3837
   31MOL   H211 9271   4.441   7.218   5.527  0.3152  1.4670 -1.5241
   31MOL   C212 9272   4.280   6.765   5.543  0.7089  0.1844 -0.0218
   31MOL   C213 9273   4.227   6.621   5.574  0.9650  0.0905  0.2110
   31MOL   C214 9274   4.317   6.511   5.518 -0.0554  0.0945 -0.0268
   31MOL   C215 9275   4.268   6.431   5.410 -0.4070  0.1028  0.4672
   31MOL   C216 9276   4.354   6.338   5.354 -0.2034  0.1970  0.7990
   31MOL   C217 9277   4.487   6.324   5.400 -0.6082  1.1689 -0.3261
   31MOL   C218 9278   4.525   6.404   5.510 -0.5810  0.4846  0.1711
   31MOL   N219 9279   4.442   6.490   5.571  0.0560 -0.0547 -0.1302
   31MOL   H220 9280   4.226   6.842   5.599  0.5687 -0.0639  0.1880
   31MOL   H221 9281   4.379   6.763   5.590  0.2736  2.1322  1.0802
   31MOL   H222 9282   4.133   6.596   5.525  1.4626  1.1126 -1.3189
   31MOL   H223 9283   4.170   6.445   5.369 -0.2309  1.9877  0.6611
   31MOL   H224 9284   4.318   6.277   5.272 -1.1727  1.7474  0.0387
   31MOL   H225 9285   4.553   6.254   5.351 -1.9558 -1.6805  1.7832
   31MOL   H226 9286   4.617   6.400   5.567  0.3458 -2.8541 -1.4765
   31MOL   C227 9287   4.201   6.599   5.724 -0.0077  0.7531 -0.6899
   31MOL   C228 9288   4.067   6.651   5.776  0.4359 -0.0686  0.4141
   31MOL   C229 9289   3.952   6.594   5.695 -0.0590 -0.2410  0.4369
   31MOL   C230 9290   3.866   6.684   5.625  0.1563  0.0989 -0.7338
   31MOL   C231 9291   3.774   6.630   5.539  0.2117  0.1099  1.1238
   31MOL   C232 9292   3.754   6.493   5.534 -0.2727 -0.1207 -0.0298
   31MOL   C233 9293   3.839   6.412   5.612  0.0049 -0.0067 -0.6467
   31MOL   N234 9294   3.945   6.459   5.693  0.0258 -0.2518  0.2618
   31MOL   H235 9295   4.294   6.623   5.775  0.5998 -2.2555 -0.2454
   31MOL   H236 9296   4.195   6.490   5.732  1.2249  0.8820  2.5751
   31MOL   H237 9297   4.059   6.758   5.758 -0.6087 -0.0928  0.6826
   31MOL   H238 9298   3.885   6.789   5.647  0.4813 -0.0212 -0.4342
   31MOL   H239 9299   3.710   6.699   5.486 -0.4780 -0.9792  0.5017
   31MOL   H240 9300   3.672   6.443   5.484 -0.6398  0.2663  0.1713
   31MOL   H241 9301   3.828   6.305   5.618  0.1781  0.0194  0.2398
   31MOL   C242 9302   4.052   6.619   5.926 -0.0277  0.1742  0.2573
   31MOL   C243 9303   4.137   6.714   6.013  0.3407 -0.2736 -0.1619
   31MOL   C244 9304   4.056   6.841   6.029 -0.5905 -0.0578  0.0553
   31MOL   C245 9305   3.972   6.869   6.144 -0.7102  0.3239  0.2401
   31MOL   C246 9306   3.903   6.991   6.147  0.1542 -0.9706  0.2782
   31MOL   C247 9307   3.924   7.083   6.034  0.1532  0.5851  0.0923
   31MOL   C248 9308   4.001   7.048   5.925  0.2277 -0.3995  0.7701
   31MOL   N249 9309   4.078   6.931   5.928 -0.3315  0.5388  0.4037
   31MOL   H250 9310   4.087   6.517   5.942  1.7757  0.7194  0.0059
   31MOL   H251 9311   3.949   6.618   5.959 -0.3108  1.1180 -0.5766
   31MOL   H252 9312   4.234   6.732   5.966  0.2370 -1.2659 -0.7769
   31MOL   H253 9313   3.960   6.796   6.223  1.6844  1.4116  1.6736
   31MOL   H254 9314   3.847   7.025   6.233 -1.1512  4.1057 -2.4422
   31MOL   H255 9315   3.870   7.176   6.034 -4.4844 -1.9442  1.0099
   31MOL   H256 9316   4.024   7.107   5.837  1.9781 -1.3576  0.5479
   31MOL   C257 9317   4.169   6.642   6.147 -0.1154 -0.0135  0.2982
   31MOL   C258 9318   4.286   6.531   6.139 -0.1172  0.1559 -0.1094
   31MOL   C259 9319   4.408   6.575   6.057  0.1162  0.0715 -0.3239
   31MOL   C260 9320   4.457   6.490   5.956 -0.9198 -0.2767 -0.2468
   31MOL   C261 9321   4.575   6.523   5.890 -0.7077  0.1570 -0.4919
   31MOL   C262 9322   4.642   6.641   5.937 -0.8905  0.6026 -0.0361
   31MOL   C263 9323   4.584   6.720   6.035 -0.1522 -0.1058  0.1779
   31MOL   N264 9324   4.469   6.694   6.096  0.7381 -0.0500  0.4734
   31MOL   H265 9325   4.083   6.587   6.184 -0.3545 -0.5234 -0.9727
   31MOL   H266 9326   4.194   6.715   6.224 -0.4985  0.4537 -0.0135
   31MOL   H267 9327   4.246   6.438   6.098 -0.0335  0.3082 -0.5445
   31MOL   H268 9328   4.410   6.395   5.935 -0.9245 -0.7166  1.6535
   31MOL   H269 9329   4.620   6.463   5.812  0.0828 -0.8750  0.7555
   31MOL   H270 9330   4.735   6.675   5.893 -0.6402  0.1899  0.1822
   31MOL   H271 9331   4.637   6.802   6.083 -1.2058 -0.8555  2.7091
   31MOL   C272 9332   4.339   6.500   6.285  0.1205  0.0370 -0.2884
   31MOL   C273 9333   4.266   6.388   6.363  0.1356  0.1843  0.8151
   31MOL   C274 9334   4.264   6.253   6.285  0.1156 -0.1305  0.2235
   31MOL   C275 9335   4.142   6.218   6.226 -0.2968  0.0174  0.4352
   31MOL   C276 9336   4.146   6.119   6.128 -0.4473  0.2349  0.0066
   31MOL   C277 9337   4.270   6.048   6.109 -0.2173  0.5054  0.2552
   31MOL   C278 9338   4.386   6.083   6.185  1.4594  0.3728 -0.1951
   31MOL   N279 9339   4.382   6.192   6.265 -0.2820  0.1867 -0.0705
   31MOL   H280 9340   4.365   6.588   6.344 -0.0488 -0.4973  0.5902
   31MOL   H281 9341   4.434   6.449   6.266 -0.9513 -2.0266 -0.3217
   31MOL   H282 9342   4.160   6.415   6.370  0.9917  3.1137  3.6491
   31MOL   H283 9343   4.047   6.263   6.250 -1.4449 -2.2670  0.3010
   31MOL   H284 9344   4.059   6.083   6.076 -0.8529  1.4654 -0.1746
   31MOL   H285 9345   4.278   5.963   6.042  0.2232  1.1510 -0.5150
   31MOL   H286 9346   4.478   6.026   6.178 -0.4907 -2.6474 -3.2310
   31MOL   C287 9347   4.308   6.371   6.509  0.2197  0.0405  0.2170
   31MOL   C288 9348   4.269   6.488   6.603  0.4487 -0.1866  0.3826
   31MOL   C289 9349   4.315   6.458   6.741 -0.0952 -0.5060 -0.2534
   31MOL   C290 9350   4.234   6.387   6.838 -0.3097  0.2426  0.1584
   31MOL   C291 9351   4.301   6.345   6.952 -0.2147  0.3384 -0.1536
   31MOL   C292 9352   4.432   6.368   6.965  0.0350  0.2263 -0.0761
   31MOL   C293 9353   4.504   6.437   6.868 -0.4427  0.1965 -0.4023
   31MOL   N294 9354   4.447   6.484   6.760  0.2698 -0.3961  0.1152
   31MOL   H295 9355   4.416   6.361   6.523  0.8496 -1.2001 -4.5002
   31MOL   H296 9356   4.266   6.276   6.541  0.9125 -0.0661  0.8493
   31MOL   H297 9357   4.161   6.503   6.600  0.4447 -0.0343  1.1519
   31MOL   H298 9358   4.134   6.369   6.803 -0.1683  2.4848 -1.5435
   31MOL   H299 9359   4.248   6.303   7.036 -2.3581  1.0337 -1.1119
   31MOL   H300 9360   4.483   6.318   7.046 -1.0111 -3.4797 -1.5921
   31MOL   H301 9361   4.609   6.454   6.889 -0.0618 -1.2951 -1.0260
   31MOL   H302 9362   4.317   6.578   6.564  0.9442 -0.9240 -0.7494
   32MOL     C1 9363   0.724   4.266   2.993  0.0473  0.2045  0.2287
   32MOL     C2 9364   0.595   4.209   3.047  0.1104 -0.1502  0.2310
   32MOL     C3 9365   0.609   4.070   3.105  0.5130 -0.2432  0.2239
   32MOL     C4 9366   0.571   3.957   3.035 -0.2109 -0.3900 -0.0173
   32MOL     C5 9367   0.588   3.833   3.098 -0.4795  0.5192  0.7004
   32MOL     C6 9368   0.626   3.825   3.234  0.2271  0.2563  0.1248
   32MOL     C7 9369   0.659   3.944   3.297  0.8072 -0.2053  0.0700
   32MOL     N8 9370   0.664   4.061   3.229  0.2621  0.2294  0.1890
   32MOL     H9 9371   0.746   4.194   2.915 -0.2480 -1.9780  2.1285
   32MOL    H10 9372   0.709   4.367   2.955 -0.1820 -0.2951 -1.0116
   32MOL    H11 9373   0.530   4.204   2.960 -0.0310 -1.1579  0.3834
   32MOL    H12 9374   0.538   3.963   2.933  0.0912  1.0429 -0.0341
   32MOL    H13 9375   0.580   3.740   3.044  1.2521  1.6101 -1.5451
   32MOL    H14 9376   0.618   3.735   3.293  0.6175  1.0425  1.3960
   32MOL    H15 9377   0.689   3.946   3.400 -3.6186  1.2126  1.4410
   32MOL    H16 9378   0.799   4.264   3.073  0.6089 -1.3082 -0.3354
   32MOL    C17 9379   0.529   4.310   3.145 -0.1785 -0.0418 -0.8543
   32MOL    C18 9380   0.436   4.414   3.084 -0.2395  0.0413  0.3668
   32MOL    C19 9381   0.301   4.349   3.052  0.6166  0.3964 -0.7974
   32MOL    C20 9382   0.276   4.305   2.918  0.6045  0.2100 -0.3503
   32MOL    C21 9383   0.147   4.246   2.893  0.5219  1.5604  0.1380
   32MOL    C22 9384   0.054   4.229   3.001 -0.3374  0.1377 -1.1148
   32MOL    C23 9385   0.097   4.276   3.129 -0.3237  0.4639  0.0316
   32MOL    N24 9386   0.219   4.336   3.159  0.0446 -0.2323  0.4358
   32MOL    H25 9387   0.605   4.364   3.202  2.9485 -3.5450 -1.4985
   32MOL    H26 9388   0.465   4.256   3.215 -3.1249  0.9066 -2.7217
   32MOL    H27 9389   0.484   4.449   2.993  1.1207 -0.9863  0.6681
   32MOL    H28 9390   0.355   4.321   2.846  0.2031  1.8788 -0.4368
   32MOL    H29 9391   0.111   4.213   2.796 -2.3904 -0.1974  1.7211
   32MOL    H30 9392   8.107   4.192   2.981 -0.9102  0.5779  0.8473
   32MOL    H31 9393   0.021   4.277   3.205 -2.6374 -0.3992 -2.1977
   32MOL    C32 9394   0.418   4.539   3.172 -0.3118 -0.5965  0.4329
   32MOL    C33 9395   0.536   4.632   3.212 -0.1729 -0.5983 -0.2842
   32MOL    C34 9396   0.625   4.670   3.095 -1.0085  0.7191  0.0992
   32MOL    C35 9397   0.760   4.635   3.090  0.2512 -0.5297 -0.2327
   32MOL    C36 9398   0.838   4.681   2.980 -0.5576 -0.0010  0.0100
   32MOL    C37 9399   0.772   4.762   2.884 -0.4746  0.4301 -0.2582
   32MOL    C38 9400   0.636   4.774   2.886 -0.4929  0.4174  0.1102
   32MOL    N39 9401   0.560   4.725   2.985  0.1881 -0.3585 -0.5160
   32MOL    H40 9402   0.367   4.510   3.263  1.0618  0.4016  1.5410
   32MOL    H41 9403   0.344   4.602   3.121 -1.2353 -2.0339 -0.0318
   32MOL    H42 9404   0.601   4.578   3.281 -0.0630 -1.7929 -1.2996
   32MOL    H43 9405   0.807   4.581   3.170  2.2174 -0.6203 -1.4185
   32MOL    H44 9406   0.945   4.669   2.975 -0.6643 -0.7617 -0.5849
   32MOL    H45 9407   0.823   4.813   2.803 -1.9100  1.2973 -0.6322
   32MOL    H46 9408   0.580   4.839   2.820  0.2570  0.5652 -0.3796
   32MOL    C47 9409   0.502   4.762   3.284 -0.2988  0.3911 -1.0170
   32MOL    C48 9410   0.455   4.755   3.436  0.1820 -0.3167  0.2798
   32MOL    C49 9411   0.555   4.712   3.531 -0.0798 -0.8262 -0.1365
   32MOL    C50 9412   0.537   4.605   3.617 -0.6274 -0.4792 -0.2438
   32MOL    C51 9413   0.637   4.555   3.701 -0.0449  0.5467  0.2604
   32MOL    C52 9414   0.761   4.621   3.705 -0.2683 -0.4632  0.8631
   32MOL    C53 9415   0.770   4.730   3.614 -0.3944 -0.0498 -0.2245
   32MOL    N54 9416   0.678   4.774   3.528 -0.2688  0.9149  0.3390
   32MOL    H55 9417   0.427   4.808   3.220 -1.4946  0.1081  0.1732
   32MOL    H56 9418   0.588   4.829   3.280  1.3618 -1.6092 -0.1773
   32MOL    H57 9419   0.376   4.680   3.438  1.1567 -1.3451  0.0053
   32MOL    H58 9420   0.446   4.547   3.608 -1.3694  0.4460  1.0867
   32MOL    H59 9421   0.616   4.478   3.773 -2.0556 -0.6731 -1.5652
   32MOL    H60 9422   0.837   4.592   3.775  0.9837 -0.1864 -0.3558
   32MOL    H61 9423   0.860   4.790   3.616 -1.1428  1.2717 -3.7849
   32MOL    C62 9424   0.388   4.891   3.474 -0.0124 -0.0252 -0.3808
   32MOL    C63 9425   0.264   4.938   3.391  0.1122 -0.6603  0.6381
   32MOL    C64 9426   0.171   4.816   3.371  0.1443 -0.0446  0.4777
   32MOL    C65 9427   0.145   4.768   3.241  0.0967 -0.0970 -0.7126
   32MOL    C66 9428   0.069   4.651   3.230  0.4115  0.2253 -0.0005
   32MOL    C67 9429   0.026   4.580   3.347 -0.3261 -0.0888  0.9447
   32MOL    C68 9430   0.054   4.641   3.475  0.0086  0.2395  0.6018
   32MOL    N69 9431   0.120   4.762   3.483 -0.5099  0.3201 -0.6295
   32MOL    H70 9432   0.455   4.976   3.471 -1.2263  0.9757  0.2545
   32MOL    H71 9433   0.359   4.889   3.579  0.8511 -1.5858 -0.1596
   32MOL    H72 9434   0.314   4.970   3.300  0.7563 -2.2956  0.3984
   32MOL    H73 9435   0.173   4.823   3.153  1.0276 -1.0367 -1.0278
   32MOL    H74 9436   0.046   4.606   3.134 -0.0432 -0.7576  0.5743
   32MOL    H75 9437   8.121   4.488   3.340 -0.6974  0.1063  1.3868
   32MOL    H76 9438   0.006   4.610   3.567 -0.0313 -2.8003 -0.3896
   32MOL    C77 9439   0.188   5.059   3.449 -0.0966 -0.1884  0.2939
   32MOL    C78 9440   0.271   5.193   3.489  0.0534 -0.0036  0.9815
   32MOL    C79 9441   0.333   5.248   3.357  0.3475 -0.2583 -0.5393
   32MOL    C80 9442   0.475   5.238   3.337 -0.0085 -0.1509  0.0309
   32MOL    C81 9443   0.530   5.246   3.206  0.4458 -0.0044  0.1392
   32MOL    C82 9444   0.437   5.277   3.108 -0.0288  0.4601  0.3944
   32MOL    C83 9445   0.305   5.310   3.140 -0.6310  0.4386  0.4061
   32MOL    N84 9446   0.251   5.295   3.261  0.3379 -0.1225  0.2624
   32MOL    H85 9447   0.128   5.033   3.536  0.6762 -0.5204  0.7263
   32MOL    H86 9448   0.122   5.083   3.365 -1.5232 -1.2366  1.0856
   32MOL    H87 9449   0.354   5.147   3.544  0.2535  1.0419  1.5643
   32MOL    H88 9450   0.541   5.212   3.418  1.3566  1.8798 -0.4042
   32MOL    H89 9451   0.633   5.231   3.177  0.2033 -0.4468 -0.5155
   32MOL    H90 9452   0.477   5.275   3.008 -0.7241  0.1505  0.1187
   32MOL    H91 9453   0.244   5.356   3.064 -0.2445  0.5813  0.1798
   32MOL    C92 9454   0.199   5.291   3.581 -0.7342 -0.8216 -0.5787
   32MOL    C93 9455   0.264   5.428   3.615 -0.0637 -0.3047  0.1859
   32MOL    C94 9456   0.159   5.530   3.652  0.9466  0.0798  0.3834
   32MOL    C95 9457   0.150   5.660   3.593 -0.0063  0.3928 -0.3927
   32MOL    C96 9458   0.042   5.741   3.627  0.2754 -0.0704 -0.5025
   32MOL    C97 9459   8.107   5.699   3.730 -0.0885  0.0739  0.1791
   32MOL    C98 9460   8.134   5.577   3.792  0.0322 -0.0751  0.2229
   32MOL    N99 9461   0.074   5.489   3.755 -0.1456 -0.4832  0.6440
   32MOL   H100 9462   0.172   5.241   3.673  0.9194 -0.9652 -0.1589
   32MOL   H101 9463   0.106   5.322   3.533  1.6256  3.6464 -2.6704
   32MOL   H102 9464   0.298   5.455   3.515  0.8287 -1.9368  0.0372
   32MOL   H103 9465   0.216   5.691   3.514  0.5808  0.2069  0.0223
   32MOL   H104 9466   0.029   5.840   3.584  2.8270 -0.1763 -1.6005
   32MOL   H105 9467   8.022   5.760   3.757  1.5297  3.0056 -1.1325
   32MOL   H106 9468   8.071   5.545   3.873  2.3981 -1.0823  1.7145
   32MOL   C107 9469   0.380   5.414   3.712 -0.4070 -0.2515 -0.2353
   32MOL   C108 9470   0.471   5.537   3.753  0.8053  0.2049  0.4712
   32MOL   C109 9471   0.425   5.603   3.887  0.2573 -0.3079 -0.0716
   32MOL   C110 9472   0.385   5.736   3.885  0.3214  0.1632 -0.4622
   32MOL   C111 9473   0.354   5.796   4.011  0.0213  0.5406  0.0150
   32MOL   C112 9474   0.368   5.717   4.128 -0.2240  0.2302  0.0435
   32MOL   C113 9475   0.413   5.586   4.114  0.0636  0.1402 -0.2434
   32MOL   N114 9476   0.434   5.526   3.999  0.1956 -0.1250  0.3968
   32MOL   H115 9477   0.444   5.344   3.658 -1.1434 -1.0900 -0.0453
   32MOL   H116 9478   0.350   5.351   3.796 -3.6315  1.1733 -0.2481
   32MOL   H117 9479   0.458   5.615   3.679 -0.7494 -1.8137 -1.4560
   32MOL   H118 9480   0.388   5.802   3.800 -0.3311  2.1486  1.0098
   32MOL   H119 9481   0.333   5.900   4.030  1.4767  0.4642  2.1527
   32MOL   H120 9482   0.341   5.759   4.224  0.6388  0.9543 -0.0215
   32MOL   H121 9483   0.422   5.529   4.205 -0.1254 -0.3442 -0.5251
   32MOL   C122 9484   0.627   5.510   3.740  0.2560 -0.2841  0.5056
   32MOL   C123 9485   0.695   5.417   3.844 -0.1494  0.2080 -0.6224
   32MOL   C124 9486   0.647   5.276   3.810  0.5361  0.0175 -0.6045
   32MOL   C125 9487   0.567   5.204   3.895  0.6164  0.2932  0.0866
   32MOL   C126 9488   0.547   5.065   3.870 -0.6317  0.3169  0.6725
   32MOL   C127 9489   0.582   5.020   3.747  0.6396 -0.0531  0.2366
   32MOL   C128 9490   0.653   5.101   3.661  0.0992 -0.5346  0.4378
   32MOL   N129 9491   0.688   5.229   3.688 -0.0153 -0.4040 -0.5266
   32MOL   H130 9492   0.684   5.599   3.766  0.0166 -0.6008  2.1791
   32MOL   H131 9493   0.657   5.480   3.640 -0.3435  1.0418 -0.0741
   32MOL   H132 9494   0.658   5.439   3.944 -1.1394  2.6696 -1.4899
   32MOL   H133 9495   0.532   5.248   3.988 -0.1636  0.4182 -0.2583
   32MOL   H134 9496   0.494   5.000   3.938  1.6374  0.8517  3.0338
   32MOL   H135 9497   0.561   4.917   3.721 -0.5732  0.2441 -0.0060
   32MOL   H136 9498   0.700   5.076   3.567 -1.7468  0.5438 -0.7904
   32MOL   C137 9499   0.853   5.418   3.859 -0.2739  0.3599 -0.1510
   32MOL   C138 9500   0.922   5.556   3.876  0.4588  0.2073 -0.9280
   32MOL   C139 9501   0.889   5.632   4.009  0.9904  0.5056 -0.2934
   32MOL   C140 9502   0.773   5.717   4.006 -0.5685 -0.1298  0.4593
   32MOL   C141 9503   0.728   5.774   4.127  0.2947 -0.6326 -0.4313
   32MOL   C142 9504   0.801   5.751   4.245 -0.3591 -0.3923 -0.1212
   32MOL   C143 9505   0.901   5.653   4.243  0.6242 -0.9553 -0.3350
   32MOL   N144 9506   0.948   5.598   4.128 -0.0600 -0.6525 -0.7380
   32MOL   H145 9507   0.887   5.369   3.768 -2.4602  0.8076 -1.2537
   32MOL   H146 9508   0.886   5.349   3.937  1.8527  1.6476  0.1245
   32MOL   H147 9509   0.882   5.620   3.797 -0.9867  0.4175 -0.0354
   32MOL   H148 9510   0.719   5.744   3.917  0.0503  1.6432  0.5995
   32MOL   H149 9511   0.654   5.853   4.123  0.3255 -0.4702  1.7137
   32MOL   H150 9512   0.778   5.810   4.333 -2.4566 -2.2909  0.6255
   32MOL   H151 9513   0.954   5.630   4.334 -1.4313 -0.6815  0.9765
   32MOL   C152 9514   1.070   5.563   3.854 -0.2854 -0.1185  0.4574
   32MOL   C153 9515   1.114   5.520   3.707  0.0760  0.1697  0.1217
   32MOL   C154 9516   1.018   5.565   3.594 -0.1235  0.4479  0.1857
   32MOL   C155 9517   0.945   5.471   3.521 -0.1924 -0.4111  0.2739
   32MOL   C156 9518   0.859   5.514   3.419  0.6020 -0.4358  0.1907
   32MOL   C157 9519   0.845   5.651   3.400  0.6941 -0.7365  0.6227
   32MOL   C158 9520   0.914   5.744   3.485  0.3630 -0.3267  0.4188
   32MOL   N159 9521   1.008   5.699   3.574  0.1860 -0.2812  0.0159
   32MOL   H160 9522   1.123   5.505   3.929 -0.7379 -2.2770 -0.8605
   32MOL   H161 9523   1.099   5.667   3.870  0.6030 -0.3286  0.2656
   32MOL   H162 9524   1.109   5.412   3.704  0.7233  0.1149  0.8239
   32MOL   H163 9525   0.944   5.367   3.550  0.3303 -0.2534  0.8412
   32MOL   H164 9526   0.804   5.433   3.372 -0.6206 -0.1990  1.1827
   32MOL   H165 9527   0.779   5.692   3.325  0.1771  1.1852  2.0679
   32MOL   H166 9528   0.901   5.851   3.487  0.1043 -0.3602  0.5699
   32MOL   C167 9529   1.254   5.568   3.675  0.7440  0.8376  0.2209
   32MOL   C168 9530   1.314   5.525   3.547 -0.2605  1.4081  0.0794
   32MOL   C169 9531   1.434   5.606   3.500  0.4563 -0.3505 -0.4341
   32MOL   C170 9532   1.438   5.664   3.373  0.0567  0.3170  0.7747
   32MOL   C171 9533   1.559   5.724   3.329  0.3298  1.1991 -0.0655
   32MOL   C172 9534   1.668   5.730   3.421  0.2752 -0.0947 -0.0855
   32MOL   C173 9535   1.647   5.680   3.551 -0.2853 -0.1208  0.1651
   32MOL   N174 9536   1.536   5.620   3.586  0.9143 -0.7664 -0.3022
   32MOL   H175 9537   1.314   5.532   3.758  1.6079 -1.0951 -1.2105
   32MOL   H176 9538   1.250   5.677   3.679  0.8267  0.8076  1.3691
   32MOL   H177 9539   1.233   5.530   3.474 -1.6828 -0.1508  1.4923
   32MOL   H178 9540   1.347   5.651   3.316 -0.3152  0.6035  1.3025
   32MOL   H179 9541   1.560   5.777   3.234  0.0097 -3.6116 -2.9081
   32MOL   H180 9542   1.759   5.787   3.413  0.7680 -0.8828 -0.0953
   32MOL   H181 9543   1.730   5.691   3.619  0.5723 -1.5696 -0.6047
   32MOL   C182 9544   1.365   5.382   3.567  0.2061  0.3299 -0.1712
   32MOL   C183 9545   1.355   5.301   3.440 -0.1288 -0.5621 -0.1342
   32MOL   C184 9546   1.487   5.221   3.432 -0.1789 -0.2161  0.4848
   32MOL   C185 9547   1.598   5.270   3.357 -0.0869 -0.0969  0.9700
   32MOL   C186 9548   1.717   5.198   3.361 -0.0338  0.0334 -0.7690
   32MOL   C187 9549   1.732   5.083   3.442 -0.5881 -0.3680  0.0963
   32MOL   C188 9550   1.620   5.039   3.513 -0.2706 -0.1233  0.2985
   32MOL   N189 9551   1.503   5.109   3.501  0.0338  0.0487  0.0533
   32MOL   H190 9552   1.304   5.332   3.643  2.1349  0.7456  1.7062
   32MOL   H191 9553   1.467   5.366   3.601  0.4033 -1.7989 -1.6574
   32MOL   H192 9554   1.357   5.376   3.361  1.8835  1.6424  1.9178
   32MOL   H193 9555   1.570   5.356   3.298 -0.6008  0.1389  1.5384
   32MOL   H194 9556   1.797   5.224   3.294  2.1572  0.3130  1.8395
   32MOL   H195 9557   1.830   5.041   3.456 -1.1040 -1.5366  0.2512
   32MOL   H196 9558   1.619   4.962   3.589  0.6464 -0.9977 -0.5457
   32MOL   C197 9559   1.214   5.222   3.425 -0.9968 -0.3567  0.0623
   32MOL   C198 9560   1.168   5.204   3.287  0.7651 -0.4121  0.7290
   32MOL   C199 9561   1.066   5.090   3.282 -0.1219  0.1136  0.0128
   32MOL   C200 9562   1.112   4.967   3.245 -0.0599 -0.1579 -0.0479
   32MOL   C201 9563   1.029   4.859   3.262 -0.3074  0.4175 -0.3630
   32MOL   C202 9564   0.894   4.887   3.289  0.6856 -0.2166  0.0323
   32MOL   C203 9565   0.848   5.019   3.312  0.0695 -0.2948 -0.3080
   32MOL   N204 9566   0.936   5.125   3.311 -0.4359  0.1701 -0.4193
   32MOL   H205 9567   1.139   5.269   3.488 -1.3445 -1.7559  0.7184
   32MOL   H206 9568   1.236   5.127   3.473 -2.6261 -0.1462  1.2658
   32MOL   H207 9569   1.247   5.165   3.223 -0.6140  0.7457 -1.7468
   32MOL   H208 9570   1.218   4.947   3.236 -0.1533 -1.4221  1.5967
   32MOL   H209 9571   1.060   4.757   3.247  0.3669  0.8873 -2.3306
   32MOL   H210 9572   0.825   4.804   3.297  0.4607  0.0077  0.4362
   32MOL   H211 9573   0.743   5.043   3.316  0.4128  1.1323  0.2654
   32MOL   C212 9574   1.134   5.334   3.220  0.1002 -0.1273 -0.5497
   32MOL   C213 9575   1.052   5.324   3.088  0.1910  0.8692  0.6162
   32MOL   C214 9576   1.014   5.463   3.040 -0.5666  0.4218  0.1411
   32MOL   C215 9577   0.892   5.488   2.980  0.6014 -0.4641 -0.4013
   32MOL   C216 9578   0.869   5.611   2.914 -0.3901  0.0813  0.2715
   32MOL   C217 9579   0.979   5.700   2.911 -0.3306  0.5290  0.1062
   32MOL   C218 9580   1.099   5.671   2.972  0.2271  0.1955  0.1187
   32MOL   N219 9581   1.118   5.556   3.040 -0.2356 -0.5227 -0.0941
   32MOL   H220 9582   1.225   5.387   3.194  0.1491 -0.2044 -0.5393
   32MOL   H221 9583   1.087   5.408   3.285 -1.1840 -2.2163  0.9832
   32MOL   H222 9584   0.961   5.270   3.114 -0.4339 -0.4366 -3.8344
   32MOL   H223 9585   0.825   5.405   2.960 -0.6340  0.8102 -1.6641
   32MOL   H224 9586   0.778   5.638   2.862  0.2024  0.5201 -0.5494
   32MOL   H225 9587   0.966   5.795   2.860  1.4575  2.1097  2.4976
   32MOL   H226 9588   1.187   5.733   2.966  1.7702 -1.9462 -0.1057
   32MOL   C227 9589   1.121   5.225   2.977  0.1573  0.2543 -0.0662
   32MOL   C228 9590   1.073   5.242   2.828  0.1609 -0.0895  0.5570
   32MOL   C229 9591   1.180   5.194   2.725 -0.2256 -0.4555 -0.7197
   32MOL   C230 9592   1.179   5.073   2.662  0.1436  0.6375 -0.0844
   32MOL   C231 9593   1.274   5.052   2.557 -0.5138  0.7075 -0.0087
   32MOL   C232 9594   1.376   5.146   2.530  0.9217 -0.3541  0.7858
   32MOL   C233 9595   1.376   5.258   2.618  0.7647  0.3886 -0.7821
   32MOL   N234 9596   1.275   5.283   2.704  0.2089  0.2879 -0.0430
   32MOL   H235 9597   1.115   5.123   3.017  2.4797  0.8479  1.9262
   32MOL   H236 9598   1.227   5.244   2.963  0.1231 -0.3778 -1.3317
   32MOL   H237 9599   1.067   5.350   2.810 -3.8786 -0.5025 -1.0406
   32MOL   H238 9600   1.104   5.001   2.690 -0.7095  1.3218 -0.5790
   32MOL   H239 9601   1.263   4.967   2.491  2.3226  0.4599 -0.2336
   32MOL   H240 9602   1.448   5.123   2.453 -0.3903  0.1322 -0.6218
   32MOL   H241 9603   1.441   5.343   2.603 -0.3216  1.9717  2.9670
   32MOL   C242 9604   0.936   5.182   2.796 -0.1187 -0.9946 -1.1273
   32MOL   C243 9605   0.885   5.224   2.660  0.4925  0.4174  0.4046
   32MOL   C244 9606   0.768   5.132   2.627  0.9197 -0.1688 -0.6035
   32MOL   C245 9607   0.762   5.041   2.518 -0.0342 -0.2134 -0.5774
   32MOL   C246 9608   0.641   4.965   2.499  0.0883  0.3759 -0.4389
   32MOL   C247 9609   0.529   4.995   2.581 -0.7262  0.6078  0.8481
   32MOL   C248 9610   0.549   5.074   2.691 -0.1325  0.6190  0.1699
   32MOL   N249 9611   0.663   5.137   2.711 -0.4574 -0.2510 -0.1602
   32MOL   H250 9612   0.873   5.222   2.877  1.3463 -2.2237  0.6531
   32MOL   H251 9613   0.937   5.075   2.817  0.4247 -1.3245 -2.8052
   32MOL   H252 9614   0.964   5.215   2.586  0.7064  0.9337  0.5688
   32MOL   H253 9615   0.844   5.043   2.448  0.6407  1.0386  0.2145
   32MOL   H254 9616   0.617   4.901   2.415 -0.3438 -0.2742  0.1762
   32MOL   H255 9617   0.432   4.951   2.560  0.2488 -0.3309 -1.8995
   32MOL   H256 9618   0.466   5.090   2.757 -2.1333  0.1651 -2.1580
   32MOL   C257 9619   0.846   5.378   2.635 -1.0054 -0.4748  0.0355
   32MOL   C258 9620   0.829   5.411   2.483 -0.4027 -0.2235 -0.2365
   32MOL   C259 9621   0.739   5.527   2.466 -0.3763  0.2589  0.1647
   32MOL   C260 9622   0.611   5.515   2.396 -0.3862  0.4649 -0.4238
   32MOL   C261 9623   0.527   5.626   2.379  0.6451  0.3880 -0.3958
   32MOL   C262 9624   0.566   5.745   2.439  0.1033  0.0601  0.9077
   32MOL   C263 9625   0.689   5.751   2.509 -0.2375  0.1300 -0.1763
   32MOL   N264 9626   0.777   5.646   2.522  0.3222 -0.1117  0.7241
   32MOL   H265 9627   0.927   5.440   2.674 -1.6199  0.6017 -0.3595
   32MOL   H266 9628   0.754   5.411   2.684 -1.8210 -0.8780 -1.1993
   32MOL   H267 9629   0.782   5.326   2.433 -3.8942  2.2224 -1.3146
   32MOL   H268 9630   0.591   5.420   2.350 -1.1243 -0.6319  2.0770
   32MOL   H269 9631   0.437   5.637   2.321  1.6163 -0.6763 -2.1594
   32MOL   H270 9632   0.500   5.829   2.423  1.0038  0.7240  0.6386
   32MOL   H271 9633   0.727   5.840   2.557  1.0929 -0.5202  0.0165
   32MOL   C272 9634   0.972   5.436   2.416 -0.0118  0.8782  0.5773
   32MOL   C273 9635   0.972   5.440   2.259 -0.5646 -0.2026  0.0053
   32MOL   C274 9636   1.117   5.471   2.215 -0.4485  0.3774 -0.5134
   32MOL   C275 9637   1.156   5.600   2.170 -0.7166 -0.1014  0.1857
   32MOL   C276 9638   1.288   5.622   2.134  0.5206  0.0360 -0.0083
   32MOL   C277 9639   1.378   5.515   2.137 -0.5519 -0.1785 -0.7721
   32MOL   C278 9640   1.328   5.387   2.174 -0.1364 -0.2307  0.0489
   32MOL   N279 9641   1.206   5.365   2.218 -0.7727 -0.3131 -0.4455
   32MOL   H280 9642   1.032   5.356   2.460  0.3319  1.3902  1.0531
   32MOL   H281 9643   1.011   5.532   2.451  0.8862 -0.7638  4.3755
   32MOL   H282 9644   0.908   5.524   2.231  0.0861  1.6875  3.7853
   32MOL   H283 9645   1.091   5.685   2.183  0.6598  0.5465  3.0872
   32MOL   H284 9646   1.316   5.721   2.101  1.3713  0.6742  2.5312
   32MOL   H285 9647   1.474   5.528   2.091  0.7374 -0.4612  1.7757
   32MOL   H286 9648   1.396   5.303   2.179 -0.1899 -0.3362 -1.0414
   32MOL   C287 9649   0.903   5.324   2.191  0.3674 -0.0497 -0.7787
   32MOL   C288 9650   0.904   5.328   2.035  0.2274  0.1179 -0.1077
   32MOL   C289 9651   0.841   5.457   1.989  0.1484  0.2342  0.0171
   32MOL   C290 9652   0.924   5.564   1.949 -0.6193  0.0695 -0.4527
   32MOL   C291 9653   0.861   5.688   1.937 -0.8035  0.6361  0.1199
   32MOL   C292 9654   0.720   5.705   1.965  0.5545  0.2648 -0.0448
   32MOL   C293 9655   0.647   5.592   1.998  0.0625  0.2385  0.4360
   32MOL   N294 9656   0.707   5.471   2.006 -0.0966  0.1050  0.0671
   32MOL   H295 9657   0.801   5.316   2.226  0.7211 -1.0498  0.0439
   32MOL   H296 9658   0.953   5.231   2.218 -0.2295 -0.3768 -0.7897
   32MOL   H297 9659   0.832   5.252   2.003 -1.1000  0.8971  0.9455
   32MOL   H298 9660   1.032   5.556   1.944 -0.4433  1.0230  1.0674
   32MOL   H299 9661   0.918   5.778   1.917  1.0756 -0.6303 -0.3839
   32MOL   H300 9662   0.669   5.799   1.954 -1.0020 -0.3179  1.8914
   32MOL   H301 9663   0.539   5.587   2.002  0.0015 -0.0781 -1.3340
   32MOL   H302 9664   1.002   5.309   1.993 -0.3202 -2.7661 -0.2194
   33MOL     C1 9665   7.164   2.009   3.329 -0.4285  0.4182  0.5484
   33MOL     C2 9666   7.249   1.875   3.314 -0.0224 -0.4233  0.4498
   33MOL     C3 9667   7.354   1.898   3.206  0.1516  0.0280 -0.7919
   33MOL     C4 9668   7.341   1.862   3.070 -0.0951  0.0553 -0.8697
   33MOL     C5 9669   7.441   1.890   2.976  0.2321  0.2316 -0.6796
   33MOL     C6 9670   7.551   1.961   3.018  0.1505 -0.1642  0.2380
   33MOL     C7 9671   7.566   1.988   3.157  0.2572  0.2072  0.2905
   33MOL     N8 9672   7.469   1.956   3.252 -0.4625 -0.1726 -0.0694
   33MOL     H9 9673   7.077   2.005   3.394 -0.7573 -0.7135  0.0517
   33MOL    H10 9674   7.218   2.100   3.352  0.1867 -0.1726  1.4714
   33MOL    H11 9675   7.167   1.814   3.279 -0.7372  1.3594 -1.0605
   33MOL    H12 9676   7.243   1.821   3.049  0.2819 -0.4872 -1.5683
   33MOL    H13 9677   7.434   1.862   2.872 -2.9155 -1.3140 -0.1254
   33MOL    H14 9678   7.627   2.000   2.953  1.6775 -2.1231  0.7950
   33MOL    H15 9679   7.659   2.033   3.187 -0.6443  0.8466  2.2421
   33MOL    H16 9680   7.131   2.030   3.227 -1.0980  0.2538  0.7242
   33MOL    C17 9681   7.299   1.817   3.441  0.3816 -0.1759 -0.5572
   33MOL    C18 9682   7.384   1.689   3.431 -0.1790 -0.2859  0.7129
   33MOL    C19 9683   7.463   1.675   3.556 -0.1128 -0.1565 -0.2191
   33MOL    C20 9684   7.603   1.691   3.566  0.3571  0.2095  0.1414
   33MOL    C21 9685   7.656   1.695   3.695 -0.2867  0.3627 -0.4088
   33MOL    C22 9686   7.579   1.654   3.809 -0.1184  0.4840  0.6855
   33MOL    C23 9687   7.443   1.630   3.789  0.1998 -0.5938  0.5061
   33MOL    N24 9688   7.389   1.635   3.662 -0.7354 -0.0082  0.3437
   33MOL    H25 9689   7.222   1.800   3.515 -1.3667  2.5115 -1.6822
   33MOL    H26 9690   7.368   1.885   3.491  1.5343 -1.3032 -0.5715
   33MOL    H27 9691   7.457   1.709   3.353  0.1347  0.1307  1.1118
   33MOL    H28 9692   7.659   1.705   3.475 -1.2340  0.4781 -0.8098
   33MOL    H29 9693   7.761   1.715   3.710  0.3339 -3.7705  1.4017
   33MOL    H30 9694   7.613   1.640   3.911 -1.0893 -2.7936  0.6184
   33MOL    H31 9695   7.386   1.591   3.872  0.8313 -1.2486  0.6402
   33MOL    C32 9696   7.309   1.560   3.402  0.3828  0.4049  0.3385
   33MOL    C33 9697   7.388   1.440   3.341  0.2023 -0.4697 -0.4280
   33MOL    C34 9698   7.445   1.350   3.455  0.1140 -0.7082 -0.0286
   33MOL    C35 9699   7.380   1.331   3.581  0.3469 -0.3214  0.0064
   33MOL    C36 9700   7.445   1.251   3.672  0.2922  0.2020 -0.1800
   33MOL    C37 9701   7.568   1.196   3.643  0.3911  0.1651  0.1611
   33MOL    C38 9702   7.617   1.208   3.512  0.4921 -0.4601  0.1971
   33MOL    N39 9703   7.555   1.282   3.421 -0.2204  0.3563 -0.3573
   33MOL    H40 9704   7.254   1.593   3.313  3.0045  0.1245 -1.4524
   33MOL    H41 9705   7.237   1.534   3.479  2.2994 -1.5031  1.5606
   33MOL    H42 9706   7.476   1.471   3.285  0.8138 -2.4902 -0.6265
   33MOL    H43 9707   7.275   1.355   3.591 -0.3853 -4.1227  3.0075
   33MOL    H44 9708   7.402   1.236   3.769  0.9554  0.2626  0.1269
   33MOL    H45 9709   7.625   1.142   3.717 -1.0518 -1.7896 -0.1376
   33MOL    H46 9710   7.716   1.176   3.486  0.8500  1.7445 -1.2899
   33MOL    C47 9711   7.296   1.364   3.243  0.0635  0.0126 -0.3990
   33MOL    C48 9712   7.214   1.243   3.287 -0.3980 -0.4784 -0.0962
   33MOL    C49 9713   7.096   1.275   3.375 -0.5592 -0.0949 -0.0860
   33MOL    C50 9714   7.088   1.226   3.508 -0.1266  0.4467  0.6241
   33MOL    C51 9715   6.972   1.244   3.580  0.2255  0.1968  0.3017
   33MOL    C52 9716   6.869   1.322   3.522  0.1361  0.0331 -0.2975
   33MOL    C53 9717   6.877   1.356   3.386 -0.4393 -0.5696  0.4078
   33MOL    N54 9718   6.996   1.338   3.315  0.2424  0.4667  0.3461
   33MOL    H55 9719   7.365   1.323   3.170 -1.4695  2.0313 -3.0349
   33MOL    H56 9720   7.229   1.433   3.191  1.4643  0.5575 -1.4961
   33MOL    H57 9721   7.275   1.170   3.340 -0.3360 -0.5866 -0.3154
   33MOL    H58 9722   7.169   1.166   3.547 -1.3031 -0.9655  0.9481
   33MOL    H59 9723   6.965   1.214   3.683 -1.3355 -1.0847 -0.1513
   33MOL    H60 9724   6.779   1.348   3.577  0.5332  3.3396 -1.0809
   33MOL    H61 9725   6.809   1.425   3.338 -0.8412  0.7373  2.7870
   33MOL    C62 9726   7.154   1.172   3.157  0.8985  0.7064  0.3170
   33MOL    C63 9727   7.244   1.092   3.071  0.0688  0.0448 -0.1191
   33MOL    C64 9728   7.312   0.979   3.151  0.2971  0.4432  0.4308
   33MOL    C65 9729   7.447   0.989   3.164 -0.3766  0.0495 -0.3330
   33MOL    C66 9730   7.508   0.896   3.245 -0.4118 -0.5131  0.5462
   33MOL    C67 9731   7.437   0.789   3.299  0.1778  0.6565 -0.5106
   33MOL    C68 9732   7.304   0.778   3.279 -0.1112 -1.1963  0.2145
   33MOL    N69 9733   7.238   0.875   3.205  0.1867 -0.4387  0.0477
   33MOL    H70 9734   7.102   1.250   3.103 -0.1353  0.7520  1.3517
   33MOL    H71 9735   7.071   1.113   3.196  0.9477 -0.9436 -1.9704
   33MOL    H72 9736   7.322   1.159   3.036 -0.3790 -0.4939 -2.2641
   33MOL    H73 9737   7.502   1.067   3.114 -1.1860  0.1352 -1.0972
   33MOL    H74 9738   7.613   0.910   3.263 -0.1423  2.2754 -2.8079
   33MOL    H75 9739   7.491   0.717   3.360  2.6041  1.1316 -2.0507
   33MOL    H76 9740   7.248   0.696   3.319 -2.5751  0.9201  1.2463
   33MOL    C77 9741   7.161   1.041   2.945  0.1174  0.4460 -0.1310
   33MOL    C78 9742   7.238   0.951   2.854 -0.4132  0.6418  0.5950
   33MOL    C79 9743   7.180   0.807   2.870 -0.3914  0.6320  0.5034
   33MOL    C80 9744   7.257   0.702   2.918  0.0746  0.1059  0.5368
   33MOL    C81 9745   7.201   0.576   2.919  0.2106  0.6140 -0.0432
   33MOL    C82 9746   7.066   0.563   2.878 -0.0215 -0.1757  0.0171
   33MOL    C83 9747   7.003   0.671   2.817  0.4578 -0.4780 -0.3048
   33MOL    N84 9748   7.059   0.791   2.813 -0.0264  0.0647  0.7558
   33MOL    H85 9749   7.148   1.138   2.898 -0.4521  1.5628  2.2502
   33MOL    H86 9750   7.062   1.011   2.980  0.8470  0.7451  2.2362
   33MOL    H87 9751   7.343   0.947   2.884 -0.4630  0.0355  0.7067
   33MOL    H88 9752   7.356   0.731   2.950 -0.4317  0.1165  2.1229
   33MOL    H89 9753   7.259   0.494   2.958  2.5024  1.6528 -1.2153
   33MOL    H90 9754   7.018   0.466   2.868  0.4906 -0.3608 -0.6950
   33MOL    H91 9755   6.907   0.660   2.769  1.0416 -0.4386 -1.5206
   33MOL    C92 9756   7.225   0.984   2.694 -0.1251  0.1924  0.1978
   33MOL    C93 9757   7.291   1.112   2.649  0.2967 -0.4272 -0.7492
   33MOL    C94 9758   7.436   1.113   2.693  0.2257 -0.2095  0.2268
   33MOL    C95 9759   7.546   1.075   2.610 -0.3291  0.0470 -0.7984
   33MOL    C96 9760   7.675   1.111   2.654 -0.6496 -0.3139  0.8903
   33MOL    C97 9761   7.688   1.191   2.769 -0.0609 -0.5128 -0.0212
   33MOL    C98 9762   7.581   1.207   2.851 -0.1929 -0.6624 -0.5794
   33MOL    N99 9763   7.459   1.172   2.812  0.0343  0.1343  0.0306
   33MOL   H100 9764   7.124   0.986   2.653  0.9015  1.0876 -2.4019
   33MOL   H101 9765   7.267   0.905   2.631 -1.0589 -1.1837  1.2753
   33MOL   H102 9766   7.241   1.199   2.691  0.2935  0.4535 -2.5298
   33MOL   H103 9767   7.532   1.032   2.512 -0.8610 -0.6877 -0.4064
   33MOL   H104 9768   7.763   1.088   2.596 -0.3556 -2.1651  2.0357
   33MOL   H105 9769   7.785   1.224   2.800  1.1156 -1.9064 -2.0889
   33MOL   H106 9770   7.594   1.262   2.943 -1.5924  0.1519 -0.8604
   33MOL   C107 9771   7.273   1.134   2.496  0.3060 -0.4052  0.2577
   33MOL   C108 9772   7.317   1.274   2.442  0.2650  0.6018 -0.6940
   33MOL   C109 9773   7.348   1.259   2.295  0.6723  0.1828  0.9530
   33MOL   C110 9774   7.483   1.264   2.256 -0.5108 -0.1561  0.0494
   33MOL   C111 9775   7.508   1.239   2.120  0.1526  0.2926  0.2497
   33MOL   C112 9776   7.410   1.199   2.032  0.4207  0.2582 -0.2822
   33MOL   C113 9777   7.277   1.192   2.088 -0.9348  0.2911  0.0748
   33MOL   N114 9778   7.244   1.220   2.213  0.2627 -0.7226 -0.3559
   33MOL   H115 9779   7.176   1.097   2.463 -1.1531  3.2019  0.2155
   33MOL   H116 9780   7.339   1.070   2.438  1.6230 -0.6285  1.9490
   33MOL   H117 9781   7.404   1.316   2.494 -0.6592  2.4902 -0.6071
   33MOL   H118 9782   7.574   1.283   2.312 -0.4747 -0.4559  0.0938
   33MOL   H119 9783   7.607   1.268   2.087 -0.5205  1.6224 -0.6727
   33MOL   H120 9784   7.436   1.190   1.928 -0.3746 -0.0481 -0.4591
   33MOL   H121 9785   7.190   1.177   2.025 -1.4571  0.3047  0.7909
   33MOL   C122 9786   7.197   1.372   2.454  0.3321  0.2726 -0.7312
   33MOL   C123 9787   7.175   1.456   2.584  0.5253  0.4874  0.2197
   33MOL   C124 9788   7.302   1.531   2.616 -0.4850 -0.0236 -0.1070
   33MOL   C125 9789   7.388   1.491   2.726  0.3633  0.2764  0.0672
   33MOL   C126 9790   7.518   1.546   2.738  0.9578  0.3619 -0.0686
   33MOL   C127 9791   7.548   1.644   2.644 -0.2470  0.2316  0.0073
   33MOL   C128 9792   7.460   1.677   2.541  0.7114  0.2162  0.0164
   33MOL   N129 9793   7.334   1.633   2.536  0.6591  0.0214  0.0176
   33MOL   H130 9794   7.106   1.318   2.430  1.2557 -1.9390  0.5451
   33MOL   H131 9795   7.212   1.444   2.374 -2.4610  1.1680 -0.4970
   33MOL   H132 9796   7.161   1.378   2.659  1.9345  0.5134  0.5308
   33MOL   H133 9797   7.350   1.415   2.793  0.0209  0.9795  0.6806
   33MOL   H134 9798   7.574   1.514   2.824  0.6800 -0.7630 -0.2837
   33MOL   H135 9799   7.645   1.691   2.649 -0.5543  0.7296  1.9009
   33MOL   H136 9800   7.477   1.757   2.469 -1.0987 -0.2865 -1.0054
   33MOL   C137 9801   7.055   1.551   2.570  0.0840 -0.2644  0.6194
   33MOL   C138 9802   6.919   1.482   2.590 -0.0111 -0.4595  0.0951
   33MOL   C139 9803   6.908   1.392   2.711  0.4908  0.4498 -0.3240
   33MOL   C140 9804   6.876   1.255   2.698  0.6902  0.0103  0.5647
   33MOL   C141 9805   6.862   1.176   2.814 -0.1070 -0.4969  0.0878
   33MOL   C142 9806   6.863   1.233   2.940 -0.1970 -0.1297 -0.6297
   33MOL   C143 9807   6.873   1.376   2.943 -0.5177 -0.7235  0.2548
   33MOL   N144 9808   6.906   1.453   2.834 -0.6684 -0.5762 -0.4295
   33MOL   H145 9809   7.060   1.610   2.478 -1.1130  1.2349  1.5036
   33MOL   H146 9810   7.065   1.626   2.649  0.2226  0.5350 -0.1455
   33MOL   H147 9811   6.898   1.423   2.501  3.4268 -3.4283  1.1137
   33MOL   H148 9812   6.875   1.199   2.606 -1.1345  0.4149  0.3279
   33MOL   H149 9813   6.841   1.072   2.792  1.1062 -0.8012  0.3511
   33MOL   H150 9814   6.848   1.176   3.031  0.3916  1.5596  0.5679
   33MOL   H151 9815   6.881   1.429   3.037  0.5194  0.8838 -0.7245
   33MOL   C152 9816   6.799   1.580   2.589  0.3838 -0.6337  0.8811
   33MOL   C153 9817   6.764   1.671   2.476 -0.2530 -0.3361 -1.1678
   33MOL   C154 9818   6.766   1.596   2.342 -0.5029  0.1656  0.9249
   33MOL   C155 9819   6.868   1.625   2.244  0.1205  0.1312 -0.5338
   33MOL   C156 9820   6.876   1.549   2.125  0.6298 -0.0258 -0.4395
   33MOL   C157 9821   6.769   1.456   2.101 -0.1668 -0.5817 -0.2468
   33MOL   C158 9822   6.670   1.435   2.205 -0.5253  0.4777 -0.9422
   33MOL   N159 9823   6.676   1.496   2.324 -0.2276  0.8181  0.5533
   33MOL   H160 9824   6.799   1.643   2.678 -1.3825 -0.7072  0.9592
   33MOL   H161 9825   6.712   1.515   2.600  0.1717 -0.3147  1.0729
   33MOL   H162 9826   6.845   1.745   2.476 -1.9306  1.5450 -2.1355
   33MOL   H163 9827   6.950   1.694   2.261 -0.0221  0.0597  0.4725
   33MOL   H164 9828   6.954   1.560   2.051  1.1307 -0.3737  0.0340
   33MOL   H165 9829   6.763   1.397   2.011  1.0621 -0.9577 -0.1017
   33MOL   H166 9830   6.578   1.379   2.198 -0.5444  0.5373 -1.1692
   33MOL   C167 9831   6.627   1.747   2.497  0.4351 -0.7255 -0.2025
   33MOL   C168 9832   6.563   1.827   2.378  0.1542 -0.1468 -0.4414
   33MOL   C169 9833   6.427   1.874   2.428 -0.1899  0.1533 -0.1413
   33MOL   C170 9834   6.312   1.812   2.374 -0.3991  0.1972  0.0539
   33MOL   C171 9835   6.188   1.846   2.432  0.1688 -0.4636  0.5024
   33MOL   C172 9836   6.189   1.943   2.534 -0.0633 -0.2453 -0.0705
   33MOL   C173 9837   6.309   2.009   2.572 -0.2588  0.5254  0.2540
   33MOL   N174 9838   6.428   1.971   2.525  0.2591 -0.7911  0.1234
   33MOL   H175 9839   6.633   1.806   2.589 -0.3515 -1.8505  0.5820
   33MOL   H176 9840   6.556   1.670   2.528 -1.3676  1.1147  0.3569
   33MOL   H177 9841   6.550   1.746   2.306  0.5580 -0.7531  0.1645
   33MOL   H178 9842   6.315   1.726   2.309  0.3969 -1.0026  1.6458
   33MOL   H179 9843   6.095   1.814   2.387  1.4084 -2.0043 -0.9997
   33MOL   H180 9844   6.099   1.958   2.593  0.1353 -2.1846  0.7821
   33MOL   H181 9845   6.294   2.081   2.651 -1.8942 -0.1612  0.6007
   33MOL   C182 9846   6.655   1.937   2.308  0.1480  0.0759  0.7132
   33MOL   C183 9847   6.664   1.923   2.157  0.0287  0.5733 -0.6479
   33MOL   C184 9848   6.526   1.886   2.102  0.3677 -0.7409 -0.0366
   33MOL   C185 9849   6.438   1.990   2.070 -0.6663 -0.1523  0.2515
   33MOL   C186 9850   6.322   1.950   2.008  0.0943 -0.4773  0.3934
   33MOL   C187 9851   6.293   1.817   1.980  0.5042 -0.0494 -0.2666
   33MOL   C188 9852   6.388   1.721   2.019 -0.1229  0.1170 -0.4127
   33MOL   N189 9853   6.504   1.755   2.079 -0.3463  0.5591  0.3465
   33MOL   H190 9854   6.758   1.921   2.341 -0.1832 -0.3239  1.5727
   33MOL   H191 9855   6.636   2.037   2.346  1.5171  0.3839  0.6231
   33MOL   H192 9856   6.728   1.836   2.137  0.3036  0.4438  0.7951
   33MOL   H193 9857   6.447   2.096   2.090  0.5685 -0.7927  3.3083
   33MOL   H194 9858   6.248   2.025   1.984 -0.7888 -0.9805  1.4769
   33MOL   H195 9859   6.202   1.785   1.933  0.2103 -2.2320  1.7069
   33MOL   H196 9860   6.359   1.618   2.004 -0.2954  0.4148 -2.2415
   33MOL   C197 9861   6.727   2.049   2.090  0.0146 -0.1049  0.1946
   33MOL   C198 9862   6.738   2.033   1.941  0.0097 -0.3151  0.1617
   33MOL   C199 9863   6.727   2.163   1.859 -1.1477 -0.6238  0.2052
   33MOL   C200 9864   6.617   2.179   1.770  0.0544  0.8733  0.5269
   33MOL   C201 9865   6.596   2.297   1.706  0.2445  0.8631  0.4121
   33MOL   C202 9866   6.699   2.393   1.712 -0.0104 -0.2836 -1.5104
   33MOL   C203 9867   6.817   2.360   1.783  0.1710 -0.0209  0.3045
   33MOL   N204 9868   6.828   2.247   1.853 -0.0485  0.3279 -0.1312
   33MOL   H205 9869   6.828   2.065   2.129  1.0307 -1.4227 -1.8012
   33MOL   H206 9870   6.678   2.143   2.119  1.5672  0.1038  2.2537
   33MOL   H207 9871   6.647   1.981   1.912 -0.7168  0.9842  0.0650
   33MOL   H208 9872   6.540   2.104   1.777 -1.0913  2.1825  2.3533
   33MOL   H209 9873   6.508   2.316   1.648  0.9305  1.3714 -0.4728
   33MOL   H210 9874   6.690   2.485   1.657 -2.8079 -0.1515 -0.9069
   33MOL   H211 9875   6.908   2.419   1.791  0.9729 -1.2910  0.7557
   33MOL   C212 9876   6.865   1.953   1.902 -0.2380  0.0555  0.6451
   33MOL   C213 9877   6.852   1.855   1.784 -0.4465 -0.7549  0.2933
   33MOL   C214 9878   6.989   1.803   1.742  0.1478 -0.4196 -0.3516
   33MOL   C215 9879   7.036   1.828   1.611  0.1017  0.9089 -0.3674
   33MOL   C216 9880   7.157   1.776   1.574 -0.1807  0.5092 -0.2480
   33MOL   C217 9881   7.231   1.712   1.670 -0.2041  0.4366 -0.0569
   33MOL   C218 9882   7.183   1.696   1.802  0.2699  0.0432  0.3812
   33MOL   N219 9883   7.062   1.743   1.836  0.0438 -0.6500 -0.4054
   33MOL   H220 9884   6.900   1.887   1.981 -0.1742  0.0708  0.6298
   33MOL   H221 9885   6.949   2.023   1.897  0.2863 -0.5384  1.1156
   33MOL   H222 9886   6.817   1.912   1.697 -1.8953 -1.7468  0.2076
   33MOL   H223 9887   6.986   1.898   1.546 -0.2306  0.5981 -0.4422
   33MOL   H224 9888   7.190   1.788   1.471 -0.2358 -0.7592 -0.4248
   33MOL   H225 9889   7.318   1.653   1.645 -0.3642  0.3986 -0.5214
   33MOL   H226 9890   7.230   1.643   1.883 -1.2798 -0.8217  0.7350
   33MOL   C227 9891   6.754   1.740   1.800 -0.4063  0.1177 -0.4934
   33MOL   C228 9892   6.670   1.686   1.681 -0.3508  0.4502  0.2005
   33MOL   C229 9893   6.572   1.792   1.628 -0.3236  0.3138  0.1748
   33MOL   C230 9894   6.440   1.799   1.663 -0.0732  0.5201  0.2123
   33MOL   C231 9895   6.357   1.899   1.617  0.0533  0.4712 -0.4203
   33MOL   C232 9896   6.409   1.993   1.529  0.2281 -0.1212  0.2935
   33MOL   C233 9897   6.544   1.991   1.499 -0.1876  0.6752  0.4254
   33MOL   N234 9898   6.623   1.889   1.547  0.0545  0.0676  0.3615
   33MOL   H235 9899   6.683   1.766   1.879  0.9386  0.4096  0.6490
   33MOL   H236 9900   6.806   1.650   1.833  0.8033  1.5756  1.7188
   33MOL   H237 9901   6.608   1.612   1.731  2.0900  0.3996  3.2465
   33MOL   H238 9902   6.399   1.724   1.729 -0.3046  1.5139  1.2203
   33MOL   H239 9903   6.250   1.891   1.630  0.3132  0.9113  2.4218
   33MOL   H240 9904   6.350   2.075   1.491  1.1357  0.3711 -0.0836
   33MOL   H241 9905   6.580   2.069   1.433  3.9218  1.2726  3.1938
   33MOL   C242 9906   6.750   1.616   1.575  0.4863 -0.2617 -0.4910
   33MOL   C243 9907   6.669   1.525   1.480 -0.3435 -0.5628  0.3148
   33MOL   C244 9908   6.624   1.389   1.549  0.4635  0.1687 -0.2751
   33MOL   C245 9909   6.512   1.387   1.627  0.3088 -0.0516  0.6895
   33MOL   C246 9910   6.474   1.268   1.689  0.2327  0.2748  0.7610
   33MOL   C247 9911   6.562   1.164   1.680 -0.3758 -0.2010  0.6321
   33MOL   C248 9912   6.677   1.173   1.598 -0.8499 -0.3619 -0.4425
   33MOL   N249 9913   6.709   1.285   1.530  0.3072  0.4070 -0.7805
   33MOL   H250 9914   6.824   1.549   1.618 -0.3307 -2.5030 -2.5114
   33MOL   H251 9915   6.810   1.695   1.529  0.9949 -0.0609  0.4831
   33MOL   H252 9916   6.739   1.496   1.401 -0.8710 -0.0553 -0.3384
   33MOL   H253 9917   6.469   1.482   1.657 -0.5707 -0.6096  1.2093
   33MOL   H254 9918   6.397   1.273   1.765  0.5713 -0.3319  1.1417
   33MOL   H255 9919   6.552   1.073   1.738 -2.1426 -0.2526  0.2904
   33MOL   H256 9920   6.743   1.088   1.587 -0.7264 -0.2324 -0.7128
   33MOL   C257 9921   6.544   1.589   1.405 -0.0514  0.0770  0.0765
   33MOL   C258 9922   6.490   1.493   1.293 -0.4279  0.1167  0.0571
   33MOL   C259 9923   6.352   1.435   1.318  0.2767 -1.4374 -0.2493
   33MOL   C260 9924   6.330   1.308   1.359  0.2911  0.5253  0.0197
   33MOL   C261 9925   6.201   1.272   1.400 -0.5349  0.3754  0.6256
   33MOL   C262 9926   6.093   1.365   1.388 -0.1761 -0.0792  0.4149
   33MOL   C263 9927   6.124   1.496   1.335  0.2307  0.7932  0.2586
   33MOL   N264 9928   6.246   1.526   1.298  0.6996 -0.5237 -0.7073
   33MOL   H265 9929   6.585   1.679   1.359  0.4001  0.6700  1.6162
   33MOL   H266 9930   6.468   1.626   1.474  0.3697 -0.8486  1.0525
   33MOL   H267 9931   6.547   1.400   1.296  0.1660  0.5036  2.1160
   33MOL   H268 9932   6.410   1.236   1.365 -2.3720 -2.4914  0.6642
   33MOL   H269 9933   6.184   1.182   1.458  1.2838  0.1562  0.8375
   33MOL   H270 9934   5.995   1.335   1.421  0.1223  0.2572  1.6131
   33MOL   H271 9935   6.051   1.572   1.312  1.5886  1.7038 -1.1316
   33MOL   C272 9936   6.516   1.550   1.157 -0.0357  0.3985 -0.5102
   33MOL   C273 9937   6.440   1.482   1.038 -0.8287 -0.1182 -0.3283
   33MOL   C274 9938   6.430   1.584   0.923 -0.3094 -0.0244 -0.2469
   33MOL   C275 9939   6.543   1.620   0.844  0.2789 -0.6266 -0.4314
   33MOL   C276 9940   6.528   1.705   0.731 -0.9463  0.4226  0.4850
   33MOL   C277 9941   6.400   1.752   0.711  0.5304 -0.4060 -0.0676
   33MOL   C278 9942   6.287   1.716   0.792 -0.1516 -0.1160 -0.2818
   33MOL   N279 9943   6.308   1.632   0.895  0.6680  0.2876 -0.5636
   33MOL   H280 9944   6.623   1.552   1.136 -0.1671 -2.1369 -1.5509
   33MOL   H281 9945   6.480   1.653   1.159 -1.7234 -0.1401 -2.0608
   33MOL   H282 9946   6.334   1.475   1.063 -0.5964 -0.1847  0.6743
   33MOL   H283 9947   6.641   1.578   0.862  0.3937 -0.6145 -1.0040
   33MOL   H284 9948   6.614   1.730   0.670 -0.8913  0.0960  0.4264
   33MOL   H285 9949   6.386   1.816   0.625 -0.8434  0.2408  0.6318
   33MOL   H286 9950   6.184   1.736   0.768  0.1663  2.2932  0.2493
   33MOL   C287 9951   6.499   1.346   1.000  0.4608 -0.6539 -0.0978
   33MOL   C288 9952   6.402   1.250   0.938 -0.1547  0.5859  0.0245
   33MOL   C289 9953   6.475   1.120   0.892 -1.0385 -0.6273  0.8211
   33MOL   C290 9954   6.495   1.014   0.984 -0.8103  0.2946  0.0590
   33MOL   C291 9955   6.551   0.897   0.932  0.4559  1.1070  0.1302
   33MOL   C292 9956   6.579   0.896   0.792 -0.3172 -0.4205  0.0372
   33MOL   C293 9957   6.555   1.009   0.715 -0.7449 -0.3292  0.2640
   33MOL   N294 9958   6.512   1.127   0.762  0.3293  0.6194  0.5620
   33MOL   H295 9959   6.532   1.297   1.092 -0.6271 -1.3887 -0.0938
   33MOL   H296 9960   6.583   1.354   0.932  1.4837  0.8142  1.3026
   33MOL   H297 9961   6.347   1.300   0.859  0.4603  0.1679 -0.6698
   33MOL   H298 9962   6.468   1.023   1.088  0.6354 -0.0440  0.4709
   33MOL   H299 9963   6.577   0.813   0.994  0.2394  0.9830  0.0528
   33MOL   H300 9964   6.613   0.810   0.736 -1.4137 -1.1756  0.5072
   33MOL   H301 9965   6.560   1.009   0.608 -0.7561 -2.5546  0.2551
   33MOL   H302 9966   6.329   1.224   1.015  0.0041 -2.0458 -0.6639
   34MOL     C1 9967   2.504   2.198   7.145 -0.1689  0.5927  0.3964
   34MOL     C2 9968   2.400   2.291   7.070 -0.1612 -0.1053  0.8683
   34MOL     C3 9969   2.289   2.210   6.990 -0.2915 -0.6271 -0.0512
   34MOL     C4 9970   2.233   2.255   6.867  0.1333  0.5193 -0.3160
   34MOL     C5 9971   2.127   2.185   6.813 -0.3300 -0.3557 -0.1570
   34MOL     C6 9972   2.081   2.073   6.883 -0.1998 -0.6178 -0.6324
   34MOL     C7 9973   2.140   2.039   7.008  0.1021 -0.5530  0.2647
   34MOL     N8 9974   2.244   2.106   7.056 -0.0461 -0.5034 -0.5241
   34MOL     H9 9975   2.460   2.145   7.229 -0.9966  0.8595  0.1476
   34MOL    H10 9976   2.545   2.127   7.073  1.1160  0.7181  0.9976
   34MOL    H11 9977   2.454   2.336   6.987 -0.0293 -1.3610  0.2648
   34MOL    H12 9978   2.274   2.337   6.811  4.8054 -0.5454  1.3629
   34MOL    H13 9979   2.099   2.211   6.712 -1.2723  2.0606  0.7046
   34MOL    H14 9980   2.007   2.005   6.843 -0.5758 -0.5560 -0.0512
   34MOL    H15 9981   2.106   1.951   7.061 -0.9831  0.9131  2.0967
   34MOL    H16 9982   2.596   2.243   7.180  0.5544 -1.3061  0.9942
   34MOL    C17 9983   2.347   2.404   7.157  0.0231  0.2019  0.6388
   34MOL    C18 9984   2.448   2.514   7.189 -0.6430  0.2141  0.1210
   34MOL    C19 9985   2.395   2.648   7.135  0.2784 -0.3733  0.0500
   34MOL    C20 9986   2.462   2.708   7.029  0.0892  0.3569  0.1441
   34MOL    C21 9987   2.410   2.831   6.978  0.3196 -1.0573 -0.1031
   34MOL    C22 9988   2.306   2.890   7.053  0.0822  0.0571 -0.7164
   34MOL    C23 9989   2.246   2.819   7.159  0.4258  0.6046 -0.4567
   34MOL    N24 9990   2.286   2.698   7.200 -0.4115  0.1902 -0.2159
   34MOL    H25 9991   2.293   2.365   7.244  0.4311  1.3123  1.3926
   34MOL    H26 9992   2.269   2.450   7.097  0.1546 -1.0769 -0.5273
   34MOL    H27 9993   2.545   2.495   7.142 -0.1229 -0.0202  1.2590
   34MOL    H28 9994   2.548   2.658   6.988  0.3108 -0.8349  1.9860
   34MOL    H29 9995   2.455   2.880   6.893 -0.2502  1.2759  0.9194
   34MOL    H30 9996   2.274   2.988   7.022 -1.1850 -0.4447 -1.0466
   34MOL    H31 9997   2.157   2.861   7.204 -0.1279  0.0514 -1.0250
   34MOL    C32 9998   2.485   2.510   7.341  0.4032 -0.2788  0.4089
   34MOL    C33 9999   2.613   2.591   7.389 -0.0496 -0.2226 -0.3738
   34MOL    C3410000   2.739   2.530   7.332 -0.2484  0.3155 -0.2304
   34MOL    C3510001   2.820   2.457   7.419  0.1952  0.0563 -0.4730
   34MOL    C3610002   2.950   2.416   7.371 -0.2144  0.9861  0.2062
   34MOL    C3710003   2.991   2.449   7.241  0.0907 -0.6178 -0.1780
   34MOL    C3810004   2.901   2.523   7.162  0.1084 -0.1465  0.5473
   34MOL    N3910005   2.778   2.564   7.208  0.5043 -0.0366 -0.5805
   34MOL    H4010006   2.493   2.407   7.375 -1.7233 -0.6560 -0.1362
   34MOL    H4110007   2.399   2.553   7.394 -0.0163  0.4645 -0.8281
   34MOL    H4210008   2.620   2.571   7.495  0.9474  1.7529 -0.0453
   34MOL    H4310009   2.785   2.425   7.516  2.5571 -0.3491  0.3014
   34MOL    H4410010   3.014   2.355   7.432 -1.6053 -0.5163  0.2011
   34MOL    H4510011   3.089   2.420   7.206  1.5232  2.2601  1.2913
   34MOL    H4610012   2.933   2.541   7.060  0.0900  1.0506  0.7536
   34MOL    C4710013   2.604   2.752   7.372 -0.6365 -0.1242  0.1384
   34MOL    C4810014   2.487   2.822   7.456  0.2715 -0.2491  0.1095
   34MOL    C4910015   2.477   2.773   7.603 -0.8680  1.1949  0.0378
   34MOL    C5010016   2.358   2.707   7.646 -0.0681 -0.3710 -0.1322
   34MOL    C5110017   2.359   2.653   7.777 -0.0162 -0.3381 -0.1100
   34MOL    C5210018   2.461   2.682   7.855 -0.6797  0.4728 -0.0170
   34MOL    C5310019   2.579   2.742   7.804 -0.3259  0.5664  0.0881
   34MOL    N5410020   2.587   2.789   7.678  0.0843  0.2319 -0.1225
   34MOL    H5510021   2.600   2.766   7.264 -0.0578 -1.0072 -0.0052
   34MOL    H5610022   2.701   2.794   7.401 -1.4103 -0.4055  3.3079
   34MOL    H5710023   2.400   2.773   7.412  0.7337 -0.6421 -0.3865
   34MOL    H5810024   2.277   2.687   7.578 -0.1530  0.3262 -0.2439
   34MOL    H5910025   2.274   2.602   7.819  0.4994  0.1888  1.5905
   34MOL    H6010026   2.468   2.658   7.960 -0.3951  4.0286  0.8550
   34MOL    H6110027   2.659   2.769   7.872  0.4507 -0.9878 -0.1935
   34MOL    C6210028   2.471   2.972   7.438 -0.1848 -0.4304 -0.0575
   34MOL    C6310029   2.365   3.038   7.526 -0.0227  0.1940 -0.0022
   34MOL    C6410030   2.408   3.182   7.533 -0.1936  0.8619  0.2202
   34MOL    C6510031   2.456   3.235   7.654 -0.0820 -0.3198  0.3852
   34MOL    C6610032   2.500   3.367   7.665 -0.4401  0.2499 -0.2976
   34MOL    C6710033   2.503   3.444   7.545 -0.1587 -0.5099  0.2616
   34MOL    C6810034   2.458   3.379   7.424 -0.1661  0.5756 -0.0340
   34MOL    N6910035   2.412   3.254   7.417 -0.1762  0.2913 -0.0379
   34MOL    H7010036   2.473   2.993   7.331  2.3246 -1.6104 -0.2810
   34MOL    H7110037   2.566   3.018   7.464 -0.5582 -1.2283  2.8375
   34MOL    H7210038   2.370   2.996   7.627 -0.9083  0.2938  0.0920
   34MOL    H7310039   2.468   3.179   7.746  1.4139 -0.4878  0.1096
   34MOL    H7410040   2.544   3.401   7.758 -1.7508  3.7762 -0.8877
   34MOL    H7510041   2.551   3.541   7.545 -1.2861  0.0659  1.4196
   34MOL    H7610042   2.464   3.437   7.333  1.4523 -0.1789 -0.4177
   34MOL    C7710043   2.222   3.022   7.470  0.5300 -0.2616 -0.5839
   34MOL    C7810044   2.110   2.998   7.564 -1.6466 -0.2454  0.2926
   34MOL    C7910045   2.115   3.097   7.684 -0.0490  0.2689  0.2410
   34MOL    C8010046   2.147   3.054   7.811 -0.3953  0.7774 -0.3427
   34MOL    C8110047   2.151   3.150   7.913  0.6774 -0.5508  0.3398
   34MOL    C8210048   2.120   3.284   7.888  0.4209  0.1619 -0.3339
   34MOL    C8310049   2.081   3.312   7.758  0.0601  0.1150  0.6387
   34MOL    N8410050   2.079   3.225   7.657  1.0399  0.1554 -0.3889
   34MOL    H8510051   2.212   2.937   7.401  1.9505  0.6037 -1.8801
   34MOL    H8610052   2.198   3.114   7.418 -3.1353 -0.8732 -0.1264
   34MOL    H8710053   2.133   2.904   7.614  1.5618  0.7688  0.9083
   34MOL    H8810054   2.176   2.953   7.834  0.4485  1.0562 -0.1778
   34MOL    H8910055   2.185   3.125   8.012 -0.1181  1.8129  1.2358
   34MOL    H9010056   2.115   3.357   7.968 -1.1844  0.5276 -0.7530
   34MOL    H9110057   2.030   3.404   7.736 -1.3339 -0.7341  0.2633
   34MOL    C9210058   1.972   3.001   7.502  0.2100 -0.0192  0.6981
   34MOL    C9310059   1.926   2.877   7.430 -0.3545 -0.2445 -0.6615
   34MOL    C9410060   1.960   2.748   7.503 -0.1985 -0.3227  0.3387
   34MOL    C9510061   2.038   2.646   7.448  0.3046  0.6154  0.5398
   34MOL    C9610062   2.073   2.535   7.519  0.2086  0.1845  0.3805
   34MOL    C9710063   2.021   2.522   7.649 -0.2114  0.0397 -0.3719
   34MOL    C9810064   1.934   2.620   7.697  0.0960  0.1398  0.8729
   34MOL    N9910065   1.914   2.730   7.628  0.1866 -0.8629  0.4564
   34MOL   H10010066   1.956   3.089   7.440 -0.9299  0.8381  2.1666
   34MOL   H10110067   1.896   3.012   7.579 -1.9201  0.8167 -1.4654
   34MOL   H10210068   1.980   2.870   7.336 -0.2476  1.7981 -0.7604
   34MOL   H10310069   2.073   2.660   7.347  1.8128 -3.0647  0.4865
   34MOL   H10410070   2.121   2.452   7.469 -1.2528 -1.6168  1.8651
   34MOL   H10510071   2.043   2.436   7.711 -0.0210 -0.6042 -1.3059
   34MOL   H10610072   1.898   2.611   7.798 -1.8904  1.1033  0.2704
   34MOL   C10710073   1.775   2.876   7.396 -0.0348 -0.0649  0.2032
   34MOL   C10810074   1.728   2.988   7.292  0.1225 -0.2848  0.2755
   34MOL   C10910075   1.830   3.030   7.183  0.5585  0.0466  1.2080
   34MOL   C11010076   1.893   3.154   7.180  0.6902 -0.4495  0.0747
   34MOL   C11110077   1.973   3.194   7.061  0.1238 -0.0964  0.3879
   34MOL   C11210078   1.979   3.091   6.960 -0.1706  0.2554  0.1357
   34MOL   C11310079   1.916   2.966   6.982  1.1845 -0.3941 -0.0581
   34MOL   N11410080   1.846   2.939   7.087  0.2165 -0.1328  0.4178
   34MOL   H11510081   1.719   2.884   7.490 -0.2126  0.9879  0.0081
   34MOL   H11610082   1.758   2.781   7.346 -0.7219  1.4137 -2.4912
   34MOL   H11710083   1.724   3.067   7.367  0.8606 -0.2056  0.2386
   34MOL   H11810084   1.884   3.225   7.262  0.6667  0.7760 -0.9726
   34MOL   H11910085   2.029   3.284   7.045  0.7549 -0.7242 -0.9716
   34MOL   H12010086   2.025   3.112   6.864 -1.3140 -0.3004 -0.5439
   34MOL   H12110087   1.922   2.889   6.908 -1.1983 -1.1195  0.4574
   34MOL   C12210088   1.587   2.966   7.252 -0.6207 -0.5253  0.3387
   34MOL   C12310089   1.479   2.987   7.360 -0.1262 -1.0939 -0.5773
   34MOL   C12410090   1.492   3.118   7.435  0.9886 -0.0469 -0.2228
   34MOL   C12510091   1.540   3.121   7.563 -0.3747 -0.5523  0.0691
   34MOL   C12610092   1.566   3.245   7.627  0.0960  0.2332  0.8810
   34MOL   C12710093   1.543   3.357   7.549  0.3811 -0.0349 -1.5061
   34MOL   C12810094   1.507   3.346   7.415 -0.2776 -0.1672 -0.0447
   34MOL   N12910095   1.481   3.230   7.356 -0.0960 -0.9230 -0.0349
   34MOL   H13010096   1.574   2.866   7.210  0.2816  0.1574 -1.6188
   34MOL   H13110097   1.573   3.035   7.169 -0.2381 -1.1008 -0.2051
   34MOL   H13210098   1.485   2.900   7.426 -2.6609  1.2583  2.9691
   34MOL   H13310099   1.566   3.031   7.616 -0.3565 -0.4952  0.1570
   34MOL   H13410100   1.606   3.260   7.726 -0.0693 -4.4325  1.7641
   34MOL   H13510101   1.552   3.460   7.580  0.7823 -0.7985  0.9875
   34MOL   H13610102   1.487   3.431   7.352  0.6143  0.3705  0.3933
   34MOL   C13710103   1.342   2.981   7.286  0.5517 -0.3644 -1.0413
   34MOL   C13810104   1.230   2.941   7.383 -0.5925  0.1355  0.0239
   34MOL   C13910105   1.094   2.996   7.330 -0.1471  0.2194  0.1729
   34MOL   C14010106   1.033   2.968   7.206 -0.4615 -0.1131 -0.3650
   34MOL   C14110107   0.906   3.013   7.178 -0.4489  0.7817  0.2041
   34MOL   C14210108   0.836   3.100   7.271 -0.6085  0.5127 -0.2144
   34MOL   C14310109   0.912   3.127   7.386  0.5639 -0.2683 -0.2554
   34MOL   N14410110   1.037   3.078   7.416  0.1196 -0.8580 -0.7153
   34MOL   H14510111   1.349   2.903   7.210 -0.0074 -1.7483  0.2986
   34MOL   H14610112   1.320   3.077   7.240  1.5146 -0.0674 -0.8844
   34MOL   H14710113   1.256   2.977   7.483  0.4978 -1.4265  0.3125
   34MOL   H14810114   1.079   2.905   7.131 -0.9100  0.0248 -0.7582
   34MOL   H14910115   0.870   2.982   7.081 -0.3174 -1.8209  0.9604
   34MOL   H15010116   0.739   3.139   7.247 -0.1864  1.3062 -0.6617
   34MOL   H15110117   0.861   3.182   7.465 -0.4522  2.2203 -2.5571
   34MOL   C15210118   1.218   2.786   7.390  0.7140 -0.6827  0.3692
   34MOL   C15310119   1.104   2.726   7.472 -0.1086  0.0735  0.2956
   34MOL   C15410120   1.105   2.577   7.462 -0.2010 -0.4070  0.1449
   34MOL   C15510121   0.989   2.506   7.418 -0.1525 -0.1909 -0.8027
   34MOL   C15610122   0.990   2.364   7.426  0.0851 -0.6197 -0.2562
   34MOL   C15710123   1.096   2.297   7.481  0.0566  0.7550  0.2396
   34MOL   C15810124   1.208   2.377   7.512 -0.0562  0.5576 -0.9344
   34MOL   N15910125   1.212   2.512   7.508  0.5480  0.1089  0.3444
   34MOL   H16010126   1.308   2.741   7.433  0.3984 -0.3847  1.3599
   34MOL   H16110127   1.206   2.744   7.291  0.8458  0.0472  0.0400
   34MOL   H16210128   1.010   2.764   7.432 -0.5014 -0.5055  0.6722
   34MOL   H16310129   0.902   2.554   7.376 -0.5086 -0.4745 -0.4002
   34MOL   H16410130   0.903   2.314   7.386 -0.7356  1.7450 -1.5802
   34MOL   H16510131   1.114   2.190   7.474  0.0903  0.7670  0.1337
   34MOL   H16610132   1.300   2.333   7.549  1.5985  2.1717 -2.9748
   34MOL   C16710133   1.102   2.781   7.615  0.0960 -0.0377 -0.6148
   34MOL   C16810134   1.015   2.709   7.723 -0.6158  0.2127  0.4165
   34MOL   C16910135   1.056   2.734   7.868 -0.3563 -0.2380  0.8127
   34MOL   C17010136   1.097   2.628   7.944 -0.3253 -0.3452 -0.6014
   34MOL   C17110137   1.138   2.644   8.074 -0.2373  0.2843 -0.0036
   34MOL   C17210138   1.134   2.773   8.132  0.0602 -0.0135  0.0429
   34MOL   C17310139   1.095   2.882   8.046 -0.4625 -0.4039  0.1293
   34MOL   N17410140   1.063   2.859   7.912 -0.0342 -1.0968  0.2104
   34MOL   H17510141   1.088   2.889   7.628 -2.7843 -0.6099  1.6328
   34MOL   H17610142   1.201   2.759   7.655 -0.2108 -0.2755  0.0289
   34MOL   H17710143   1.023   2.600   7.715 -1.2378 -0.1708  4.1613
   34MOL   H17810144   1.109   2.526   7.909 -2.2341 -0.2006 -1.7568
   34MOL   H17910145   1.177   2.560   8.130  0.9873  2.7768  2.9525
   34MOL   H18010146   1.168   2.780   0.082  1.1575 -0.6656 -0.2732
   34MOL   H18110147   1.086   2.982   8.086 -2.2224  0.3029 -1.9382
   34MOL   C18210148   0.862   2.726   7.695  0.0317 -0.8069 -0.3281
   34MOL   C18310149   0.762   2.651   7.777  0.4590 -0.1690 -0.1218
   34MOL   C18410150   0.627   2.718   7.751  0.1505 -1.0638 -0.9184
   34MOL   C18510151   0.544   2.698   7.638  0.3635 -0.3406  0.3673
   34MOL   C18610152   0.422   2.761   7.643  0.0222 -0.1390 -0.4168
   34MOL   C18710153   0.381   2.850   7.742  0.8566  0.3644  0.0627
   34MOL   C18810154   0.472   2.861   7.854  0.3093 -0.3671  0.3392
   34MOL   N18910155   0.592   2.795   7.856  0.5283 -0.1504  0.2131
   34MOL   H19010156   0.847   2.701   7.590  1.1964  0.4324 -0.8031
   34MOL   H19110157   0.835   2.832   7.698 -0.9246 -1.0354 -0.5770
   34MOL   H19210158   0.777   2.661   7.884 -0.4870  0.6667 -0.0603
   34MOL   H19310159   0.571   2.629   7.560 -0.2090 -0.4144  0.2321
   34MOL   H19410160   0.359   2.736   7.558 -0.4462  1.4686 -0.5628
   34MOL   H19510161   0.282   2.893   7.738  0.1674 -0.8561  2.5948
   34MOL   H19610162   0.445   2.933   7.931 -2.1567  1.9361 -2.5512
   34MOL   C19710163   0.767   2.502   7.750  0.0432 -0.6981  0.4510
   34MOL   C19810164   0.662   2.409   7.823  0.7283  0.0073 -0.1548
   34MOL   C19910165   0.660   2.275   7.754 -0.4760 -0.1125 -0.1681
   34MOL   C20010166   0.542   2.220   7.695 -0.2409 -0.0320  0.4843
   34MOL   C20110167   0.552   2.093   7.630  0.2961 -0.0028  0.4379
   34MOL   C20210168   0.679   2.039   7.613 -0.2369 -0.1143 -0.1998
   34MOL   C20310169   0.792   2.094   7.680  0.0364 -0.2293  0.2556
   34MOL   N20410170   0.777   2.212   7.757 -0.3911  0.3211 -0.7376
   34MOL   H20510171   0.865   2.462   7.776 -0.4883  0.1096  3.8867
   34MOL   H20610172   0.761   2.492   7.641 -2.2275 -0.5339  0.5312
   34MOL   H20710173   0.562   2.449   7.804  1.1354  0.8111 -0.5937
   34MOL   H20810174   0.451   2.278   7.696 -0.2484 -0.0598  1.5112
   34MOL   H20910175   0.462   2.055   7.585 -0.6014 -1.2163  3.1602
   34MOL   H21010176   0.694   1.951   7.553  4.9914  0.1435  0.5248
   34MOL   H21110177   0.890   2.051   7.691  0.2507  0.3587  0.6875
   34MOL   C21210178   0.685   2.386   7.975  0.3000 -0.1449 -0.0465
   34MOL   C21310179   0.581   2.442   8.064  0.8666 -0.8120 -0.3444
   34MOL   C21410180   0.450   2.393   8.018  0.8369  0.3124  0.0113
   34MOL   C21510181   0.347   2.481   7.978  0.5279 -0.6328  0.1638
   34MOL   C21610182   0.224   2.428   7.948  0.2652  0.0626 -0.2869
   34MOL   C21710183   0.201   2.288   7.948 -0.2100 -0.7156 -0.0258
   34MOL   C21810184   0.307   2.211   7.986 -0.2709 -0.4533  0.3588
   34MOL   N21910185   0.430   2.262   8.021 -0.0487  0.1780  0.0270
   34MOL   H22010186   0.784   2.428   7.994 -0.4029  1.1836  0.7352
   34MOL   H22110187   0.690   2.279   7.995 -3.4250 -0.4361 -0.4682
   34MOL   H22210188   0.576   2.550   8.048  0.5787 -0.7527  0.1381
   34MOL   H22310189   0.354   2.588   7.980 -2.3680 -0.4318  2.1783
   34MOL   H22410190   0.147   2.498   7.918 -1.3455 -0.8227  1.6757
   34MOL   H22510191   0.108   2.249   7.912  0.4116  0.8826 -3.6102
   34MOL   H22610192   0.295   2.104   7.997  1.5627 -0.7211 -0.0277
   34MOL   C22710193   0.596   2.415   0.060  0.1689  0.5171  0.1738
   34MOL   C22810194   0.716   2.476   0.133  0.8619  0.7599  0.7374
   34MOL   C22910195   0.714   2.628   0.138 -0.0528  0.5605 -0.4521
   34MOL   C23010196   0.801   2.715   0.068 -0.8410 -0.2918  0.8085
   34MOL   C23110197   0.786   2.853   0.088  0.1559 -0.6209 -0.6480
   34MOL   C23210198   0.694   2.898   0.182 -0.4238 -0.5399  0.0596
   34MOL   C23310199   0.614   2.807   0.246  0.2761  0.0388 -0.2814
   34MOL   N23410200   0.622   2.678   0.228 -0.5087 -0.0488 -0.0915
   34MOL   H23510201   0.586   2.309   0.080 -2.3651  0.9921  1.6703
   34MOL   H23610202   0.510   2.460   0.110 -0.1976 -1.8192  1.7184
   34MOL   H23710203   0.797   2.438   0.071 -1.4122 -1.7760 -0.7898
   34MOL   H23810204   0.872   2.678   8.148 -0.7266 -0.5945  1.0797
   34MOL   H23910205   0.841   2.933   0.041 -0.0993 -0.0847 -0.0354
   34MOL   H24010206   0.692   3.005   0.195  1.4613 -0.7340  2.3767
   34MOL   H24110207   0.543   2.839   0.320 -0.4358 -1.5565 -0.2648
   34MOL   C24210208   0.741   2.399   0.265  0.4449  0.1211  0.1677
   34MOL   C24310209   0.807   2.261   0.242 -0.8126  0.6260 -0.0686
   34MOL   C24410210   0.957   2.269   0.243 -0.1699  0.5402 -0.1655
   34MOL   C24510211   1.039   2.255   0.357 -0.3808 -0.0790  0.1224
   34MOL   C24610212   1.179   2.292   0.356 -0.6090  0.7355  0.1231
   34MOL   C24710213   1.228   2.332   0.229  0.1376 -0.1066  0.1017
   34MOL   C24810214   1.146   2.331   0.114  0.1763  0.5435  0.6033
   34MOL   N24910215   1.012   2.310   0.129  0.1038  0.0252 -0.5448
   34MOL   H25010216   0.641   2.376   0.303 -0.0716 -0.2260 -1.3474
   34MOL   H25110217   0.802   2.454   0.336  0.7645 -0.7743  0.6025
   34MOL   H25210218   0.790   2.231   0.138  0.1892  0.0724 -0.0805
   34MOL   H25310219   0.998   2.223   0.452 -0.9553 -0.1021 -0.1310
   34MOL   H25410220   1.243   2.297   0.443  0.2878 -1.3970 -0.3803
   34MOL   H25510221   1.330   2.368   0.221 -0.1652  0.5119 -1.2291
   34MOL   H25610222   1.178   2.353   0.013 -1.3890 -0.9401 -0.2422
   34MOL   C25710223   0.748   2.157   0.342  0.0582  0.8462 -0.1008
   34MOL   C25810224   0.630   2.077   0.280 -0.9380  0.2232 -0.3604
   34MOL   C25910225   0.671   1.999   0.158  0.7992 -0.2178 -0.1826
   34MOL   C26010226   0.596   2.023   0.041  0.4134  0.2904 -0.4256
   34MOL   C26110227   0.613   1.934   8.088 -0.6130  0.5437 -0.4030
   34MOL   C26210228   0.725   1.841   8.091  0.7082  0.0271 -1.0376
   34MOL   C26310229   0.801   1.846   0.056 -0.4572  0.3304 -0.6697
   34MOL   N26410230   0.776   1.918   0.174 -0.0988 -0.0455 -0.5799
   34MOL   H26510231   0.710   2.206   0.431 -0.5604 -1.4477  0.9258
   34MOL   H26610232   0.818   2.084   0.382 -1.3224 -0.0987  0.6215
   34MOL   H26710233   0.574   2.160   0.237  1.4339  0.7730 -2.5053
   34MOL   H26810234   0.518   2.096   0.033  0.1710  0.0687 -0.0901
   34MOL   H26910235   0.546   1.934   8.003 -1.9326 -1.0899  0.6219
   34MOL   H27010236   0.746   1.769   8.014 -0.6951 -0.0824 -1.3281
   34MOL   H27110237   0.886   1.780   0.068 -1.4825 -0.9164 -0.0604
   34MOL   C27210238   0.540   1.998   0.370  0.3309  0.5440  0.1508
   34MOL   C27310239   0.435   2.091   0.435  0.7424  0.0811  0.6097
   34MOL   C27410240   0.332   2.131   0.322  0.1252 -0.3876 -0.1511
   34MOL   C27510241   0.340   2.263   0.273  0.3428 -0.6699 -0.6241
   34MOL   C27610242   0.261   2.289   0.160  0.2000 -0.0085 -0.3680
   34MOL   C27710243   0.175   2.191   0.108 -0.6217 -0.0262 -0.2405
   34MOL   C27810244   0.183   2.062   0.161  0.0020 -0.0592 -0.2946
   34MOL   N27910245   0.257   2.032   0.265  0.2473  0.3163 -0.4757
   34MOL   H28010246   0.605   1.950   0.444 -1.7515 -0.5802  1.2952
   34MOL   H28110247   0.491   1.918   0.313 -0.6049  0.8308  0.5470
   34MOL   H28210248   0.485   2.182   0.467  1.1716 -0.5204  1.6896
   34MOL   H28310249   0.402   2.343   0.309  0.0570 -1.1290  0.9023
   34MOL   H28410250   0.269   2.384   0.109  4.0167  0.2041  0.4154
   34MOL   H28510251   0.111   2.209   0.023 -0.5310 -0.0456 -0.3139
   34MOL   H28610252   0.119   1.989   0.115 -0.8184  0.6671 -0.3359
   34MOL   C28710253   0.357   2.028   0.559  0.9598 -0.6667  0.4579
   34MOL   C28810254   0.251   2.125   0.608  0.4237  0.2445  0.5578
   34MOL   C28910255   0.207   2.096   0.745  0.4369 -0.2347 -0.4024
   34MOL   C29010256   0.281   2.163   0.845  0.6282  0.3011 -0.6350
   34MOL   C29110257   0.253   2.126   0.980 -0.4509  0.4806 -0.1946
   34MOL   C29210258   0.155   2.031   1.004 -0.3649 -0.4405 -0.0175
   34MOL   C29310259   0.093   1.970   0.900  0.4873  0.0060  0.1962
   34MOL   N29410260   0.115   2.001   0.767 -0.1538  0.6855  0.3527
   34MOL   H29510261   0.427   2.015   0.641 -1.3111 -0.3955  2.4851
   34MOL   H29610262   0.307   1.933   0.546 -0.1381  0.1640 -1.7029
   34MOL   H29710263   0.163   2.105   0.547 -0.2614 -3.4858  2.5793
   34MOL   H29810264   0.349   2.243   0.817 -2.4235  2.9529 -0.7991
   34MOL   H29910265   0.311   2.171   1.059 -0.3529  2.1784 -1.2115
   34MOL   H30010266   0.142   1.997   1.106 -2.0605  1.0709  0.3007
   34MOL   H30110267   0.002   1.916   0.922 -0.0244  1.0815  0.7848
   34MOL   H30210268   0.291   2.226   0.601  0.5646  0.0687 -1.3906
   35MOL     C110269   1.935   3.617   4.335 -0.1697  0.2983  0.8031
   35MOL     C210270   1.881   3.473   4.328 -0.1973 -0.4882  0.1567
   35MOL     C310271   1.992   3.369   4.324  0.0433  0.0825  0.8021
   35MOL     C410272   2.010   3.289   4.215  0.1625  0.2231  0.2907
   35MOL     C510273   2.113   3.195   4.214 -0.2495  0.0172 -0.5373
   35MOL     C610274   2.205   3.189   4.323 -0.0678  0.1930 -0.1505
   35MOL     C710275   2.177   3.276   4.436 -0.5419 -0.3058 -0.1350
   35MOL     N810276   2.068   3.360   4.431 -0.7939  0.6577  0.1600
   35MOL     H910277   1.987   3.629   4.240  0.1982  1.8243  1.1834
   35MOL    H1010278   1.861   3.693   4.359 -0.8198  0.4325 -1.4594
   35MOL    H1110279   1.814   3.473   4.241  0.3943  2.4282 -0.3475
   35MOL    H1210280   1.949   3.305   4.127  1.2092  1.0529 -0.2940
   35MOL    H1310281   2.133   3.134   4.127 -1.0036 -2.2300  0.8271
   35MOL    H1410282   2.284   3.115   4.324  0.0907  0.3624 -0.0389
   35MOL    H1510283   2.229   3.269   4.530 -1.0249  0.9833  0.2309
   35MOL    H1610284   2.011   3.621   4.413  2.2697  0.9934 -1.5162
   35MOL    C1710285   1.773   3.448   4.445  0.0880  0.4771 -0.3039
   35MOL    C1810286   1.664   3.345   4.413  0.5349 -0.3968  0.5409
   35MOL    C1910287   1.625   3.256   4.533 -0.1118 -0.2597  0.5495
   35MOL    C2010288   1.657   3.117   4.531 -0.0585 -0.3011 -0.2336
   35MOL    C2110289   1.614   3.042   4.643  0.0229  0.6951 -0.0451
   35MOL    C2210290   1.545   3.097   4.753 -0.8581 -0.2014 -0.0618
   35MOL    C2310291   1.535   3.236   4.745  0.2109  1.2094 -0.0497
   35MOL    N2410292   1.569   3.314   4.637  0.0285  0.2115  0.0389
   35MOL    H2510293   1.740   3.548   4.473  0.6658  0.0134  2.1760
   35MOL    H2610294   1.826   3.423   4.537 -0.2252 -0.2704 -0.3261
   35MOL    H2710295   1.683   3.277   4.331 -0.1466  0.0333  0.0299
   35MOL    H2810296   1.695   3.061   4.446  0.2756  0.7048 -0.7632
   35MOL    H2910297   1.624   2.935   4.655  1.5037  0.8926  0.5507
   35MOL    H3010298   1.520   3.047   4.845  0.4200  1.8626  1.4345
   35MOL    H3110299   1.503   3.298   4.828 -0.6797 -1.5519  1.7201
   35MOL    C3210300   1.552   3.427   4.359  0.1272  0.0313  0.1812
   35MOL    C3310301   1.418   3.361   4.312  0.6815 -0.2381 -0.3150
   35MOL    C3410302   1.304   3.456   4.302  0.2708  0.7884 -0.0795
   35MOL    C3510303   1.168   3.425   4.337 -0.0895  0.6491 -0.1338
   35MOL    C3610304   1.068   3.523   4.296  0.4438 -0.0318  0.6307
   35MOL    C3710305   1.105   3.642   4.230  0.9354 -0.1879 -0.2267
   35MOL    C3810306   1.234   3.666   4.202 -0.5566  0.9728  0.0620
   35MOL    N3910307   1.334   3.575   4.232  0.3504  0.0259  0.1608
   35MOL    H4010308   1.587   3.500   4.286  0.3190  0.4958  0.7339
   35MOL    H4110309   1.521   3.490   4.443  1.5755  1.3101 -0.2190
   35MOL    H4210310   1.388   3.298   4.396 -2.7011 -0.0544 -1.3353
   35MOL    H4310311   1.148   3.332   4.389 -0.5733  0.3277 -0.8729
   35MOL    H4410312   0.964   3.513   4.323 -0.3335  0.1935 -2.1083
   35MOL    H4510313   1.036   3.721   4.205  1.1398 -0.8736 -3.0683
   35MOL    H4610314   1.269   3.756   4.154 -1.1066  1.0433 -0.2074
   35MOL    C4710315   1.433   3.270   4.189  0.4365 -0.1567 -0.5671
   35MOL    C4810316   1.433   3.115   4.214  0.3012  0.2932 -0.5480
   35MOL    C4910317   1.314   3.074   4.298 -0.2490  0.7740 -0.7268
   35MOL    C5010318   1.322   3.004   4.424  0.3908 -0.1709  0.0819
   35MOL    C5110319   1.199   2.970   4.488 -0.0778 -0.0641  0.5953
   35MOL    C5210320   1.077   2.997   4.419 -0.1083  0.2868 -0.2024
   35MOL    C5310321   1.082   3.067   4.298  0.8246 -1.0791 -1.0238
   35MOL    N5410322   1.197   3.109   4.246  0.5328 -0.4367 -0.3934
   35MOL    H5510323   1.521   3.297   4.131 -0.5100 -1.8190 -2.8668
   35MOL    H5610324   1.349   3.293   4.124  0.3889 -0.0696 -0.4758
   35MOL    H5710325   1.520   3.104   4.279  0.0236  0.7839 -0.0950
   35MOL    H5810326   1.420   2.990   4.468  1.0652 -1.4695 -1.7572
   35MOL    H5910327   1.204   2.928   4.588 -1.5506 -1.7690  0.0002
   35MOL    H6010328   0.991   2.975   4.481  0.4282  1.3909  0.9527
   35MOL    H6110329   0.990   3.099   4.252  0.4422  3.3183  2.4193
   35MOL    C6210330   1.449   3.033   4.090 -0.4883  0.2365  0.3968
   35MOL    C6310331   1.596   3.018   4.048 -0.0332  0.0585  0.0444
   35MOL    C6410332   1.684   2.944   4.146 -0.2025  0.7676 -0.6604
   35MOL    C6510333   1.777   3.027   4.212  0.0080 -0.4434 -0.1359
   35MOL    C6610334   1.855   2.977   4.313 -0.2093 -0.3281  0.3820
   35MOL    C6710335   1.820   2.852   4.364 -0.0207  0.0544 -0.1654
   35MOL    C6810336   1.712   2.784   4.299 -0.2504  0.2002  0.1086
   35MOL    N6910337   1.646   2.830   4.196  0.4611 -0.1797 -0.0034
   35MOL    H7010338   1.391   3.072   4.006  0.8277  0.1778 -0.5518
   35MOL    H7110339   1.401   2.935   4.097 -2.6665  1.0385 -2.4655
   35MOL    H7210340   1.640   3.117   4.050  1.0149 -0.4135  2.9059
   35MOL    H7310341   1.794   3.128   4.178 -2.6926 -0.5374 -1.9797
   35MOL    H7410342   1.930   3.039   4.360 -0.5816 -0.7593  1.5633
   35MOL    H7510343   1.871   2.808   4.449  1.5618  1.5480 -0.3312
   35MOL    H7610344   1.697   2.678   4.304  1.4624 -0.0087  1.4016
   35MOL    C7710345   1.604   2.959   3.911  0.7380  0.9401  0.8259
   35MOL    C7810346   1.592   3.065   3.804  0.5408  0.4872  0.4844
   35MOL    C7910347   1.693   3.174   3.823  0.7969  0.6776 -0.0334
   35MOL    C8010348   1.653   3.305   3.844 -0.7623 -0.7682  1.1817
   35MOL    C8110349   1.753   3.404   3.855 -1.0950 -0.0333  0.0289
   35MOL    C8210350   1.888   3.364   3.845 -0.2295 -0.4019 -0.0912
   35MOL    C8310351   1.921   3.230   3.822 -0.0294 -0.3083 -0.4906
   35MOL    N8410352   1.822   3.139   3.804 -0.1118 -0.2260  0.4576
   35MOL    H8510353   1.526   2.885   3.897  1.3970  0.8651 -3.1021
   35MOL    H8610354   1.693   2.897   3.900  0.2977  0.0604  2.0383
   35MOL    H8710355   1.491   3.105   3.812 -0.9226 -2.4435 -2.1719
   35MOL    H8810356   1.550   3.333   3.829 -0.3251  0.2438  0.0183
   35MOL    H8910357   1.725   3.506   3.878  0.6106  0.5376 -0.3630
   35MOL    H9010358   1.959   3.445   3.849 -1.8974  1.0273  1.6855
   35MOL    H9110359   2.024   3.198   3.822  0.2899  0.6671 -1.4193
   35MOL    C9210360   1.596   3.008   3.661  0.1277  0.1065 -0.1043
   35MOL    C9310361   1.491   2.897   3.625 -0.5618  0.0834 -0.3306
   35MOL    C9410362   1.355   2.925   3.687  0.4836 -0.5799  0.5702
   35MOL    C9510363   1.276   2.826   3.741  0.1064  0.7505 -0.0840
   35MOL    C9610364   1.149   2.850   3.793  0.2909  0.2634  0.5081
   35MOL    C9710365   1.098   2.977   3.781 -0.2259 -0.3656 -0.2589
   35MOL    C9810366   1.180   3.078   3.724  0.1096  0.3669  0.3055
   35MOL    N9910367   1.306   3.048   3.675  0.3785  0.3335  0.0226
   35MOL   H10010368   1.696   2.970   3.643  1.1163  1.9500  1.2457
   35MOL   H10110369   1.577   3.095   3.597 -0.9045  1.0184  1.4114
   35MOL   H10210370   1.520   2.809   3.683  0.8480  1.6200  1.3641
   35MOL   H10310371   1.309   2.723   3.739  2.7532  1.5673 -1.0898
   35MOL   H10410372   1.083   2.773   3.829  0.1314 -0.3539 -1.1079
   35MOL   H10510373   0.995   2.995   3.809 -1.3266 -2.5592 -2.7122
   35MOL   H10610374   1.138   3.178   3.729 -2.7657 -0.6803 -1.4999
   35MOL   C10710375   1.474   2.860   3.480 -0.3456  0.0100  0.5866
   35MOL   C10810376   1.588   2.772   3.420 -0.0419 -0.8576  0.2100
   35MOL   C10910377   1.639   2.654   3.500 -0.2996  0.5694  0.5312
   35MOL   C11010378   1.777   2.621   3.512  0.2499 -0.1578  0.1857
   35MOL   C11110379   1.815   2.501   3.570  0.0345 -0.3276  0.0464
   35MOL   C11210380   1.708   2.415   3.609 -0.4776 -0.6256 -0.3686
   35MOL   C11310381   1.576   2.453   3.597  0.4576 -0.4760 -0.3171
   35MOL   N11410382   1.542   2.570   3.536  0.2646  0.0046  0.2582
   35MOL   H11510383   1.445   2.941   3.412 -0.4814 -1.1044 -0.7061
   35MOL   H11610384   1.391   2.791   3.467  0.1315 -0.5123  0.3065
   35MOL   H11710385   1.676   2.835   3.405 -1.3927  1.1475  0.5358
   35MOL   H11810386   1.856   2.683   3.471 -0.9508  0.2919 -1.5365
   35MOL   H11910387   1.920   2.479   3.579  0.3031  0.7033 -0.5048
   35MOL   H12010388   1.735   2.328   3.668  4.0416  1.8830  1.5126
   35MOL   H12110389   1.499   2.384   3.627 -0.6450  0.3138 -1.3180
   35MOL   C12210390   1.557   2.724   3.282  0.1480  0.0700 -0.5531
   35MOL   C12310391   1.507   2.830   3.180  0.0623 -0.2473  0.2298
   35MOL   C12410392   1.595   2.955   3.166 -0.2941  0.3450 -0.0330
   35MOL   C12510393   1.548   3.083   3.167  0.3243  0.0487 -0.1527
   35MOL   C12610394   1.628   3.196   3.157  0.3561 -0.0978 -0.4185
   35MOL   C12710395   1.763   3.168   3.139 -0.5051  0.5258 -0.2876
   35MOL   C12810396   1.807   3.037   3.141 -0.3468 -0.2340  0.4796
   35MOL   N12910397   1.723   2.932   3.148 -0.5868 -0.1313 -0.4221
   35MOL   H13010398   1.495   2.635   3.285 -0.3256  0.4215  0.0674
   35MOL   H13110399   1.648   2.683   3.239  0.2983  2.2354 -2.4370
   35MOL   H13210400   1.412   2.869   3.217  0.0992 -0.5823  0.6920
   35MOL   H13310401   1.442   3.083   3.189  0.2005  0.4940 -0.7545
   35MOL   H13410402   1.586   3.295   3.143  1.3752  0.4307  0.2452
   35MOL   H13510403   1.838   3.245   3.130  1.1629 -0.8835  1.1058
   35MOL   H13610404   1.911   3.015   3.124 -0.4513 -1.2995  1.1519
   35MOL   C13710405   1.478   2.747   3.052  0.1991 -0.1390 -0.0693
   35MOL   C13810406   1.331   2.702   3.047 -0.1639  0.5538  0.4113
   35MOL   C13910407   1.235   2.812   3.035 -0.2041  0.6122  0.1363
   35MOL   C14010408   1.142   2.841   3.135  0.2458  0.4886 -0.6467
   35MOL   C14110409   1.026   2.917   3.107 -0.0232 -0.3316 -0.4410
   35MOL   C14210410   1.012   2.973   2.981  0.1533  0.1840  0.0338
   35MOL   C14310411   1.122   2.956   2.896 -0.0258  0.3879 -0.3284
   35MOL   N14410412   1.237   2.879   2.923 -0.2225 -0.0856  0.1849
   35MOL   H14510413   1.541   2.659   3.035  0.7854  0.0881  0.9221
   35MOL   H14610414   1.481   2.819   2.970 -1.7029  0.2591  0.1932
   35MOL   H14710415   1.302   2.654   3.141  1.2083  1.4600  1.3151
   35MOL   H14810416   1.145   2.809   3.239 -0.7941  2.8042  0.1367
   35MOL   H14910417   0.954   2.935   3.185  0.4585  1.1657 -0.3312
   35MOL   H15010418   0.919   3.024   2.964  0.8683  1.0610 -1.3250
   35MOL   H15110419   1.131   3.008   2.802 -0.1187 -0.6584 -0.9218
   35MOL   C15210420   1.314   2.587   2.941  0.4440 -0.0402  0.1234
   35MOL   C15310421   1.172   2.540   2.912  0.3131 -0.1103 -0.1382
   35MOL   C15410422   1.164   2.444   2.791 -0.7378 -0.4573  0.6037
   35MOL   C15510423   1.091   2.481   2.676  0.2425  0.4651 -0.3332
   35MOL   C15610424   1.064   2.383   2.580  0.0723  0.3590 -1.1373
   35MOL   C15710425   1.121   2.257   2.602  0.7786 -0.3594  0.4702
   35MOL   C15810426   1.194   2.232   2.718 -0.3568 -0.2558 -0.0854
   35MOL   N15910427   1.221   2.326   2.811  0.1317 -0.3638  0.2317
   35MOL   H16010428   1.363   2.492   2.961 -1.9093 -1.1930  0.5829
   35MOL   H16110429   1.355   2.616   2.844  1.2869 -0.2382  0.4214
   35MOL   H16210430   1.107   2.621   2.877  0.0765 -0.2991 -0.1377
   35MOL   H16310431   1.054   2.583   2.673  0.9125  0.6963 -0.7403
   35MOL   H16410432   0.999   2.401   2.495 -1.1992  0.2915 -0.1935
   35MOL   H16510433   1.104   2.185   2.523 -1.5393 -1.5892  2.0274
   35MOL   H16610434   1.249   2.139   2.719  0.0515 -0.0407 -1.7383
   35MOL   C16710435   1.101   2.488   3.040 -0.6243 -0.0940 -0.1854
   35MOL   C16810436   0.952   2.454   3.017 -0.1982 -0.3058  0.1415
   35MOL   C16910437   0.914   2.348   3.117 -0.6123 -0.7120  0.1808
   35MOL   C17010438   0.894   2.217   3.069  0.5869  0.3761 -0.0185
   35MOL   C17110439   0.848   2.117   3.160  0.1356  0.0296  0.1852
   35MOL   C17210440   0.820   2.159   3.293 -0.2196 -0.6203  0.1636
   35MOL   C17310441   0.844   2.295   3.331 -0.3406  0.4293 -0.3437
   35MOL   N17410442   0.896   2.392   3.249  0.5020 -0.3877 -0.0336
   35MOL   H17510443   1.103   2.559   3.122 -0.9879 -0.4226  0.1094
   35MOL   H17610444   1.160   2.401   3.068 -0.2007  0.1868 -0.1937
   35MOL   H17710445   0.931   2.405   2.922 -3.1335  1.5653 -0.2557
   35MOL   H17810446   0.923   2.170   2.976 -3.1834 -0.2660 -0.9523
   35MOL   H17910447   0.846   2.013   3.135  0.5011 -0.1315  0.8036
   35MOL   H18010448   0.787   2.094   3.372 -1.0648  0.5523  0.7878
   35MOL   H18110449   0.830   2.333   3.431  0.2111  1.3455 -0.6180
   35MOL   C18210450   0.860   2.576   3.018 -0.3465  0.3918 -0.7287
   35MOL   C18310451   0.713   2.551   2.978  0.4696 -0.4770 -0.0045
   35MOL   C18410452   0.630   2.685   3.006  0.5887  0.4395 -0.0588
   35MOL   C18510453   0.506   2.687   3.083  0.2561 -0.0684  0.0673
   35MOL   C18610454   0.441   2.809   3.085 -0.2185 -0.4661  0.2898
   35MOL   C18710455   0.482   2.927   3.026 -0.7982 -0.9365 -0.1848
   35MOL   C18810456   0.605   2.910   2.956  0.5158  0.6923  0.3725
   35MOL   N18910457   0.678   2.793   2.944  0.0792 -0.4980  0.3210
   35MOL   H19010458   0.906   2.660   2.967  2.5717 -0.1926  0.8159
   35MOL   H19110459   0.861   2.621   3.118  0.4844  1.1759 -1.0837
   35MOL   H19210460   0.672   2.471   3.040 -0.4454  0.3002  0.4025
   35MOL   H19310461   0.462   2.600   3.130 -0.8329  0.0299 -0.7593
   35MOL   H19410462   0.345   2.822   3.135 -0.8254 -2.3048 -0.3708
   35MOL   H19510463   0.429   3.021   3.027 -1.9153 -1.5543 -0.7468
   35MOL   H19610464   0.651   2.995   2.909 -0.6428  1.6819  1.0118
   35MOL   C19710465   0.697   2.504   2.829  0.1598 -0.5362  0.0097
   35MOL   C19810466   0.671   2.356   2.811  0.1877 -0.0886  0.0351
   35MOL   C19910467   0.542   2.315   2.888 -0.2993 -0.6158 -0.3816
   35MOL   C20010468   0.421   2.385   2.876 -0.1467 -0.1479  0.6462
   35MOL   C20110469   0.303   2.344   2.938 -0.4924 -0.4326 -0.2757
   35MOL   C20210470   0.320   2.235   3.028  0.2722  0.0429  0.6167
   35MOL   C20310471   0.450   2.182   3.051  0.1814  0.1933 -0.3047
   35MOL   N20410472   0.560   2.220   2.975 -0.3391  0.0878 -0.0056
   35MOL   H20510473   0.780   2.541   2.769 -0.2593 -0.0937 -0.2973
   35MOL   H20610474   0.620   2.563   2.779  0.4723 -1.7910 -1.9995
   35MOL   H20710475   0.759   2.307   2.852  1.3219  0.3775 -1.7606
   35MOL   H20810476   0.420   2.477   2.819  0.8384 -1.8445 -2.2033
   35MOL   H20910477   0.205   2.387   2.925  0.2311  1.6241  0.7561
   35MOL   H21010478   0.236   2.205   3.088 -1.2785  0.2278 -1.3941
   35MOL   H21110479   0.469   2.111   3.131 -0.3107  0.6831  0.2507
   35MOL   C21210480   0.666   2.311   2.660 -0.0223 -0.1814 -0.2657
   35MOL   C21310481   0.658   2.157   2.646  0.1738 -0.9211  0.5035
   35MOL   C21410482   0.626   2.115   2.501 -0.5643  1.1610 -0.3196
   35MOL   C21510483   0.500   2.058   2.469  0.1784  0.2370  0.0513
   35MOL   C21610484   0.472   2.036   2.335  0.2236  0.9033  0.4347
   35MOL   C21710485   0.563   2.069   2.237  0.8725  0.6901 -0.3573
   35MOL   C21810486   0.689   2.128   2.275 -0.1088 -0.2023  0.4433
   35MOL   N21910487   0.715   2.157   2.403 -0.1136 -0.3739 -0.1617
   35MOL   H22010488   0.756   2.343   2.609 -0.9720  0.8545 -1.3286
   35MOL   H22110489   0.574   2.352   2.619 -1.8279 -0.9581  2.8039
   35MOL   H22210490   0.579   2.118   2.709 -2.7104  3.5372 -0.0943
   35MOL   H22310491   0.417   2.040   2.535  1.2174 -1.3859  0.9521
   35MOL   H22410492   0.383   1.978   2.315  0.1359  0.5442  1.8154
   35MOL   H22510493   0.539   2.047   2.134  0.1944 -1.6594  0.2830
   35MOL   H22610494   0.775   2.155   2.215 -1.1865 -0.0637 -1.0638
   35MOL   C22710495   0.776   2.082   2.699 -0.1305 -0.4881 -0.0853
   35MOL   C22810496   0.799   1.931   2.677 -0.2719 -0.3602 -0.2567
   35MOL   C22910497   0.939   1.889   2.707 -0.0125 -0.6530  0.4290
   35MOL   C23010498   1.009   1.802   2.624  0.0052  0.4583 -0.1062
   35MOL   C23110499   1.143   1.778   2.658 -0.1004 -0.3072 -0.5877
   35MOL   C23210500   1.199   1.835   2.774  0.4317 -0.1176 -0.8390
   35MOL   C23310501   1.117   1.897   2.864 -0.1667  0.6446 -0.1492
   35MOL   N23410502   0.987   1.922   2.831 -0.1944  1.0949 -1.0471
   35MOL   H23510503   0.782   2.087   2.807  3.3371  0.7798 -0.2574
   35MOL   H23610504   0.867   2.130   2.663 -1.6112  2.2253 -0.3213
   35MOL   H23710505   0.791   1.915   2.570  1.2710  1.1522 -0.6127
   35MOL   H23810506   0.959   1.769   2.534 -1.6535  2.1350  0.1800
   35MOL   H23910507   1.198   1.713   2.592  0.9440 -2.2440  2.1314
   35MOL   H24010508   1.300   1.816   2.807  0.1246 -0.1512  0.1080
   35MOL   H24110509   1.151   1.938   2.958  2.5597 -1.0173 -0.3695
   35MOL   C24210510   0.695   1.840   2.757 -0.6592  0.2311 -0.4834
   35MOL   C24310511   0.587   1.776   2.667 -0.3141 -0.1918  0.2770
   35MOL   C24410512   0.647   1.652   2.604 -0.2693  0.7240 -0.0379
   35MOL   C24510513   0.691   1.653   2.467  0.6094 -0.3801 -0.8735
   35MOL   C24610514   0.705   1.528   2.404  0.3222  0.2402 -0.8584
   35MOL   C24710515   0.692   1.407   2.477 -0.3714  0.0341 -0.5220
   35MOL   C24810516   0.664   1.416   2.611  0.6423  0.3374  0.0218
   35MOL   N24910517   0.648   1.533   2.674  0.0285 -0.0346  0.4839
   35MOL   H25010518   0.645   1.915   2.818  3.9472  0.5362  3.0973
   35MOL   H25110519   0.749   1.764   2.813 -0.3164  0.6301 -0.2740
   35MOL   H25210520   0.565   1.841   2.583 -2.4357  0.6563  1.4563
   35MOL   H25310521   0.670   1.731   2.396 -2.5583  0.7374  1.2310
   35MOL   H25410522   0.722   1.520   2.298  0.8572  3.7414 -1.0719
   35MOL   H25510523   0.713   1.313   2.429  3.1184  0.3683  0.2385
   35MOL   H25610524   0.659   1.327   2.671  0.7628 -0.6528 -1.3984
   35MOL   C25710525   0.457   1.741   2.734  0.1975 -0.4379 -0.1105
   35MOL   C25810526   0.331   1.748   2.644 -0.4849  0.2075  0.1138
   35MOL   C25910527   0.334   1.652   2.519  0.6198  0.1660 -0.6595
   35MOL   C26010528   0.308   1.513   2.533  0.6730 -0.4328 -0.2934
   35MOL   C26110529   0.320   1.427   2.421  0.7225  0.1389 -0.6303
   35MOL   C26210530   0.365   1.483   2.300  0.2162 -0.2642 -0.2738
   35MOL   C26310531   0.386   1.620   2.297  0.2522 -0.3042  0.0492
   35MOL   N26410532   0.370   1.703   2.401  0.2380  0.4500 -0.0892
   35MOL   H26510533   0.449   1.824   2.804  0.9680  0.3045 -0.8778
   35MOL   H26610534   0.460   1.652   2.797 -0.8774 -0.3897  0.0195
   35MOL   H26710535   0.320   1.844   2.593 -0.2066  0.0585 -0.2316
   35MOL   H26810536   0.292   1.479   2.634 -1.6861  0.9350 -0.1618
   35MOL   H26910537   0.307   1.320   2.427  0.6759  0.2029  0.4496
   35MOL   H27010538   0.381   1.425   2.211  0.6402 -1.6289  0.6795
   35MOL   H27110539   0.409   1.673   2.207  1.8425  0.1857  0.7346
   35MOL   C27210540   0.198   1.721   2.726 -0.2293 -0.6138 -0.6163
   35MOL   C27310541   0.135   1.839   2.804  0.9382 -0.2737 -0.0401
   35MOL   C27410542   0.106   1.955   2.709 -0.2951  0.1753 -0.2685
   35MOL   C27510543   0.181   2.071   2.714  0.1054  0.0066  0.0699
   35MOL   C27610544   0.168   2.169   2.612 -0.4366 -0.3733 -0.5632
   35MOL   C27710545   0.054   2.151   2.524 -0.1073  0.6294  0.9661
   35MOL   C27810546   8.132   2.027   2.531 -0.0572  0.1378 -0.6806
   35MOL   N27910547   0.009   1.933   2.622  0.2917  0.4996 -0.1404
   35MOL   H28010548   0.199   1.629   2.786 -3.3185 -1.2209 -1.4209
   35MOL   H28110549   0.132   1.687   2.646 -1.1390  0.7688 -0.4667
   35MOL   H28210550   0.200   1.889   2.876 -1.6335  2.8627  0.2194
   35MOL   H28310551   0.265   2.080   2.782  0.7097  2.4396 -0.9454
   35MOL   H28410552   0.225   2.261   2.613  0.9159 -1.1989  1.9914
   35MOL   H28510553   0.036   2.234   2.457 -0.1329 -2.3108 -2.8109
   35MOL   H28610554   8.043   2.018   2.471  1.6117 -1.5115 -3.0092
   35MOL   C28710555   0.011   1.788   2.881  0.0308 -0.4931 -0.8059
   35MOL   C28810556   8.064   1.889   2.945 -0.0784  0.5191 -0.8183
   35MOL   C28910557   7.961   1.812   3.026 -0.1875  0.0320 -0.5934
   35MOL   C29010558   7.839   1.778   2.974  0.1689  0.2720  0.4211
   35MOL   C29110559   7.745   1.707   3.045 -0.2682  0.4005 -0.0074
   35MOL   C29210560   7.783   1.666   3.176 -0.5074 -0.8022 -0.0653
   35MOL   C29310561   7.908   1.704   3.222 -0.5862 -0.8756 -0.4953
   35MOL   N29410562   7.997   1.780   3.151 -0.6390 -0.8135 -0.3681
   35MOL   H29510563   0.055   1.734   2.965 -0.0130  1.0933  0.2724
   35MOL   H29610564   8.107   1.714   2.824 -3.1766  0.0013  1.5561
   35MOL   H29710565   8.015   1.943   2.865  0.6044  0.7406 -1.0958
   35MOL   H29810566   7.808   1.820   2.880 -1.7618  0.8195  1.2663
   35MOL   H29910567   7.646   1.677   3.015  0.2468 -0.2185 -1.1469
   35MOL   H30010568   7.711   1.623   3.244 -0.6923  1.6155  1.3458
   35MOL   H30110569   7.939   1.679   3.323  0.5379 -0.3669 -0.7096
   35MOL   H30210570   8.118   1.962   3.006 -1.2531  0.8552 -0.1667
   36MOL     C110571   2.208   0.298   7.955 -0.1324 -0.2790 -0.0787
   36MOL     C210572   2.105   0.268   8.060  0.1019  0.2810 -0.5778
   36MOL     C310573   2.152   0.150   0.001  0.2157 -0.1844  0.4996
   36MOL     C410574   2.173   0.165   0.136  0.4308 -0.6488 -0.3283
   36MOL     C510575   2.219   0.056   0.212  0.7832 -0.1682  0.0853
   36MOL     C610576   2.240   8.087   0.144  0.2631  0.3020 -0.6723
   36MOL     C710577   2.206   8.076   0.010 -0.4006 -0.0568 -0.1899
   36MOL     N810578   2.166   0.032   8.090  0.3931 -0.2758 -0.6414
   36MOL     H910579   2.233   0.213   7.891 -2.7048 -0.1673 -1.2685
   36MOL    H1010580   2.180   0.391   7.906 -2.8463 -1.2788 -0.5082
   36MOL    H1110581   2.014   0.232   8.011  0.5147 -0.0955 -1.0659
   36MOL    H1210582   2.156   0.263   0.179  2.4161 -0.4355  0.0368
   36MOL    H1310583   2.246   0.075   0.315 -2.2360 -0.6345  0.9989
   36MOL    H1410584   2.275   7.996   0.189 -0.6236  0.5064  0.4920
   36MOL    H1510585   2.228   7.978   8.121 -1.0024 -1.9373  3.7613
   36MOL    H1610586   2.301   0.320   8.008  0.8600 -1.9214 -1.1027
   36MOL    C1710587   2.055   0.391   8.139 -0.3540  0.3891 -0.3573
   36MOL    C1810588   1.976   0.494   8.063 -0.6604  0.4081  0.2783
   36MOL    C1910589   1.833   0.443   8.023  0.0935 -0.3818  0.3690
   36MOL    C2010590   1.760   0.499   7.915 -0.5551 -0.2700  0.1120
   36MOL    C2110591   1.640   0.438   7.874  0.1718  0.2909  0.1996
   36MOL    C2210592   1.583   0.331   7.949  0.7157 -0.6511 -1.0328
   36MOL    C2310593   1.652   0.301   8.070  0.2009  0.1466  0.4011
   36MOL    N2410594   1.769   0.351   8.103  0.0201 -0.1050 -0.4406
   36MOL    H2510595   2.143   0.437   0.032 -0.6513  1.5639 -0.9448
   36MOL    H2610596   1.998   0.351   0.070  1.4804 -1.3741  0.1079
   36MOL    H2710597   2.027   0.517   7.970 -0.3227  0.8468  0.5707
   36MOL    H2810598   1.808   0.574   7.854 -1.2334 -1.6922 -2.2448
   36MOL    H2910599   1.600   0.469   7.778  4.6356  0.6030 -1.6831
   36MOL    H3010600   1.494   0.281   7.911  1.1296 -1.0102 -1.5383
   36MOL    H3110601   1.622   0.223   8.139 -1.2673  0.5668  0.2521
   36MOL    C3210602   1.960   0.624   8.139  0.1279  0.1638 -0.7953
   36MOL    C3310603   2.081   0.708   0.038  0.4207  0.4696 -0.0509
   36MOL    C3410604   2.203   0.697   8.093 -1.3448 -0.9153 -0.0892
   36MOL    C3510605   2.325   0.641   8.138  0.0098  0.0039 -0.9131
   36MOL    C3610606   2.422   0.616   8.036 -0.9523  0.1138 -0.3883
   36MOL    C3710607   2.394   0.647   7.899  0.7074 -0.4122 -0.2941
   36MOL    C3810608   2.270   0.714   7.875  0.4399  0.0700  0.6263
   36MOL    N3910609   2.176   0.733   7.966 -0.0622 -0.3384 -1.1189
   36MOL    H4010610   1.894   0.608   0.072 -1.0294 -1.4297 -1.9649
   36MOL    H4110611   1.907   0.686   8.068  1.0371 -0.2748 -1.8736
   36MOL    H4210612   2.118   0.651   0.124  1.6465  1.4319  0.0654
   36MOL    H4310613   2.343   0.607   0.086  2.5559 -0.2592 -1.4294
   36MOL    H4410614   2.515   0.564   8.056 -0.5441  0.6295 -0.9428
   36MOL    H4510615   2.470   0.641   7.822 -2.0236 -0.3481 -3.1044
   36MOL    H4610616   2.245   0.765   7.783  1.1662 -2.5381 -1.0689
   36MOL    C4710617   2.057   0.849   0.085  0.1142 -0.5911 -0.1762
   36MOL    C4810618   2.036   0.957   8.132  0.7581 -0.4665 -0.4163
   36MOL    C4910619   1.899   0.963   8.072  0.3312  0.2961 -0.4298
   36MOL    C5010620   1.870   0.912   7.940 -0.0890  0.2572 -0.2360
   36MOL    C5110621   1.739   0.926   7.886  0.0002  0.6602  0.5844
   36MOL    C5210622   1.643   0.984   7.972  0.3003  0.4665 -0.4127
   36MOL    C5310623   1.682   1.035   8.101 -0.6336  0.1758 -0.3755
   36MOL    N5410624   1.806   1.015   8.152  0.3926  0.2296  0.3524
   36MOL    H5510625   2.149   0.878   0.135 -0.1922  1.0484 -0.5593
   36MOL    H5610626   1.981   0.862   0.162  1.1034  0.1787  0.6900
   36MOL    H5710627   2.103   0.949   8.047  1.6085 -1.4086  0.3236
   36MOL    H5810628   1.944   0.864   7.877  0.3088  0.2764  0.2099
   36MOL    H5910629   1.715   0.887   7.788  1.5970 -0.1181  0.4822
   36MOL    H6010630   1.543   1.004   7.938  0.3704 -0.1149 -0.9708
   36MOL    H6110631   1.613   1.095   0.007 -1.7333 -0.0620 -1.4222
   36MOL    C6210632   2.078   1.089   0.040 -0.6305 -0.0630  0.0351
   36MOL    C6310633   2.117   1.197   8.090  0.0071  0.4329 -0.2475
   36MOL    C6410634   2.097   1.336   8.149  0.2293  0.3798  0.9510
   36MOL    C6510635   1.986   1.415   8.121 -0.1970 -0.2262 -0.2218
   36MOL    C6610636   1.964   1.540   0.035  0.3368  0.6319 -0.0829
   36MOL    C6710637   2.051   1.570   0.142 -0.2987  0.3234 -0.6530
   36MOL    C6810638   2.165   1.490   0.159 -0.5864  0.6683  0.0962
   36MOL    N6910639   2.187   1.377   0.085 -0.1816  0.6014 -0.8578
   36MOL    H7010640   2.168   1.081   0.100  1.3297  1.7238 -2.5618
   36MOL    H7110641   2.009   1.130   0.114 -1.4664 -0.4851 -0.5052
   36MOL    H7210642   2.050   1.184   8.005 -0.7281 -0.3100  0.4389
   36MOL    H7310643   1.916   1.382   8.046  1.2632 -2.8042 -0.4901
   36MOL    H7410644   1.883   1.608   0.013  0.2082  0.0863 -1.3444
   36MOL    H7510645   2.048   1.668   0.186 -0.3649 -0.6826  1.6537
   36MOL    H7610646   2.245   1.525   0.224  1.1817 -1.5345 -0.8495
   36MOL    C7710647   2.269   1.188   8.033 -0.0027 -0.5320 -0.1400
   36MOL    C7810648   2.294   1.269   7.899 -0.0020  0.0656 -0.5795
   36MOL    C7910649   2.194   1.231   7.791  0.2782 -0.3258 -0.7266
   36MOL    C8010650   2.080   1.314   7.764  0.1905  1.0158 -0.0061
   36MOL    C8110651   1.983   1.265   7.674  0.2482 -0.2284 -0.4187
   36MOL    C8210652   1.989   1.133   7.632  0.4042 -0.7488  0.2431
   36MOL    C8310653   2.094   1.052   7.685  0.1728  0.5077 -0.5928
   36MOL    N8410654   2.201   1.101   7.753  0.0642  0.3943  0.2144
   36MOL    H8510655   2.291   1.082   8.017  1.2428 -0.2779 -0.1202
   36MOL    H8610656   2.345   1.209   8.108 -0.3694  2.4490 -0.5456
   36MOL    H8710657   2.391   1.226   7.872  0.1184 -0.4988  0.7445
   36MOL    H8810658   2.070   1.416   7.798 -0.6213  0.3540  1.7909
   36MOL    H8910659   1.909   1.332   7.635  1.5025  0.8879 -0.9076
   36MOL    H9010660   1.899   1.086   7.594  1.1379 -1.4533 -0.6648
   36MOL    H9110661   2.085   0.945   7.671  0.3876  0.1019  2.0360
   36MOL    C9210662   2.309   1.423   7.909 -0.7350  0.5321 -0.3418
   36MOL    C9310663   2.440   1.478   7.964 -0.4926 -0.2763  0.1054
   36MOL    C9410664   2.560   1.415   7.899  0.3815  0.0364  0.6454
   36MOL    C9510665   2.654   1.342   7.962 -0.4721  0.2985 -0.2836
   36MOL    C9610666   2.750   1.275   7.894  0.1594 -0.5958  0.1095
   36MOL    C9710667   2.767   1.306   7.760  0.4047  0.4842 -0.2965
   36MOL    C9810668   2.670   1.383   7.693 -1.0586  0.4703  0.0959
   36MOL    N9910669   2.569   1.439   7.763  0.4137 -0.4274 -0.4768
   36MOL   H10010670   2.225   1.467   7.963 -0.2846 -1.1449  1.7842
   36MOL   H10110671   2.292   1.472   7.813  0.7170  0.7628 -0.4897
   36MOL   H10210672   2.441   1.449   8.069  0.4846 -1.7197 -0.2936
   36MOL   H10310673   2.648   1.323   8.068 -0.8146 -0.4237 -0.4296
   36MOL   H10410674   2.834   1.220   7.935  1.7191  1.2062 -0.6252
   36MOL   H10510675   2.837   1.251   7.699  0.0650 -0.3768  0.0758
   36MOL   H10610676   2.675   1.408   7.588  0.7908  0.8867  0.2674
   36MOL   C10710677   2.439   1.635   7.959 -0.3006 -0.1131  0.3170
   36MOL   C10810678   2.444   1.706   8.100 -0.1832 -0.0489  0.4262
   36MOL   C10910679   2.555   1.663   0.038 -0.4704 -0.1309  0.2616
   36MOL   C11010680   2.684   1.659   8.138  0.2190 -0.2774 -0.2775
   36MOL   C11110681   2.779   1.582   0.059 -0.1308 -0.0291  0.2571
   36MOL   C11210682   2.749   1.529   0.184  0.7227 -0.0373  0.4444
   36MOL   C11310683   2.618   1.552   0.237  0.0570 -0.3106 -0.2823
   36MOL   N11410684   2.524   1.616   0.162  0.0155 -0.3029 -0.3907
   36MOL   H11510685   2.364   1.678   7.892 -2.0967 -0.4962  2.0224
   36MOL   H11610686   2.528   1.666   7.904 -1.6993  0.3198 -1.7662
   36MOL   H11710687   2.350   1.688   8.151  0.3710  0.2437  1.5789
   36MOL   H11810688   2.713   1.701   8.043 -0.4356 -1.8868 -1.2172
   36MOL   H11910689   2.883   1.581   0.033 -0.7972 -2.1999 -2.5838
   36MOL   H12010690   2.821   1.483   0.250 -0.7093 -0.9831  1.3675
   36MOL   H12110691   2.581   1.529   0.335 -0.6774 -0.1383 -0.5122
   36MOL   C12210692   2.427   1.857   8.086  0.0359  0.3073 -0.7059
   36MOL   C12310693   2.454   1.942   0.065  0.3233  0.6398 -0.2479
   36MOL   C12410694   2.464   2.094   0.022  0.7685 -0.1773 -0.3383
   36MOL   C12510695   2.570   2.178   0.057 -0.0247 -0.3808 -0.2686
   36MOL   C12610696   2.566   2.310   0.005  0.0198 -0.1195  0.1267
   36MOL   C12710697   2.466   2.356   8.071  0.1208  0.1628 -0.9663
   36MOL   C12810698   2.359   2.265   8.052 -0.2081 -0.6505  0.4093
   36MOL   N12910699   2.359   2.140   8.099 -0.5590 -0.8838 -0.0800
   36MOL   H13010700   2.328   1.877   8.048  0.5138  2.2125 -0.9717
   36MOL   H13110701   2.489   1.891   8.003  0.4156  0.7528 -0.2458
   36MOL   H13210702   2.554   1.916   0.100 -0.5123  0.6038  2.1950
   36MOL   H13310703   2.655   2.143   0.114 -0.3920  0.6285  0.9240
   36MOL   H13410704   2.649   2.377   0.018  0.9046 -0.6135 -2.5919
   36MOL   H13510705   2.451   2.456   8.031 -0.6366 -0.5627 -2.5579
   36MOL   H13610706   2.276   2.279   7.984  0.2881 -1.7459 -0.4336
   36MOL   C13710707   2.352   1.918   0.174  0.3613 -0.4978 -0.3079
   36MOL   C13810708   2.364   2.016   0.294  0.4266 -0.1572 -0.6074
   36MOL   C13910709   2.233   1.998   0.372  0.1047  0.0683  0.1998
   36MOL   C14010710   2.176   1.877   0.403  0.2940 -0.2664 -0.0128
   36MOL   C14110711   2.051   1.866   0.468 -0.4033 -0.1678 -0.2977
   36MOL   C14210712   1.984   1.986   0.491  0.4213  0.4708  0.7411
   36MOL   C14310713   2.042   2.106   0.448  0.1166  0.3383 -0.0021
   36MOL   N14410714   2.169   2.111   0.399 -0.0893 -0.5129  0.6253
   36MOL   H14510715   2.359   1.813   0.201  0.3033 -0.0826  1.3742
   36MOL   H14610716   2.252   1.941   0.137  0.1059 -2.3073 -0.7649
   36MOL   H14710717   2.361   2.119   0.258  1.5995  0.6123  1.4384
   36MOL   H14810718   2.226   1.786   0.373  0.5710 -0.1290  0.0288
   36MOL   H14910719   2.011   1.769   0.493 -1.8618 -0.1044 -2.2619
   36MOL   H15010720   1.886   1.993   0.535  0.2983  3.2713  0.1555
   36MOL   H15110721   2.005   2.205   0.473  0.3268  0.2493  0.6570
   36MOL   C15210722   2.493   2.003   0.374 -0.5121  0.6016 -0.0183
   36MOL   C15310723   2.505   2.085   0.506  0.0371  0.3793 -0.0212
   36MOL   C15410724   2.440   2.010   0.618  0.0642  0.3497 -0.7261
   36MOL   C15510725   2.357   2.073   0.710  0.2451  0.8594 -0.6915
   36MOL   C15610726   2.319   2.002   0.823  0.6976  0.0950 -0.0008
   36MOL   C15710727   2.371   1.876   0.849 -0.3888  0.3291 -0.1325
   36MOL   C15810728   2.457   1.823   0.753  1.0966 -0.2673  0.0172
   36MOL   N15910729   2.488   1.887   0.638  0.0852  0.7456 -0.0788
   36MOL   H16010730   2.565   2.046   0.304 -1.8424  2.1747 -0.4763
   36MOL   H16110731   2.518   1.898   0.387  1.3005  0.7672 -1.8193
   36MOL   H16210732   2.452   2.180   0.503  0.7877  0.7843 -4.8363
   36MOL   H16310733   2.324   2.173   0.684  2.1498  1.2263 -1.8159
   36MOL   H16410734   2.243   2.030   0.894 -0.2397  0.9411 -1.3202
   36MOL   H16510735   2.338   1.823   0.937  4.2609 -0.8186  1.0194
   36MOL   H16610736   2.497   1.723   0.754  2.4244  0.2477 -0.0285
   36MOL   C16710737   2.655   2.112   0.541  0.0056 -0.2397  0.6218
   36MOL   C16810738   2.725   2.215   0.453 -0.3718  0.1925  0.0176
   36MOL   C16910739   2.671   2.362   0.468 -0.2033  0.3609 -0.1698
   36MOL   C17010740   2.555   2.404   0.400 -0.0369  0.9442 -0.5430
   36MOL   C17110741   2.520   2.536   0.408  0.4977 -0.4550  0.3770
   36MOL   C17210742   2.598   2.620   0.493  0.2704  0.1291  0.2168
   36MOL   C17310743   2.705   2.570   0.566 -0.2568  0.3135 -0.0279
   36MOL   N17410744   2.743   2.440   0.556  0.1983  0.3374  0.1225
   36MOL   H17510745   2.720   2.025   0.539 -0.0740 -0.3090  0.9936
   36MOL   H17610746   2.655   2.142   0.646 -2.5708  0.0522  0.5782
   36MOL   H17710747   2.718   2.193   0.346  1.1561 -0.8679  0.1136
   36MOL   H17810748   2.492   2.349   0.332 -0.6817 -0.0280  0.8239
   36MOL   H17910749   2.438   2.575   0.349  1.4265 -0.4657 -0.9476
   36MOL   H18010750   2.563   2.721   0.508 -1.3913 -0.6448  1.7619
   36MOL   H18110751   2.767   2.624   0.636 -0.7084 -0.9639  1.3682
   36MOL   C18210752   2.883   2.212   0.477  0.0424  0.2989 -0.1955
   36MOL   C18310753   2.951   2.082   0.426 -0.5314 -0.1013  0.1972
   36MOL   C18410754   2.959   2.085   0.273  0.5595  0.4026  0.2838
   36MOL   C18510755   2.881   1.999   0.195  0.3014  0.1897 -1.0556
   36MOL   C18610756   2.893   2.005   0.052 -0.4961  0.3243 -0.2447
   36MOL   C18710757   2.969   2.102   8.143  0.1076 -0.3360 -0.6495
   36MOL   C18810758   3.036   2.191   0.082 -0.2375 -0.2162  0.4952
   36MOL   N18910759   3.030   2.189   0.216 -0.0367 -0.2238 -0.0230
   36MOL   H19010760   2.915   2.233   0.579  1.2254 -0.8499 -0.3142
   36MOL   H19110761   2.926   2.302   0.433  0.1876  0.0368 -0.5935
   36MOL   H19210762   2.898   1.991   0.455 -2.4108  1.3831  1.5559
   36MOL   H19310763   2.818   1.921   0.236  1.8354  0.0663  1.1881
   36MOL   H19410764   2.844   1.932   8.141 -0.7501  1.2199 -1.0831
   36MOL   H19510765   2.977   2.108   8.036  1.8089 -0.3008 -0.5302
   36MOL   H19610766   3.090   2.273   0.038  0.9704 -1.1998  0.1128
   36MOL   C19710767   3.091   2.076   0.499  0.4045  0.2629 -0.1560
   36MOL   C19810768   3.137   1.938   0.529  0.3583 -0.1846 -0.8650
   36MOL   C19910769   3.158   1.865   0.398 -0.7920  0.1707 -0.7328
   36MOL   C20010770   3.071   1.755   0.362 -0.8652  0.6743  0.3377
   36MOL   C20110771   3.084   1.712   0.224 -0.7739  0.4604  0.2724
   36MOL   C20210772   3.188   1.761   0.147  0.7080  0.0722  0.1494
   36MOL   C20310773   3.271   1.862   0.195 -0.1483  0.1761 -1.0628
   36MOL   N20410774   3.256   1.914   0.319 -0.2011 -0.3105  0.0139
   36MOL   H20510775   3.089   2.133   0.592  2.1203 -0.0808  0.0981
   36MOL   H20610776   3.162   2.136   0.443  1.8345  0.1747  1.5032
   36MOL   H20710777   3.056   1.894   0.586 -1.0318  1.5629 -1.4350
   36MOL   H20810778   2.979   1.727   0.411 -0.0814 -2.0131  0.3656
   36MOL   H20910779   3.014   1.639   0.188  0.1903 -0.2791 -0.1044
   36MOL   H21010780   3.210   1.719   0.050 -0.7585  0.3051 -0.3011
   36MOL   H21110781   3.352   1.889   0.129  1.2093 -1.6708 -0.1834
   36MOL   C21210782   3.263   1.954   0.614 -0.7753  0.2178  0.0087
   36MOL   C21310783   3.345   1.831   0.659 -0.8157 -0.3218  0.3399
   36MOL   C21410784   3.493   1.867   0.668 -0.4964  0.1541  0.1911
   36MOL   C21510785   3.584   1.801   0.586 -0.4494 -0.4305  0.8923
   36MOL   C21610786   3.715   1.840   0.601 -0.8046 -0.2181 -0.4582
   36MOL   C21710787   3.754   1.944   0.689  0.4106 -0.2061 -0.3677
   36MOL   C21810788   3.652   2.010   0.761  0.0992 -1.0087  0.4068
   36MOL   N21910789   3.528   1.970   0.749 -0.3451  0.7382  0.3214
   36MOL   H22010790   3.229   2.001   0.706 -2.0703 -0.2774 -0.2030
   36MOL   H22110791   3.334   2.019   0.562 -0.7578  0.1029 -0.1102
   36MOL   H22210792   3.349   1.761   0.576 -0.8863 -1.0853  0.9821
   36MOL   H22310793   3.572   1.726   0.509  3.0724  0.8994 -1.0884
   36MOL   H22410794   3.789   1.783   0.547 -0.3205 -1.3398  1.3505
   36MOL   H22510795   3.855   1.967   0.719  1.0225  0.7218 -2.9451
   36MOL   H22610796   3.671   2.088   0.833 -2.1384  0.9866 -1.1165
   36MOL   C22710797   3.291   1.765   0.791 -0.4791 -0.2351  0.1395
   36MOL   C22810798   3.385   1.653   0.850 -0.0810 -1.1691 -0.4228
   36MOL   C22910799   3.348   1.621   0.991 -0.2298 -0.6771 -0.5739
   36MOL   C23010800   3.421   1.653   1.104  0.2533 -0.4736 -0.2601
   36MOL   C23110801   3.373   1.607   1.228 -0.4176  0.1706 -0.0753
   36MOL   C23210802   3.262   1.520   1.230 -0.4591 -0.8937 -0.3460
   36MOL   C23310803   3.203   1.481   1.110 -0.6946 -0.1287  0.8895
   36MOL   N23410804   3.235   1.545   0.994  0.4282 -0.2847 -0.0069
   36MOL   H23510805   3.199   1.712   0.769  0.0208 -1.1371  0.2072
   36MOL   H23610806   3.269   1.844   0.863 -1.4829  0.2970 -0.7385
   36MOL   H23710807   3.479   1.707   0.862 -1.1801  0.6946 -0.0784
   36MOL   H23810808   3.508   1.716   1.108 -0.1773  0.0161  2.2814
   36MOL   H23910809   3.415   1.652   1.317  0.1084  0.7360 -0.6058
   36MOL   H24010810   3.218   1.485   1.322 -1.6742  1.8024  0.1356
   36MOL   H24110811   3.131   1.401   1.098 -0.4937  0.0614 -1.9186
   36MOL   C24210812   3.403   1.527   0.757 -0.9184 -0.2119  0.0802
   36MOL   C24310813   3.521   1.441   0.804  0.5504  0.0386  0.1482
   36MOL   C24410814   3.507   1.292   0.770  0.3981 -0.0849  0.5178
   36MOL   C24510815   3.516   1.198   0.878 -0.4012 -0.3571  0.1288
   36MOL   C24610816   3.513   1.058   0.853 -0.4499 -0.7139 -0.1673
   36MOL   C24710817   3.492   1.016   0.719 -0.2513  0.6263  0.4273
   36MOL   C24810818   3.496   1.110   0.624 -0.5243  0.1241 -0.3498
   36MOL   N24910819   3.488   1.245   0.643 -0.1291 -0.2603 -0.1857
   36MOL   H25010820   3.405   1.550   0.651  2.6088  3.0424  0.7236
   36MOL   H25110821   3.316   1.463   0.770  1.4303 -3.3133  1.2956
   36MOL   H25210822   3.515   1.440   0.913  0.8354  1.9509  0.1879
   36MOL   H25310823   3.529   1.234   0.979 -0.2568 -1.0656  0.3672
   36MOL   H25410824   3.519   0.983   0.931  0.4496 -0.1078  0.3529
   36MOL   H25510825   3.497   0.912   0.693 -0.9420  0.8238 -0.5067
   36MOL   H25610826   3.478   1.082   0.521 -1.2691  1.2486 -0.5302
   36MOL   C25710827   3.651   1.491   0.747 -0.8548  0.4906  0.0629
   36MOL   C25810828   3.771   1.476   0.843 -0.1387  0.2600 -0.2222
   36MOL   C25910829   3.898   1.491   0.761  0.1901  0.0254 -0.1659
   36MOL   C26010830   3.965   1.375   0.717  0.4681  0.3590  0.0247
   36MOL   C26110831   4.062   1.382   0.615  0.0962  0.0166  0.0001
   36MOL   C26210832   4.092   1.514   0.573 -0.5665 -0.0881  0.7253
   36MOL   C26310833   4.036   1.629   0.635 -0.0314  0.1224 -0.4705
   36MOL   N26410834   3.937   1.618   0.726 -0.0653  0.2670 -0.8248
   36MOL   H26510835   3.652   1.599   0.729 -0.4152  0.7891  1.7456
   36MOL   H26610836   3.672   1.431   0.659 -0.2765  1.9485 -0.8097
   36MOL   H26710837   3.767   1.375   0.884  2.7769  0.4657  0.6817
   36MOL   H26810838   3.927   1.281   0.754  1.9544 -0.6045 -0.8614
   36MOL   H26910839   4.108   1.295   0.570 -0.8403  0.1264 -1.2018
   36MOL   H27010840   4.175   1.522   0.504 -1.1281 -1.9054 -0.1865
   36MOL   H27110841   4.078   1.724   0.608  1.3751 -0.6883 -1.2041
   36MOL   C27210842   3.762   1.566   0.971 -0.3010 -0.0262  0.1023
   36MOL   C27310843   3.868   1.536   1.082  0.2827  0.0941 -0.0237
   36MOL   C27410844   3.845   1.618   1.214 -0.0544 -0.3926  0.8521
   36MOL   C27510845   3.942   1.702   1.269  0.5915 -0.4244  0.2131
   36MOL   C27610846   3.910   1.784   1.381 -0.4143  0.6836 -0.2008
   36MOL   C27710847   3.782   1.770   1.441  0.5901 -0.9012 -0.4918
   36MOL   C27810848   3.692   1.679   1.374 -0.1421  0.6871  0.6601
   36MOL   N27910849   3.720   1.610   1.266  0.1988  0.2581  0.5546
   36MOL   H28010850   3.663   1.560   1.015  0.4926 -1.6226  1.7431
   36MOL   H28110851   3.787   1.670   0.948 -0.1588 -0.3260 -1.1115
   36MOL   H28210852   3.961   1.572   1.038  0.7770  2.0066  2.4162
   36MOL   H28310853   4.038   1.710   1.221  0.0701 -1.4160 -1.0230
   36MOL   H28410854   3.981   1.856   1.420 -1.3803  1.8106 -0.4900
   36MOL   H28510855   3.754   1.827   1.529 -0.0360 -0.5063 -0.9434
   36MOL   H28610856   3.600   1.644   1.417 -1.4437 -1.2994 -3.4518
   36MOL   C28710857   3.886   1.385   1.120 -0.8040  0.2369  0.7037
   36MOL   C28810858   3.770   1.316   1.192 -0.9202 -0.4374 -0.5677
   36MOL   C28910859   3.804   1.170   1.206 -0.0360  0.4476  0.0508
   36MOL   C29010860   3.775   1.101   1.328 -0.2209  0.1279  0.1820
   36MOL   C29110861   3.796   0.963   1.334  0.0853 -0.7514  0.3023
   36MOL   C29210862   3.841   0.898   1.216 -0.4018 -0.7916  0.2141
   36MOL   C29310863   3.850   0.975   1.102 -0.1764 -0.4770  0.6924
   36MOL   N29410864   3.836   1.108   1.096 -0.3981 -0.2597 -0.1002
   36MOL   H29510865   3.976   1.383   1.181  0.2741  0.2937 -0.8535
   36MOL   H29610866   3.906   1.325   1.031 -2.0518  0.3600  0.3353
   36MOL   H29710867   3.683   1.333   1.128 -2.3920  0.9761  1.7373
   36MOL   H29810868   3.729   1.150   1.412  0.1778 -0.0204  0.4867
   36MOL   H29910869   3.772   0.905   1.422 -2.4974 -2.2426 -1.3349
   36MOL   H30010870   3.860   0.792   1.206 -1.8312 -0.8376 -2.6780
   36MOL   H30110871   3.878   0.928   1.009  0.1125 -1.9401  1.4935
   36MOL   H30210872   3.763   1.363   1.290 -0.9363 -0.7368 -0.4256
   37MOL     C110873   4.045   2.152   2.272 -0.4375  0.0813  0.2304
   37MOL     C210874   4.014   2.263   2.174  0.0672 -0.5509  0.1020
   37MOL     C310875   4.142   2.290   2.097  0.4308 -0.6926  0.9059
   37MOL     C410876   4.212   2.414   2.102  0.1032 -0.7459 -0.0093
   37MOL     C510877   4.324   2.440   2.016 -0.7763  0.3169  0.5585
   37MOL     C610878   4.357   2.332   1.930 -0.7651 -0.2612 -0.0504
   37MOL     C710879   4.283   2.214   1.928 -0.0241 -0.7331 -0.0678
   37MOL     N810880   4.178   2.191   2.010 -0.2774  0.5098  0.1297
   37MOL     H910881   4.067   2.059   2.220  0.8503  0.4564  0.0991
   37MOL    H1010882   4.124   2.182   2.341  0.0658  1.0688 -0.7655
   37MOL    H1110883   3.973   2.349   2.228 -3.3059 -2.6604  1.0990
   37MOL    H1210884   4.177   2.495   2.164 -1.8769 -2.1077  0.7155
   37MOL    H1310885   4.368   2.538   2.008  2.0349 -1.0392 -1.5461
   37MOL    H1410886   4.442   2.339   1.864 -1.2237  0.5152 -0.5639
   37MOL    H1510887   4.308   2.128   1.867  0.7783 -0.0528 -0.7154
   37MOL    H1610888   3.955   2.134   2.331 -0.6630  1.6181  0.3792
   37MOL    C1710889   3.890   2.222   2.085 -0.0068 -0.3139 -0.1248
   37MOL    C1810890   3.835   2.314   1.975  0.5702  0.3034 -0.3754
   37MOL    C1910891   3.821   2.234   1.848 -0.7542 -0.7654  0.2054
   37MOL    C2010892   3.887   2.271   1.730 -0.1374  0.3042  1.4678
   37MOL    C2110893   3.866   2.205   1.609  0.3734 -0.1578  0.4852
   37MOL    C2210894   3.778   2.096   1.605 -0.1721 -0.1341 -0.4549
   37MOL    C2310895   3.713   2.069   1.729  0.3069 -0.4792  0.0628
   37MOL    N2410896   3.732   2.137   1.847  0.6233 -0.7592  0.8220
   37MOL    H2510897   3.806   2.207   2.152 -0.2131 -1.3713 -0.6050
   37MOL    H2610898   3.902   2.122   2.043  3.3508  0.0959 -0.2674
   37MOL    H2710899   3.909   2.393   1.960 -1.1989  2.4068  1.6013
   37MOL    H2810900   3.943   2.364   1.731 -1.4593  1.1058  2.0163
   37MOL    H2910901   3.905   2.246   1.518 -0.0051 -3.7616 -1.4038
   37MOL    H3010902   3.746   2.041   1.517 -0.1993  0.6137 -0.9246
   37MOL    H3110903   3.638   1.992   1.742  2.2179 -2.1611  1.4428
   37MOL    C3210904   3.694   2.384   2.009  0.5028  0.1504  0.1663
   37MOL    C3310905   3.687   2.488   2.128 -0.3556  0.5884  0.4871
   37MOL    C3410906   3.781   2.613   2.112 -0.2800 -0.2755  0.0817
   37MOL    C3510907   3.890   2.639   2.193  0.1826 -0.3193  0.0767
   37MOL    C3610908   3.969   2.752   2.166 -0.1325 -0.4328 -0.3341
   37MOL    C3710909   3.922   2.840   2.057  0.3863  0.7451 -0.1806
   37MOL    C3810910   3.811   2.800   1.986  0.2659  0.0280  0.5770
   37MOL    N3910911   3.747   2.688   2.006  1.1910 -0.1155 -0.1917
   37MOL    H4010912   3.612   2.313   2.019  0.2024  0.5195  0.3692
   37MOL    H4110913   3.661   2.431   1.916 -0.3084  0.3620  0.5550
   37MOL    H4210914   3.708   2.447   2.227 -3.4679  2.4464  1.9929
   37MOL    H4310915   3.918   2.565   2.266  0.5609  1.1714  1.4603
   37MOL    H4410916   4.056   2.778   2.224 -1.5391 -0.9827  2.0922
   37MOL    H4510917   3.967   2.936   2.035  3.2610 -0.4607  0.1491
   37MOL    H4610918   3.763   2.858   1.909  1.8698 -0.7594 -1.0542
   37MOL    C4710919   3.542   2.532   2.161  0.3997 -0.1610  0.4607
   37MOL    C4810920   3.437   2.431   2.207 -0.5302  0.2829  0.1213
   37MOL    C4910921   3.492   2.314   2.284  0.3132  0.1892 -0.3838
   37MOL    C5010922   3.479   2.188   2.222 -0.2135 -0.4129  0.5851
   37MOL    C5110923   3.531   2.074   2.293 -0.3757 -0.2459  0.3952
   37MOL    C5210924   3.581   2.095   2.423 -0.7836 -0.1264  0.6329
   37MOL    C5310925   3.581   2.220   2.476 -0.6287 -0.0476  0.7839
   37MOL    N5410926   3.541   2.329   2.407  0.2840 -0.2270  0.0492
   37MOL    H5510927   3.501   2.606   2.091 -1.4188  0.1951  1.8457
   37MOL    H5610928   3.555   2.603   2.242 -1.1819  0.3085  0.3346
   37MOL    H5710929   3.395   2.397   2.113 -1.4905  1.0846  0.2585
   37MOL    H5810930   3.441   2.183   2.122  0.5679  0.9513  0.2164
   37MOL    H5910931   3.527   1.975   2.250  0.3912  0.1328 -0.5725
   37MOL    H6010932   3.602   2.010   2.487  2.8385  0.5428  0.4474
   37MOL    H6110933   3.605   2.233   2.581 -0.3457 -0.1100  0.7281
   37MOL    C6210934   3.319   2.498   2.280  0.9963 -0.1636 -0.6536
   37MOL    C6310935   3.235   2.601   2.191  0.0679  0.0997 -0.3701
   37MOL    C6410936   3.177   2.556   2.060  0.5114 -0.7323 -0.1371
   37MOL    C6510937   3.204   2.625   1.941 -0.2375  0.2488  0.0882
   37MOL    C6610938   3.149   2.565   1.827  0.3607  0.4422  0.1951
   37MOL    C6710939   3.072   2.443   1.842 -0.3796  0.1057  0.1963
   37MOL    C6810940   3.056   2.392   1.966  0.3312  0.2222  0.4991
   37MOL    N6910941   3.112   2.441   2.075  0.9525 -0.0473  0.2168
   37MOL    H7010942   3.358   2.554   2.365  0.1067  0.1110 -0.4216
   37MOL    H7110943   3.259   2.410   2.304  0.6003 -0.5789 -3.0689
   37MOL    H7210944   3.304   2.683   2.167  0.8700  0.2336  2.1288
   37MOL    H7310945   3.265   2.714   1.949 -0.1342  0.3244 -1.5045
   37MOL    H7410946   3.165   2.606   1.728  0.9243  3.4274  1.4560
   37MOL    H7510947   3.042   2.388   1.754 -0.5468  1.8879 -0.8907
   37MOL    H7610948   3.009   2.298   1.989 -2.1511  0.9079 -1.4791
   37MOL    C7710949   3.113   2.662   2.274 -0.1572 -0.1321  0.0500
   37MOL    C7810950   3.149   2.804   2.340  0.3150 -0.2458 -0.5978
   37MOL    C7910951   3.161   2.913   2.234 -0.5668 -0.1546 -0.6090
   37MOL    C8010952   3.281   2.978   2.214 -1.4818 -0.2241  0.1181
   37MOL    C8110953   3.289   3.095   2.138 -0.0092 -0.8424  0.4886
   37MOL    C8210954   3.171   3.144   2.072 -0.0833 -0.0227  0.6665
   37MOL    C8310955   3.058   3.063   2.089  0.2909  0.5069  0.6064
   37MOL    N8410956   3.046   2.958   2.174 -0.7808 -0.4305 -0.2351
   37MOL    H8510957   3.082   2.586   2.346 -1.5760  0.3724 -0.0080
   37MOL    H8610958   3.025   2.669   2.210  0.4893  0.2204 -0.8195
   37MOL    H8710959   3.243   2.806   2.396 -1.7615  3.3939  3.0531
   37MOL    H8810960   3.368   2.954   2.274 -2.0982 -0.0801  1.0921
   37MOL    H8910961   3.376   3.155   2.118  0.3737 -1.5637 -0.0201
   37MOL    H9010962   3.169   3.230   2.006  1.0006 -0.2570  0.3262
   37MOL    H9110963   2.964   3.085   2.040  0.5802 -0.1517 -0.2579
   37MOL    C9210964   3.040   2.834   2.451 -0.6925  0.6740 -0.2760
   37MOL    C9310965   3.064   2.805   2.598  0.1617  0.6283 -0.3506
   37MOL    C9410966   3.141   2.670   2.621  0.8797  0.3834 -0.4664
   37MOL    C9510967   3.084   2.537   2.629  0.4157 -0.0642  0.2684
   37MOL    C9610968   3.161   2.420   2.624  0.4550 -0.2013  0.1805
   37MOL    C9710969   3.296   2.442   2.626  0.1083 -0.0727  0.4069
   37MOL    C9810970   3.345   2.570   2.642  0.1756  0.8265  0.3872
   37MOL    N9910971   3.277   2.682   2.628 -0.7180 -0.2333 -0.0552
   37MOL   H10010972   2.953   2.774   2.426  1.6165 -2.1647 -1.7553
   37MOL   H10110973   3.020   2.941   2.444  0.3715  0.6883 -3.9279
   37MOL   H10210974   2.975   2.775   2.653  0.3484  2.4115  0.9611
   37MOL   H10310975   2.977   2.523   2.623  0.3416  0.2832  0.7809
   37MOL   H10410976   3.116   2.323   2.639  0.3109 -0.3497 -1.2196
   37MOL   H10510977   3.368   2.362   2.620  0.1648  0.0477 -0.5465
   37MOL   H10610978   3.451   2.586   2.635  0.1238  1.9703  1.9834
   37MOL   C10710979   3.122   2.917   2.681 -0.2224  0.1447 -0.2188
   37MOL   C10810980   3.033   3.036   2.713 -0.2818 -0.6739 -0.9080
   37MOL   C10910981   2.924   3.011   2.818  0.5579  0.6208  0.0207
   37MOL   C11010982   2.789   3.014   2.779 -0.6884 -0.0034 -0.4199
   37MOL   C11110983   2.688   3.008   2.881 -0.0760 -0.0017 -0.1301
   37MOL   C11210984   2.732   2.996   3.011 -0.5967 -0.9994 -0.0344
   37MOL   C11310985   2.868   2.981   3.043  0.2460  0.1026  0.1670
   37MOL   N11410986   2.960   2.982   2.942 -0.2581 -0.0734  0.0202
   37MOL   H11510987   3.206   2.949   2.619  0.8705 -0.4943  0.9217
   37MOL   H11610988   3.161   2.876   2.774  1.2444 -0.9339 -1.2844
   37MOL   H11710989   2.978   3.063   2.623 -0.1093  0.5730 -0.6488
   37MOL   H11810990   2.766   3.038   2.676  0.2558 -1.0945 -0.8953
   37MOL   H11910991   2.584   3.028   2.860 -0.7002 -2.3193  0.6350
   37MOL   H12010992   2.658   3.004   3.090 -0.5165  3.5214 -0.2655
   37MOL   H12110993   2.908   2.967   3.142 -1.5312  0.7988  1.0121
   37MOL   C12210994   3.108   3.161   2.758 -0.1790  0.4733 -0.2505
   37MOL   C12310995   3.184   3.250   2.645  0.1939  0.1189 -0.2755
   37MOL   C12410996   3.086   3.327   2.547  0.5460  0.4900  0.7230
   37MOL   C12510997   3.083   3.299   2.409 -0.1938 -0.2234 -0.5759
   37MOL   C12610998   2.993   3.380   2.330 -0.2854  0.1905 -0.5115
   37MOL   C12710999   2.927   3.484   2.396  0.1256  0.5805 -0.3374
   37MOL   C12811000   2.943   3.507   2.532  0.5551  0.3742  0.4538
   37MOL   N12911001   3.012   3.429   2.613  0.1366  0.1762  0.1227
   37MOL   H13011002   3.174   3.126   2.838 -0.1106 -1.0090 -0.9444
   37MOL   H13111003   3.033   3.224   2.806  0.4808  0.3068  1.0416
   37MOL   H13211004   3.236   3.173   2.587  2.1147 -0.6485  2.3968
   37MOL   H13311005   3.137   3.219   2.362 -0.7084 -0.9545  0.0499
   37MOL   H13411006   2.980   3.364   2.224  0.9343 -1.8084 -0.3856
   37MOL   H13511007   2.875   3.557   2.336  0.7953  0.4879 -1.0298
   37MOL   H13611008   2.894   3.592   2.577  0.1031 -0.0457  0.7546
   37MOL   C13711009   3.284   3.342   2.714  0.3099  0.3296 -0.6700
   37MOL   C13811010   3.440   3.302   2.717  0.5036  0.3295 -0.4656
   37MOL   C13911011   3.456   3.184   2.810 -0.2161  0.0247 -0.2520
   37MOL   C14011012   3.452   3.052   2.764 -0.7992  0.1728  0.0570
   37MOL   C14111013   3.459   2.953   2.861  0.4882  0.0113  0.3313
   37MOL   C14211014   3.489   2.990   2.993 -0.0364 -0.2822  0.3432
   37MOL   C14311015   3.494   3.130   3.026 -0.6850 -0.1188  0.1515
   37MOL   N14411016   3.481   3.227   2.937 -0.1653  0.1699  0.0591
   37MOL   H14511017   3.247   3.369   2.813 -0.7853 -1.2356 -0.6394
   37MOL   H14611018   3.294   3.436   2.660 -0.0420  0.7258 -0.0540
   37MOL   H14711019   3.495   3.387   2.756 -0.9077  1.4685 -0.9033
   37MOL   H14811020   3.440   3.031   2.659  0.7171  1.1217 -0.3195
   37MOL   H14911021   3.435   2.850   2.839 -0.9307  0.2267  0.8554
   37MOL   H15011022   3.484   2.904   3.059 -0.1538 -0.5622 -0.0242
   37MOL   H15111023   3.510   3.165   3.127  0.1241 -3.1280  1.0963
   37MOL   C15211024   3.502   3.280   2.576  0.4799  0.2121 -0.2739
   37MOL   C15311025   3.652   3.242   2.574  1.0275  0.3119 -0.8723
   37MOL   C15411026   3.674   3.104   2.512 -0.2922 -0.4250 -0.0067
   37MOL   C15511027   3.721   2.999   2.595  0.1803 -0.6956 -0.0870
   37MOL   C15611028   3.740   2.872   2.533  0.1587 -0.3465 -0.2589
   37MOL   C15711029   3.718   2.857   2.395  0.3578 -0.1834 -0.6655
   37MOL   C15811030   3.665   2.972   2.327  0.1143 -0.1587  0.2903
   37MOL   N15911031   3.636   3.090   2.387 -0.6608 -0.3163  0.2244
   37MOL   H16011032   3.492   3.373   2.520  1.0656  0.9756  0.8753
   37MOL   H16111033   3.447   3.198   2.529 -1.7847  0.8751  1.1457
   37MOL   H16211034   3.679   3.241   2.679 -2.6465 -0.7438  0.1322
   37MOL   H16311035   3.734   3.008   2.701  1.6239 -3.3179 -0.0005
   37MOL   H16411036   3.779   2.789   2.590  1.8104 -1.0582 -2.3562
   37MOL   H16511037   3.726   2.760   2.349 -0.1227 -0.3934 -0.3168
   37MOL   H16611038   3.633   2.972   2.224 -0.9267 -0.0674  0.6120
   37MOL   C16711039   3.741   3.347   2.502 -0.1729  0.1581 -0.3473
   37MOL   C16811040   3.893   3.297   2.484 -0.7106  0.4699  0.3555
   37MOL   C16911041   3.960   3.372   2.367 -0.2531 -0.4656 -0.4469
   37MOL   C17011042   3.988   3.310   2.243  0.8876  0.1626  0.5490
   37MOL   C17111043   4.064   3.383   2.151 -0.0663 -0.1275  0.0398
   37MOL   C17211044   4.090   3.517   2.175 -0.1274 -0.5189 -0.0471
   37MOL   C17311045   4.053   3.573   2.298  0.0757 -0.1896  0.8631
   37MOL   N17411046   4.001   3.503   2.394  0.1054  0.5797 -0.4824
   37MOL   H17511047   3.735   3.438   2.561 -1.8230 -1.0366  1.3518
   37MOL   H17611048   3.704   3.377   2.404  1.7437  2.2054 -0.5052
   37MOL   H17711049   3.892   3.194   2.450  0.5767 -0.4576  3.0053
   37MOL   H17811050   3.963   3.208   2.216  1.7044  0.2534 -0.5835
   37MOL   H17911051   4.088   3.341   2.054  2.4778 -0.4327  0.7742
   37MOL   H18011052   4.126   3.581   2.096 -0.4682  0.6230  0.7068
   37MOL   H18111053   4.078   3.673   2.331 -2.4304  1.2033 -1.2392
   37MOL   C18211054   3.984   3.299   2.607 -0.0598  0.3243 -0.4280
   37MOL   C18311055   4.124   3.243   2.578 -0.0611 -1.0766  0.3119
   37MOL   C18411056   4.237   3.305   2.658  0.1866 -0.6525 -0.8605
   37MOL   C18511057   4.316   3.408   2.599 -0.3180 -0.3272  0.2430
   37MOL   C18611058   4.407   3.473   2.683  0.5612  0.2362  0.6189
   37MOL   C18711059   4.410   3.436   2.821  0.0453  0.8199 -0.1201
   37MOL   C18811060   4.331   3.333   2.866 -0.6591  0.3990 -0.7228
   37MOL   N18911061   4.244   3.271   2.791  0.3045  0.5131  0.4633
   37MOL   H19011062   3.939   3.264   2.700 -1.2598  1.2977 -0.6319
   37MOL   H19111063   3.991   3.404   2.636 -1.4487 -0.0402  1.3474
   37MOL   H19211064   4.142   3.270   2.474  1.0715 -0.6408  0.6169
   37MOL   H19311065   4.317   3.432   2.494 -0.7232 -0.0915  0.2912
   37MOL   H19411066   4.482   3.545   2.655  1.4880 -0.7387  0.5168
   37MOL   H19511067   4.463   3.499   2.892 -0.8685  2.9234 -1.2592
   37MOL   H19611068   4.323   3.300   2.969  4.5150  0.0310 -0.3006
   37MOL   C19711069   4.127   3.091   2.574  0.9110 -0.4057  0.0839
   37MOL   C19811070   4.252   3.023   2.523 -0.6107 -0.1045  0.2362
   37MOL   C19911071   4.265   2.878   2.571 -0.0880  0.2761  1.0071
   37MOL   C20011072   4.367   2.841   2.656 -0.7768  0.1782  0.5576
   37MOL   C20111073   4.367   2.715   2.711  0.8874  0.1956  0.1720
   37MOL   C20211074   4.270   2.626   2.660  0.3536 -0.7641  0.2090
   37MOL   C20311075   4.179   2.675   2.561 -0.4293  0.7516 -0.6136
   37MOL   N20411076   4.171   2.795   2.516  0.2598  0.1919 -0.0868
   37MOL   H20511077   4.042   3.050   2.519  1.6955 -1.0495 -0.6770
   37MOL   H20611078   4.120   3.048   2.674 -1.3827 -2.2186 -0.8094
   37MOL   H20711079   4.343   3.070   2.564 -0.3044 -1.1122  0.7222
   37MOL   H20811080   4.444   2.911   2.686 -0.1674  0.1825 -0.9868
   37MOL   H20911081   4.453   2.688   2.771  0.9530 -0.4343 -0.1971
   37MOL   H21011082   4.263   2.529   2.706  1.6806 -0.9318  0.0853
   37MOL   H21111083   4.106   2.604   2.526  0.0151  0.0561 -0.1349
   37MOL   C21211084   4.257   3.033   2.364  0.1701  0.3720  0.1896
   37MOL   C21311085   4.363   2.956   2.292 -0.1633  1.0032 -0.1371
   37MOL   C21411086   4.317   2.948   2.147 -0.1606  0.3323 -0.4023
   37MOL   C21511087   4.292   3.070   2.072 -0.5609  0.4982 -0.0415
   37MOL   C21611088   4.244   3.056   1.944 -0.3762  0.7283 -0.4027
   37MOL   C21711089   4.220   2.929   1.891 -0.6970 -0.6183 -0.0027
   37MOL   C21811090   4.257   2.817   1.968  0.1483 -0.0173  0.1312
   37MOL   N21911091   4.300   2.826   2.094 -0.5875 -0.5760  0.5090
   37MOL   H22011092   4.260   3.134   2.324  0.9409  0.8959  1.5455
   37MOL   H22111093   4.160   3.000   2.327 -0.4897  0.1623  2.0518
   37MOL   H22211094   4.367   2.854   2.330  1.3298  1.1672  0.1652
   37MOL   H22311095   4.316   3.166   2.114  1.2523 -0.1585  0.4536
   37MOL   H22411096   4.219   3.145   1.888  3.1300  2.9526  1.4310
   37MOL   H22511097   4.187   2.925   1.788  3.4111  0.4698 -1.4394
   37MOL   H22611098   4.243   2.719   1.925 -0.1843 -0.0051  0.2047
   37MOL   C22711099   4.500   3.020   2.307 -0.0068  0.2574  0.3127
   37MOL   C22811100   4.601   2.922   2.365  0.2480 -0.8976  0.2440
   37MOL   C22911101   4.619   2.798   2.276  0.4243 -0.0410 -0.4468
   37MOL   C23011102   4.594   2.668   2.330  0.6234 -0.2427 -0.1993
   37MOL   C23111103   4.610   2.553   2.247  0.0901  0.1806  0.6544
   37MOL   C23211104   4.667   2.571   2.117 -0.1362  0.2448 -0.0670
   37MOL   C23311105   4.686   2.708   2.077  0.3859  0.1954  1.0298
   37MOL   N23411106   4.657   2.820   2.147 -0.1228  0.3385  0.0290
   37MOL   H23511107   4.486   3.110   2.367 -2.6148  0.4502 -0.5737
   37MOL   H23611108   4.522   3.063   2.209 -2.8869  0.8418 -0.1124
   37MOL   H23711109   4.561   2.889   2.461 -1.6426  3.3151  1.0219
   37MOL   H23811110   4.547   2.665   2.427 -0.1213  0.4579 -0.5413
   37MOL   H23911111   4.573   2.454   2.267 -0.3179  0.5056  1.5579
   37MOL   H24011112   4.675   2.487   2.050  0.0133  0.6653 -0.5791
   37MOL   H24111113   4.718   2.728   1.976  2.5639  2.4020  2.0839
   37MOL   C24211114   4.743   2.987   2.374 -0.5611 -0.2279  0.2278
   37MOL   C24311115   4.765   3.097   2.480 -0.1483  0.1346 -0.2569
   37MOL   C24411116   4.734   3.054   2.625  0.6957  0.6558 -0.3730
   37MOL   C24511117   4.617   3.099   2.687 -0.5387  0.4692  0.0617
   37MOL   C24611118   4.599   3.070   2.822 -0.6206 -0.2071 -0.2969
   37MOL   C24711119   4.684   2.973   2.884  0.3473  0.2212 -0.2137
   37MOL   C24811120   4.790   2.915   2.809  0.4423 -0.2280  0.4156
   37MOL   N24911121   4.822   2.965   2.687 -0.5890 -0.7044 -0.3890
   37MOL   H25011122   4.766   3.029   2.276 -0.0095  0.9682  0.8560
   37MOL   H25111123   4.821   2.912   2.385 -1.0409 -0.5405  1.5016
   37MOL   H25211124   4.695   3.174   2.447 -1.4679 -1.0865 -0.3745
   37MOL   H25311125   4.540   3.154   2.634 -0.9510  0.6674  0.8494
   37MOL   H25411126   4.514   3.113   2.874  0.8003  1.0946  0.9892
   37MOL   H25511127   4.665   2.948   2.988 -0.3703 -0.8879 -0.6006
   37MOL   H25611128   4.855   2.835   2.841 -1.0099 -2.0723 -1.0941
   37MOL   C25711129   4.912   3.146   2.473 -0.0769  0.4995 -0.0870
   37MOL   C25811130   4.948   3.265   2.561 -0.4296 -0.1814  0.2248
   37MOL   C25911131   5.069   3.340   2.509  0.1054 -0.1255 -0.6946
   37MOL   C26011132   5.173   3.352   2.600  1.0225  0.4762 -0.5455
   37MOL   C26111133   5.286   3.432   2.573  0.8319  0.6069 -0.3327
   37MOL   C26211134   5.288   3.503   2.450  0.4266 -0.6491  0.0541
   37MOL   C26311135   5.176   3.483   2.365  0.3432 -0.4166 -0.0426
   37MOL   N26411136   5.065   3.404   2.388 -0.2074 -0.2850  0.2156
   37MOL   H26511137   4.928   3.175   2.369  3.6278  0.9027  0.5342
   37MOL   H26611138   4.985   3.068   2.493  0.0991  1.0047  1.2967
   37MOL   H26711139   4.978   3.214   2.652 -0.5926 -1.4529 -0.4100
   37MOL   H26811140   5.177   3.297   2.693  0.1406  2.2674  0.5827
   37MOL   H26911141   5.365   3.442   2.647  1.8277  1.1088 -1.4306
   37MOL   H27011142   5.372   3.566   2.423  0.8775 -0.9341  0.7930
   37MOL   H27111143   5.165   3.537   2.272  1.3214  1.4543  0.9018
   37MOL   C27211144   4.825   3.369   2.576  0.0175  0.3414  0.1163
   37MOL   C27311145   4.854   3.499   2.650 -0.1300 -0.4839 -0.3648
   37MOL   C27411146   4.828   3.616   2.553  0.5803 -0.4337 -0.0799
   37MOL   C27511147   4.935   3.698   2.505 -0.6300 -0.0262 -0.0328
   37MOL   C27611148   4.906   3.808   2.421 -0.3307  0.1563 -0.3232
   37MOL   C27711149   4.773   3.828   2.396 -0.1442 -0.3679 -0.0365
   37MOL   C27811150   4.674   3.742   2.444  0.8315  0.1302 -0.4177
   37MOL   N27911151   4.699   3.630   2.516  0.3693 -0.1750 -0.4100
   37MOL   H28011152   4.737   3.332   2.628  1.6809 -1.8026  1.5194
   37MOL   H28111153   4.797   3.388   2.473  0.3248  1.6735  0.2632
   37MOL   H28211154   4.961   3.507   2.667 -0.5713  0.4245  2.2050
   37MOL   H28311155   5.040   3.697   2.531 -0.6115 -0.3908 -0.1303
   37MOL   H28411156   4.980   3.874   2.380 -0.9067  1.3194  0.4866
   37MOL   H28511157   4.747   3.911   2.331  1.2222 -0.4563 -0.7184
   37MOL   H28611158   4.569   3.757   2.422  0.7639  0.1205 -0.0990
   37MOL   C28711159   4.784   3.516   2.788 -0.0367  0.1719  0.2608
   37MOL   C28811160   4.829   3.418   2.899  0.3272 -0.0508  0.2121
   37MOL   C28911161   4.758   3.451   3.024 -0.5333  0.2685 -0.4006
   37MOL   C29011162   4.801   3.553   3.112  0.1340 -0.6909 -0.0169
   37MOL   C29111163   4.717   3.586   3.221  0.5199  0.3459 -0.3379
   37MOL   C29211164   4.608   3.506   3.242 -0.8450  0.2438 -0.1909
   37MOL   C29311165   4.575   3.397   3.162  0.5048 -0.2395  0.4263
   37MOL   N29411166   4.649   3.376   3.054  0.0148  1.0311  0.5927
   37MOL   H29511167   4.678   3.524   2.766 -0.2621 -1.0471  0.9037
   37MOL   H29611168   4.814   3.617   2.818 -0.2548  0.7222 -1.3111
   37MOL   H29711169   4.938   3.421   2.903  0.4358 -1.7997 -1.0462
   37MOL   H29811170   4.884   3.616   3.083  0.9387 -2.3140 -1.4012
   37MOL   H29911171   4.744   3.669   3.284 -0.1846  1.0202 -0.9070
   37MOL   H30011172   4.546   3.534   3.326 -1.0762  0.2117 -0.3517
   37MOL   H30111173   4.485   3.341   3.183  0.7248 -0.4208  0.8892
   37MOL   H30211174   4.803   3.315   2.875 -1.7354  0.5096 -0.0169
   38MOL     C111175   7.504   6.289   5.942 -0.7036 -0.0577 -0.2883
   38MOL     C211176   7.612   6.389   5.991  0.4567  0.8737 -0.8084
   38MOL     C311177   7.741   6.304   6.000  0.5757  1.1377 -0.3399
   38MOL     C411178   7.789   6.280   6.134 -0.2036  0.9436 -0.5704
   38MOL     C511179   7.898   6.194   6.144  0.1863  0.1080 -0.8027
   38MOL     C611180   7.945   6.129   6.030  0.6174  0.5084  0.0262
   38MOL     C711181   7.887   6.154   5.907 -0.0491  0.0084  0.4951
   38MOL     N811182   7.790   6.238   5.890  0.3246 -0.3492 -0.2145
   38MOL     H911183   7.406   6.338   5.940 -0.0006  1.3546 -0.2462
   38MOL    H1011184   7.527   6.234   5.851 -2.3215 -2.5552  0.7432
   38MOL    H1111185   7.590   6.424   6.092 -2.1574 -1.7801 -0.3858
   38MOL    H1211186   7.747   6.328   6.221 -1.2842 -0.6417 -0.1998
   38MOL    H1311187   7.932   6.172   6.244 -0.9579  0.5603 -0.3080
   38MOL    H1411188   8.030   6.063   6.040  0.8576  0.7828 -0.2113
   38MOL    H1511189   7.916   6.105   5.816  1.0876 -0.0156  0.8531
   38MOL    H1611190   7.487   6.202   6.005 -2.6346 -1.2518 -2.3787
   38MOL    C1711191   7.633   6.506   5.888 -0.0735 -0.1783  0.1804
   38MOL    C1811192   7.680   6.645   5.945  0.2418  0.3923 -0.2838
   38MOL    C1911193   7.803   6.632   6.032 -0.2610  0.9219  0.3972
   38MOL    C2011194   7.929   6.604   5.971  0.1061 -0.2828 -0.6824
   38MOL    C2111195   8.034   6.583   6.064 -0.0534  0.2245 -0.8481
   38MOL    C2211196   8.012   6.593   6.204  0.7914  0.3246  0.1240
   38MOL    C2311197   7.883   6.623   6.248  0.1217  0.2883  0.8362
   38MOL    N2411198   7.782   6.640   6.165 -0.2395 -0.6611 -0.4320
   38MOL    H2511199   7.531   6.531   5.860  0.2632  0.6438 -0.3469
   38MOL    H2611200   7.690   6.471   5.802 -0.9559 -0.1069 -0.4375
   38MOL    H2711201   7.609   6.688   6.016  0.3111  0.2364 -0.1192
   38MOL    H2811202   7.944   6.599   5.864 -1.0344  0.1589 -0.8650
   38MOL    H2911203   8.126   6.548   6.020 -1.1572 -1.9956 -1.4469
   38MOL    H3011204   8.093   6.573   6.273  0.7961  1.2743  0.3996
   38MOL    H3111205   7.858   6.635   6.352  1.2899 -0.7383  1.2477
   38MOL    C3211206   7.713   6.755   5.830 -0.6863 -0.1454  0.3165
   38MOL    C3311207   7.592   6.800   5.748  0.1550 -0.3061  0.5055
   38MOL    C3411208   7.486   6.864   5.839  0.3889  0.1557 -0.3645
   38MOL    C3511209   7.509   6.988   5.909  0.2199 -0.0978 -0.0800
   38MOL    C3611210   7.416   7.032   6.000  0.4258  0.1044  0.7798
   38MOL    C3711211   7.291   6.969   6.009  0.0539  0.6541 -0.1863
   38MOL    C3811212   7.269   6.854   5.936 -0.4366  0.0946 -0.5423
   38MOL    N3911213   7.362   6.801   5.853  0.3098  0.4578 -0.5860
   38MOL    H4011214   7.782   6.701   5.765 -2.1407 -0.7171 -0.7976
   38MOL    H4111215   7.768   6.845   5.858  0.0104 -0.3083 -0.4741
   38MOL    H4211216   7.537   6.717   5.706  0.1281 -0.9392  1.7692
   38MOL    H4311217   7.605   7.036   5.897 -0.1941  0.9623  0.7655
   38MOL    H4411218   7.448   7.121   6.053  1.4090  0.1742  0.0711
   38MOL    H4511219   7.205   7.002   6.065  0.0593 -1.5737  1.1685
   38MOL    H4611220   7.173   6.804   5.937  0.0387 -0.8191  0.0384
   38MOL    C4711221   7.643   6.891   5.626  0.2088 -0.2424  0.5019
   38MOL    C4811222   7.528   6.974   5.554  0.5487  0.2171 -0.2908
   38MOL    C4911223   7.591   7.092   5.476  0.1779 -0.8941 -0.1491
   38MOL    C5011224   7.554   7.227   5.513  0.1419  0.0280  0.3220
   38MOL    C5111225   7.616   7.340   5.454 -1.2617 -0.0750  0.0990
   38MOL    C5211226   7.715   7.315   5.359 -0.5441 -0.5229 -0.0076
   38MOL    C5311227   7.747   7.180   5.328 -0.6356  0.0752 -0.1426
   38MOL    N5411228   7.683   7.073   5.380 -0.7675  0.3325  0.0971
   38MOL    H5511229   7.697   6.819   5.565  1.8419 -0.1098  1.7749
   38MOL    H5611230   7.721   6.957   5.664 -0.2649 -0.9475  2.8263
   38MOL    H5711231   7.469   7.017   5.636 -0.2083  2.1803 -1.8302
   38MOL    H5811232   7.473   7.246   5.582 -0.9368  3.7613 -1.8277
   38MOL    H5911233   7.589   7.440   5.483  0.9207  1.3586 -2.6229
   38MOL    H6011234   7.770   7.397   5.313  0.3340 -0.2204  1.5631
   38MOL    H6111235   7.813   7.149   5.248  0.4275  2.1566 -0.1104
   38MOL    C6211236   7.438   6.886   5.468  0.3112  0.8463 -0.5660
   38MOL    C6311237   7.282   6.874   5.503  0.3307  0.0950  0.7292
   38MOL    C6411238   7.212   7.006   5.542 -0.3121  0.2570  0.6123
   38MOL    C6511239   7.144   7.016   5.663  0.4298 -0.2202  0.3701
   38MOL    C6611240   7.100   7.141   5.709 -0.5844 -0.1796 -0.1256
   38MOL    C6711241   7.124   7.251   5.618  0.0629 -0.4817 -0.5752
   38MOL    C6811242   7.178   7.224   5.492 -0.7082  0.3543  0.0497
   38MOL    N6911243   7.234   7.107   5.458  0.2880 -0.3242 -0.0283
   38MOL    H7011244   7.480   6.786   5.458 -3.4251 -0.5924 -2.6078
   38MOL    H7111245   7.437   6.930   5.368 -1.5657  1.1838 -0.4201
   38MOL    H7211246   7.274   6.816   5.595 -1.1354 -0.6227  0.1732
   38MOL    H7311247   7.137   6.922   5.715  2.3649  0.0902  1.2284
   38MOL    H7411248   7.066   7.152   5.811  0.2475 -0.9364  0.2385
   38MOL    H7511249   7.104   7.353   5.646  0.0896 -0.9120  1.0713
   38MOL    H7611250   7.198   7.306   5.424 -0.4326  0.5322  0.3428
   38MOL    C7711251   7.196   6.799   5.394 -0.1020  0.1150 -0.5987
   38MOL    C7811252   7.246   6.661   5.347  0.2330 -0.1008  0.2532
   38MOL    C7911253   7.267   6.574   5.467  0.2905  0.3768 -0.0093
   38MOL    C8011254   7.390   6.509   5.495 -0.0335 -0.3322  0.2431
   38MOL    C8111255   7.403   6.428   5.608  0.0691 -0.0349 -0.2766
   38MOL    C8211256   7.285   6.420   5.693  0.0851  0.1904  0.8240
   38MOL    C8311257   7.166   6.481   5.651  0.2388 -0.0523 -0.5204
   38MOL    N8411258   7.159   6.563   5.545  0.0476  0.0680 -0.1766
   38MOL    H8511259   7.193   6.873   5.314 -0.3289 -0.9102 -1.5590
   38MOL    H8611260   7.091   6.792   5.421  0.4501  0.2264  1.6754
   38MOL    H8711261   7.340   6.688   5.300 -0.3766 -0.1082 -0.9850
   38MOL    H8811262   7.474   6.522   5.428 -0.3643 -0.6719 -0.2484
   38MOL    H8911263   7.497   6.378   5.626 -0.2072 -0.0936  1.0381
   38MOL    H9011264   7.292   6.359   5.782  2.7905  0.2023  0.6743
   38MOL    H9111265   7.073   6.470   5.704  0.5596  0.4517  0.1486
   38MOL    C9211266   7.154   6.589   5.237 -0.2684 -0.5004  0.4864
   38MOL    C9311267   7.229   6.470   5.163  0.1046 -0.0611  0.2213
   38MOL    C9411268   7.131   6.361   5.118  0.2514  0.7843  0.6506
   38MOL    C9511269   7.101   6.245   5.191 -0.1431 -0.5514  0.2247
   38MOL    C9611270   7.016   6.150   5.133  0.5834 -0.0143 -0.3137
   38MOL    C9711271   6.975   6.170   5.005 -0.9264 -0.3204  0.6760
   38MOL    C9811272   7.008   6.288   4.941  0.2319 -0.4407  0.0080
   38MOL    N9911273   7.082   6.382   4.995 -0.1078  0.2403 -0.4530
   38MOL   H10011274   7.119   6.650   5.153 -0.1717 -1.1985 -0.0622
   38MOL   H10111275   7.070   6.539   5.286 -0.6153  1.0682  1.5154
   38MOL   H10211276   7.282   6.412   5.239  0.6764 -1.2324 -1.0477
   38MOL   H10311277   7.148   6.227   5.286  2.5606  0.6173 -0.8453
   38MOL   H10411278   6.985   6.058   5.181 -0.3664  0.0622 -0.7794
   38MOL   H10511279   6.903   6.098   4.970 -0.7997  0.8955 -2.2899
   38MOL   H10611280   6.973   6.309   4.841 -2.2113  3.6574  1.5762
   38MOL   C10711281   7.348   6.500   5.068  0.7659  0.1622 -0.5121
   38MOL   C10811282   7.432   6.386   5.014 -0.3077 -0.1159 -0.2953
   38MOL   C10911283   7.521   6.439   4.902  0.0156  0.2942 -0.4090
   38MOL   C11011284   7.487   6.404   4.770 -0.0254 -0.3514 -0.3806
   38MOL   C11111285   7.579   6.441   4.670  0.4921 -0.3422  0.7809
   38MOL   C11211286   7.689   6.524   4.695  0.3683 -0.4830 -0.0442
   38MOL   C11311287   7.705   6.557   4.835 -0.0694  0.0369 -0.1263
   38MOL   N11411288   7.627   6.511   4.933 -0.2018 -0.2085 -0.6901
   38MOL   H11511289   7.415   6.578   5.104 -0.1106  0.1448  1.1906
   38MOL   H11611290   7.301   6.546   4.981  2.2151 -0.9357 -1.8986
   38MOL   H11711291   7.352   6.323   4.975  1.4397 -1.4941 -1.7090
   38MOL   H11811292   7.402   6.341   4.750 -0.2539 -0.2578  0.2632
   38MOL   H11911293   7.568   6.426   4.564  1.1535  2.8233  0.1990
   38MOL   H12011294   7.760   6.553   4.619  1.7088 -1.1490  0.9212
   38MOL   H12111295   7.792   6.608   4.874 -0.5407 -0.7783  2.1074
   38MOL   C12211296   7.504   6.298   5.119  0.9904 -0.3474 -0.2544
   38MOL   C12311297   7.591   6.176   5.070 -0.2339 -0.1740 -0.6733
   38MOL   C12411298   7.643   6.094   5.193  0.1247 -0.2945 -0.1473
   38MOL   C12511299   7.776   6.114   5.239 -0.2777  0.0661 -0.3345
   38MOL   C12611300   7.822   6.038   5.344 -0.5274  0.2943 -0.2410
   38MOL   C12711301   7.729   5.954   5.406  0.0281  0.1329 -0.4336
   38MOL   C12811302   7.600   5.940   5.353 -0.5393 -0.4192  0.0187
   38MOL   N12911303   7.558   6.001   5.241 -0.0151 -0.0552  0.3240
   38MOL   H13011304   7.433   6.246   5.183 -0.7080  0.3863 -1.4982
   38MOL   H13111305   7.556   6.365   5.188 -0.7482 -0.5258  1.2636
   38MOL   H13211306   7.666   6.223   5.007  0.9353 -1.4654 -0.2673
   38MOL   H13311307   7.839   6.188   5.191  1.5470 -1.3180 -0.1524
   38MOL   H13411308   7.923   6.041   5.383  0.3602  1.6583 -2.5662
   38MOL   H13511309   7.756   5.904   5.497 -1.1128 -0.2179 -0.2815
   38MOL   H13611310   7.531   5.866   5.390  0.2907 -0.5785  1.2663
   38MOL   C13711311   7.506   6.092   4.973 -0.3574  0.2877  0.1516
   38MOL   C13811312   7.564   5.962   4.911 -0.5374  0.4147  0.0113
   38MOL   C13911313   7.468   5.889   4.824 -0.4840 -0.0818  0.4647
   38MOL   C14011314   7.410   5.960   4.718 -0.0454  0.4458  0.2881
   38MOL   C14111315   7.314   5.899   4.630  0.5551 -1.0318  0.0889
   38MOL   C14211316   7.284   5.764   4.655  0.7494  0.3937  0.6962
   38MOL   C14311317   7.335   5.706   4.774  0.2397  0.0035  0.1439
   38MOL   N14411318   7.429   5.768   4.856  0.2810 -0.0799 -0.8040
   38MOL   H14511319   7.482   6.152   4.886 -3.3592 -0.9995  0.0254
   38MOL   H14611320   7.416   6.076   5.032  0.4043  0.3369  1.3429
   38MOL   H14711321   7.574   5.895   4.996  1.3035  0.0915 -0.4337
   38MOL   H14811322   7.439   6.063   4.699 -0.5856  0.6012  0.3043
   38MOL   H14911323   7.277   5.947   4.540  0.3212 -1.6091 -0.1275
   38MOL   H15011324   7.228   5.702   4.587  2.0711  0.4721 -0.4928
   38MOL   H15111325   7.313   5.600   4.782 -3.0456  0.6365  0.0646
   38MOL   C15211326   7.712   5.972   4.854  0.1500  0.4028 -0.6450
   38MOL   C15311327   7.772   5.839   4.808 -0.4041  0.0990  0.5127
   38MOL   C15411328   7.898   5.862   4.722  0.2568  0.8947 -0.1598
   38MOL   C15511329   7.895   5.829   4.587 -0.2982  0.3132 -0.4078
   38MOL   C15611330   8.008   5.847   4.512  0.1510 -0.6464  0.2394
   38MOL   C15711331   8.124   5.887   4.579 -0.8640 -0.0778  0.8268
   38MOL   C15811332   8.121   5.934   4.708  0.1727  0.2396 -0.4962
   38MOL   N15911333   8.006   5.914   4.782  0.4929  0.0485 -0.2733
   38MOL   H16011334   7.765   6.025   4.933 -1.6471 -0.6467  1.3223
   38MOL   H16111335   7.696   6.044   4.773  0.5284  0.6007 -0.5396
   38MOL   H16211336   7.696   5.796   4.743 -0.6030  1.6591 -0.3089
   38MOL   H16311337   7.806   5.781   4.550 -0.4906 -0.1138  0.5757
   38MOL   H16411338   8.017   5.821   4.407  2.9399  2.1808 -0.3235
   38MOL   H16511339   0.059   5.904   4.518 -1.7488 -0.4603 -0.5454
   38MOL   H16611340   0.047   5.981   4.766  0.6623  2.7313 -3.0440
   38MOL   C16711341   7.815   5.751   4.928  0.3495 -0.9500 -0.1014
   38MOL   C16811342   7.773   5.602   4.915 -0.0193  0.3829  0.7585
   38MOL   C16911343   7.749   5.551   4.774 -0.2459  0.3516  0.2432
   38MOL   C17011344   7.621   5.512   4.733  0.0884  0.5855  0.3597
   38MOL   C17111345   7.600   5.458   4.602 -0.1952 -0.0051  0.1718
   38MOL   C17211346   7.714   5.449   4.519  0.0873 -0.5470  0.0725
   38MOL   C17311347   7.841   5.496   4.570  0.3168  0.2620  0.9880
   38MOL   N17411348   7.856   5.539   4.695 -0.0508  0.4492  0.0014
   38MOL   H17511349   7.772   5.793   5.019 -0.6450  4.6713 -2.8823
   38MOL   H17611350   7.921   5.753   4.951  0.2023 -1.4338  0.6238
   38MOL   H17711351   7.673   5.604   4.957 -0.3021  0.4610  0.0937
   38MOL   H17811352   7.538   5.525   4.802 -0.1290  0.8961  0.0458
   38MOL   H17911353   7.501   5.437   4.565 -0.7928  1.1221  1.1054
   38MOL   H18011354   7.701   5.412   4.418  0.7262 -0.2195 -0.1346
   38MOL   H18111355   7.928   5.490   4.506 -0.0764 -0.5999  0.5267
   38MOL   C18211356   7.857   5.499   4.979 -0.5796 -0.0212 -0.7472
   38MOL   C18311357   7.863   5.513   5.134  0.1289 -0.2729  0.1514
   38MOL   C18411358   7.730   5.522   5.201  0.3784 -0.5618  0.0427
   38MOL   C18511359   7.629   5.437   5.164  0.3108 -0.3359  0.4634
   38MOL   C18611360   7.520   5.439   5.249  0.6335  0.4454  0.8603
   38MOL   C18711361   7.515   5.513   5.368  0.1217  0.0675  0.3532
   38MOL   C18811362   7.625   5.594   5.389  0.2687  0.4202 -0.2489
   38MOL   N18911363   7.732   5.602   5.311  0.0829 -0.4839  0.3110
   38MOL   H19011364   7.959   5.503   4.942 -0.8739 -3.3853 -2.1160
   38MOL   H19111365   7.817   5.404   4.945 -1.9835  1.3781 -3.2123
   38MOL   H19211366   7.914   5.608   5.151  0.1522  0.4076 -3.3825
   38MOL   H19311367   7.632   5.377   5.075  1.3717 -0.0128  0.2772
   38MOL   H19411368   7.439   5.371   5.227  0.0534  0.6008  2.4534
   38MOL   H19511369   7.430   5.495   5.433 -0.8047  0.7985 -0.6465
   38MOL   H19611370   7.622   5.672   5.464  1.5816  0.8003 -0.5800
   38MOL   C19711371   7.966   5.413   5.182 -0.6426  0.3949 -0.3138
   38MOL   C19811372   8.002   5.411   5.330  0.0762 -0.3212 -0.5557
   38MOL   C19911373   8.083   5.286   5.365 -0.3398  0.2308  0.0027
   38MOL   C20011374   0.068   5.279   5.326 -0.4116 -0.2602 -0.3979
   38MOL   C20111375   0.140   5.166   5.359 -0.0187 -0.1509  0.1702
   38MOL   C20211376   0.070   5.057   5.422  0.2472  0.1063 -0.5340
   38MOL   C20311377   8.086   5.075   5.456  0.2342 -0.6429  0.4024
   38MOL   N20411378   8.018   5.186   5.434 -0.2313 -0.1519 -0.1009
   38MOL   H20511379   8.059   5.415   5.125 -0.8687  1.7213 -0.6653
   38MOL   H20611380   7.921   5.318   5.153  1.7418 -0.6573 -0.6312
   38MOL   H20711381   7.905   5.400   5.379  0.0433  0.5885 -0.4085
   38MOL   H20811382   0.124   5.360   5.281  1.6005 -1.4853 -0.1847
   38MOL   H20911383   0.240   5.154   5.321 -0.7389  0.5488 -1.9741
   38MOL   H21011384   0.119   4.964   5.446  0.1673 -0.5587 -2.8167
   38MOL   H21111385   8.031   4.995   5.502 -1.7983  2.0692  2.8735
   38MOL   C21211386   8.048   5.548   5.390  0.1254 -0.5321 -0.1479
   38MOL   C21311387   8.042   5.551   5.548 -0.0073  0.7251  0.2782
   38MOL   C21411388   8.132   5.662   5.607  0.1558  0.8895 -0.3630
   38MOL   C21511389   8.132   5.792   5.555 -0.5328 -0.5777 -0.0646
   38MOL   C21611390   0.062   5.884   5.617  0.3138 -0.2684 -0.2827
   38MOL   C21711391   0.136   5.847   5.728  0.9814 -0.3924  0.1593
   38MOL   C21811392   0.135   5.713   5.764  0.7853 -0.1082  0.0017
   38MOL   N21911393   0.051   5.623   5.716 -0.4406 -0.7010  0.1812
   38MOL   H22011394   7.988   5.626   5.345 -2.2867 -2.0340  0.3913
   38MOL   H22111395   8.151   5.561   5.358 -0.0728  0.1299 -0.5020
   38MOL   H22211396   8.071   5.458   5.596 -2.0360 -0.2483 -0.3371
   38MOL   H22311397   8.058   5.829   5.485 -0.0706  1.2485  0.4157
   38MOL   H22411398   0.075   5.982   5.574  1.0559  0.2956  1.1701
   38MOL   H22511399   0.208   5.917   5.767  0.6854  0.7659 -1.3366
   38MOL   H22611400   0.197   5.682   5.846 -0.0674 -1.7628  0.0510
   38MOL   C22711401   7.897   5.581   5.596 -1.0842 -0.1170  0.3363
   38MOL   C22811402   7.872   5.574   5.743  0.5633  0.4664  0.1787
   38MOL   C22911403   7.781   5.688   5.787 -0.0804  0.4237 -0.0678
   38MOL   C23011404   7.819   5.774   5.895  0.0626 -0.0100  0.1802
   38MOL   C23111405   7.735   5.873   5.941  0.2480  0.1021  0.2098
   38MOL   C23211406   7.614   5.892   5.867  0.2102 -0.4319  0.6295
   38MOL   C23311407   7.589   5.805   5.759  0.7110  0.0436  0.3417
   38MOL   N23411408   7.665   5.701   5.722  0.0187 -0.0105 -0.4153
   38MOL   H23511409   7.829   5.516   5.541 -0.1735  0.6560 -1.7637
   38MOL   H23611410   7.882   5.683   5.560  2.3180  1.0591  2.0147
   38MOL   H23711411   7.963   5.593   5.800 -0.9860 -1.0058  3.2767
   38MOL   H23811412   7.904   5.745   5.955  0.6255  4.1746  1.5826
   38MOL   H23911413   7.764   5.934   6.025  0.6348  0.2364 -0.0197
   38MOL   H24011414   7.543   5.964   5.905  0.9256  1.2866 -1.2339
   38MOL   H24111415   7.496   5.809   5.704  1.3557  0.1399 -0.7576
   38MOL   C24211416   7.836   5.433   5.795  0.6690  0.4668 -0.2684
   38MOL   C24311417   7.945   5.358   5.869 -0.3860 -1.2288 -0.0378
   38MOL   C24411418   7.977   5.419   5.999  0.0974  0.0965 -0.0475
   38MOL   C24511419   8.112   5.452   6.023 -1.0817  0.3853 -0.3853
   38MOL   C24611420   8.134   5.497   6.153 -0.0934  0.5524 -0.1759
   38MOL   C24711421   8.033   5.510   6.248  0.7021  0.1747  0.3680
   38MOL   C24811422   7.905   5.458   6.212 -0.3683 -0.3292 -0.5446
   38MOL   N24911423   7.875   5.421   6.089 -0.4133  0.4378  0.3275
   38MOL   H25011424   7.781   5.371   5.723 -1.2297  1.3907  0.3457
   38MOL   H25111425   7.764   5.443   5.876  1.2111  2.1678  0.0186
   38MOL   H25211426   8.029   5.373   5.801  1.4866 -1.6441  2.1571
   38MOL   H25311427   0.041   5.463   5.952  0.6324  2.2614  1.7504
   38MOL   H25411428   0.084   5.509   6.184  0.0710 -1.4863  0.1305
   38MOL   H25511429   8.051   5.546   6.348  2.6602  2.2981 -0.7076
   38MOL   H25611430   7.825   5.460   6.284 -1.6981 -0.0200 -2.0068
   38MOL   C25711431   7.922   5.214   5.887  0.7170 -0.1130 -0.2164
   38MOL   C25811432   8.004   5.126   5.787  1.5728  0.1858  0.2754
   38MOL   C25911433   0.005   5.138   5.803  0.0137 -0.3009 -0.4011
   38MOL   C26011434   0.074   5.219   5.714 -0.5805  0.4409 -0.3227
   38MOL   C26111435   0.203   5.263   5.743  0.6666 -0.3792  0.3416
   38MOL   C26211436   0.252   5.223   5.865 -0.3485  0.0666  0.1630
   38MOL   C26311437   0.181   5.146   5.953  0.2792 -0.0143 -0.4166
   38MOL   N26411438   0.054   5.103   5.925 -0.5902  0.3782  0.0306
   38MOL   H26511439   7.814   5.203   5.879  0.2584  0.9541  3.3636
   38MOL   H26611440   7.940   5.178   5.988 -1.5547 -0.1334  0.2096
   38MOL   H26711441   7.979   5.168   5.690  0.2441 -0.1983  0.4432
   38MOL   H26811442   0.030   5.262   5.625 -1.3237  0.0772 -0.1334
   38MOL   H26911443   0.264   5.326   5.680 -1.2529  0.6768 -0.5095
   38MOL   H27011444   0.351   5.256   5.894 -0.5489 -1.2274  2.3636
   38MOL   H27111445   0.222   5.123   6.050 -0.0495  2.4555  0.3499
   38MOL   C27211446   7.968   4.978   5.777  0.4949  0.1209 -0.0068
   38MOL   C27311447   7.821   4.936   5.763 -0.0178  0.2661 -0.3535
   38MOL   C27411448   7.742   5.017   5.666  0.1927  0.7563  0.1914
   38MOL   C27511449   7.640   5.107   5.709 -0.2227  0.4603 -0.2547
   38MOL   C27611450   7.587   5.191   5.609  0.3916 -0.1594 -0.7130
   38MOL   C27711451   7.618   5.167   5.477 -0.9727  0.2634  0.3014
   38MOL   C27811452   7.705   5.067   5.445  0.9941 -0.7102 -0.5647
   38MOL   N27911453   7.770   4.995   5.536  0.0934 -0.0945 -0.9807
   38MOL   H28011454   8.006   4.942   5.873  0.7580  0.2531 -0.0587
   38MOL   H28111455   8.024   4.928   5.699  1.8142 -0.4335  1.2642
   38MOL   H28211456   7.773   4.939   5.861 -0.8205  1.6667 -0.7880
   38MOL   H28311457   7.619   5.133   5.812 -2.9244  0.6058 -0.8066
   38MOL   H28411458   7.518   5.266   5.645  0.4285 -1.8783  3.1484
   38MOL   H28511459   7.571   5.228   5.401  0.1232  0.3095 -0.3696
   38MOL   H28611460   7.712   5.034   5.342 -1.6933  1.8914 -1.6530
   38MOL   C28711461   7.800   4.778   5.735 -0.2814 -0.0630 -0.2822
   38MOL   C28811462   7.861   4.696   5.843  0.1907  0.0941  0.8121
   38MOL   C28911463   7.817   4.716   5.987  0.0688 -0.2794  0.1524
   38MOL   C29011464   7.701   4.655   6.036 -0.2906 -0.7897 -0.1786
   38MOL   C29111465   7.658   4.675   6.171  0.0958 -0.0945 -0.1201
   38MOL   C29211466   7.729   4.770   6.250  0.0749  0.1226 -0.4511
   38MOL   C29311467   7.845   4.825   6.194  0.0902 -0.8026  1.1854
   38MOL   N29411468   7.877   4.812   6.065  0.2946  0.2208 -0.6847
   38MOL   H29511469   7.859   4.759   5.646  0.5441  2.3305 -0.2764
   38MOL   H29611470   7.697   4.751   5.716 -0.4774 -0.2536  0.9621
   38MOL   H29711471   7.968   4.714   5.852  0.0764  0.9070  0.6517
   38MOL   H29811472   7.648   4.592   5.966  0.7112 -3.0395  1.0225
   38MOL   H29911473   7.569   4.630   6.213  0.6313  0.9863  2.2284
   38MOL   H30011474   7.696   4.784   6.352  1.1485  0.5169 -0.1497
   38MOL   H30111475   7.903   4.892   6.255 -1.1352  1.6729 -0.2880
   38MOL   H30211476   7.853   4.591   5.817  1.5197  0.2623 -0.3314
   39MOL     C111477   6.162   4.006   7.279  0.1433 -0.3147  0.5483
   39MOL     C211478   6.298   3.982   7.342  0.3745 -0.0400  0.6257
   39MOL     C311479   6.317   3.840   7.394  0.5409 -0.0165  0.2041
   39MOL     C411480   6.347   3.807   7.528  0.0281 -0.1570  0.6714
   39MOL     C511481   6.381   3.675   7.561  0.6738 -0.4708  0.7526
   39MOL     C611482   6.386   3.581   7.451  0.3700 -0.2368 -0.4562
   39MOL     C711483   6.360   3.626   7.322 -0.1610  0.1293  0.1624
   39MOL     N811484   6.325   3.755   7.291 -0.2569  0.1993 -0.1898
   39MOL     H911485   6.155   3.958   7.181 -1.2458 -0.3280  0.6385
   39MOL    H1011486   6.077   3.982   7.343 -0.2541  0.1264  0.1921
   39MOL    H1111487   6.292   4.043   7.432 -0.7448  1.7065 -0.6055
   39MOL    H1211488   6.350   3.884   7.604 -1.7599  1.7327 -1.1219
   39MOL    H1311489   6.400   3.652   7.665 -1.6374  1.0018  1.5555
   39MOL    H1411490   6.424   3.480   7.461  1.3002  0.2732  1.6145
   39MOL    H1511491   6.376   3.565   7.234  0.8882 -1.1391  1.2243
   39MOL    H1611492   6.149   4.109   7.245 -2.5999 -0.9697 -0.5954
   39MOL    C1711493   6.420   4.039   7.259 -0.3110  0.3067 -0.3712
   39MOL    C1811494   6.563   4.001   7.314 -0.3043  0.1954  0.1329
   39MOL    C1911495   6.677   4.049   7.224 -0.6242  0.4959  0.8746
   39MOL    C2011496   6.684   4.180   7.174 -0.3081  0.0265 -0.5736
   39MOL    C2111497   6.784   4.216   7.081  0.1585 -0.1941 -0.0005
   39MOL    C2211498   6.881   4.122   7.048  0.2833 -0.7540  0.1152
   39MOL    C2311499   6.856   3.993   7.088 -0.9009 -0.3501  0.5761
   39MOL    N2411500   6.755   3.955   7.172  0.1476 -0.1943 -0.6427
   39MOL    H2511501   6.403   4.142   7.229  1.4420  0.1847 -1.8734
   39MOL    H2611502   6.409   3.978   7.170  0.6740  0.2976 -0.4846
   39MOL    H2711503   6.565   3.893   7.329  2.3084  0.5993  3.0686
   39MOL    H2811504   6.608   4.254   7.194 -2.3966 -2.0852 -0.5540
   39MOL    H2911505   6.796   4.319   7.050 -0.1104 -0.6817 -1.7654
   39MOL    H3011506   6.960   4.154   6.982 -0.3058  0.0233 -0.2229
   39MOL    H3111507   6.910   3.914   7.038  0.0288  0.0380  0.9456
   39MOL    C3211508   6.591   4.062   7.448 -0.5911  0.1117  0.2070
   39MOL    C3311509   6.721   4.015   7.512 -0.5473 -0.3846 -0.5300
   39MOL    C3411510   6.791   4.123   7.595 -0.5660 -0.6631  0.0686
   39MOL    C3511511   6.929   4.143   7.583  0.0581 -1.0224  0.2210
   39MOL    C3611512   6.993   4.242   7.658  0.1495 -0.2947 -0.4746
   39MOL    C3711513   6.911   4.310   7.751  0.0216 -0.3056 -0.1699
   39MOL    C3811514   6.773   4.287   7.757  0.6089 -0.4641  0.3289
   39MOL    N3911515   6.720   4.191   7.684 -0.0526  0.3547 -0.3111
   39MOL    H4011516   6.515   4.047   7.525  0.8233  0.5852  1.7395
   39MOL    H4111517   6.599   4.170   7.439  0.9259  0.0979  1.1790
   39MOL    H4211518   6.802   4.003   7.439  0.2946 -1.1987  0.5226
   39MOL    H4311519   6.992   4.093   7.511  2.0785 -0.9985  1.9163
   39MOL    H4411520   7.098   4.267   7.657 -0.2698  1.5336 -0.3203
   39MOL    H4511521   6.955   4.390   7.810 -0.4895  0.7316 -1.1809
   39MOL    H4611522   6.708   4.344   7.822  0.6085 -1.8075  1.5369
   39MOL    C4711523   6.703   3.872   7.572 -0.8370  0.4227 -0.3785
   39MOL    C4811524   6.835   3.791   7.603  0.2562 -0.5826 -0.3060
   39MOL    C4911525   6.801   3.672   7.694  0.3633  0.2349 -0.1221
   39MOL    C5011526   6.880   3.648   7.813  0.5935  0.7484 -0.3479
   39MOL    C5111527   6.857   3.532   7.886 -0.0568 -0.5282  0.5810
   39MOL    C5211528   6.761   3.438   7.838 -0.4439  0.4310  0.2143
   39MOL    C5311529   6.699   3.463   7.712  0.1515  0.8029 -0.3997
   39MOL    N5411530   6.713   3.582   7.646  0.2856  0.1932 -0.1663
   39MOL    H5511531   6.641   3.813   7.504 -1.7139  0.5754  0.2883
   39MOL    H5611532   6.637   3.880   7.658  0.1623  1.8121  0.2619
   39MOL    H5711533   6.897   3.855   7.664  0.0404 -1.6606  1.0772
   39MOL    H5811534   6.959   3.712   7.849 -0.9387  1.5834  1.6202
   39MOL    H5911535   6.915   3.522   7.977  2.8580 -1.3380 -1.2752
   39MOL    H6011536   6.747   3.345   7.891  1.6204  0.4912  0.9079
   39MOL    H6111537   6.629   3.388   7.678 -1.0021  1.9644 -0.6034
   39MOL    C6211538   6.903   3.740   7.473  0.5067  0.5502 -0.5145
   39MOL    C6311539   7.024   3.634   7.490 -0.1498 -0.5967  0.4550
   39MOL    C6411540   7.067   3.589   7.352  0.0763 -0.0942 -0.1851
   39MOL    C6511541   7.071   3.451   7.322 -0.1559 -0.8224 -0.4040
   39MOL    C6611542   7.099   3.414   7.187  0.0549 -0.7117 -0.1639
   39MOL    C6711543   7.127   3.514   7.092 -0.1897 -0.3361  0.1628
   39MOL    C6811544   7.140   3.651   7.136 -0.7493  1.1318  0.2298
   39MOL    N6911545   7.098   3.685   7.264 -0.0376  0.4932  0.4351
   39MOL    H7011546   6.927   3.819   7.402  0.2604  1.0416 -0.0555
   39MOL    H7111547   6.829   3.688   7.413  0.6808  0.2009 -0.4245
   39MOL    H7211548   6.976   3.547   7.535 -1.4294  0.2709  0.8144
   39MOL    H7311549   7.038   3.380   7.397 -2.9946  1.0572  0.1793
   39MOL    H7411550   7.093   3.311   7.155  1.4219 -0.1853 -2.2673
   39MOL    H7511551   7.148   3.481   6.991  0.3139  1.8890 -0.4678
   39MOL    H7611552   7.179   3.720   7.063  0.8494 -0.3158 -0.3310
   39MOL    C7711553   7.139   3.664   7.585 -0.2820  0.3425  0.5577
   39MOL    C7811554   7.246   3.547   7.598  1.2081 -0.6496  0.3234
   39MOL    C7911555   7.367   3.600   7.672  0.0960 -0.1710  0.6658
   39MOL    C8011556   7.358   3.667   7.791 -0.2303  0.9273 -0.0179
   39MOL    C8111557   7.480   3.713   7.852  0.1141 -0.2001 -0.5836
   39MOL    C8211558   7.597   3.688   7.789  0.3823  0.8349 -0.0905
   39MOL    C8311559   7.597   3.620   7.668  0.6560  0.3449  0.3313
   39MOL    N8411560   7.484   3.585   7.603 -0.2664  0.6314  0.4837
   39MOL    H8511561   7.096   3.686   7.683  0.4359 -0.0927  0.9780
   39MOL    H8611562   7.203   3.742   7.546 -0.0504  0.2886  0.8254
   39MOL    H8711563   7.274   3.519   7.497  1.3377  3.2099 -0.7919
   39MOL    H8811564   7.261   3.689   7.835 -0.1183 -2.1158  1.8871
   39MOL    H8911565   7.483   3.755   7.952  0.2480 -1.7359  0.0668
   39MOL    H9011566   7.690   3.711   7.840  1.0364 -1.8592 -0.0125
   39MOL    H9111567   7.688   3.606   7.612  0.5883  1.9274 -0.1986
   39MOL    C9211568   7.190   3.413   7.653  0.3502  0.4683 -0.1734
   39MOL    C9311569   7.272   3.283   7.644 -0.1531 -0.7260 -0.1303
   39MOL    C9411570   7.206   3.188   7.742  0.5299  0.4427  0.0645
   39MOL    C9511571   7.075   3.136   7.707  0.0065 -0.2585 -0.2551
   39MOL    C9611572   7.012   3.061   7.810  0.1382  0.0090 -0.6841
   39MOL    C9711573   7.085   3.019   7.925 -0.9266  0.4353  0.2646
   39MOL    C9811574   7.215   3.072   7.945 -0.6403  0.2289 -0.0230
   39MOL    N9911575   7.267   3.158   7.856 -0.7192  0.2263 -0.2030
   39MOL   H10011576   7.094   3.395   7.604 -0.5319  1.2677  1.2480
   39MOL   H10111577   7.168   3.436   7.757  2.6531 -0.7428  0.5994
   39MOL   H10211578   7.372   3.311   7.678  1.6034 -2.2486 -3.7871
   39MOL   H10311579   7.025   3.156   7.614  0.4140 -0.2435 -0.4716
   39MOL   H10411580   6.914   3.018   7.802 -1.4337  2.9032  1.8262
   39MOL   H10511581   7.033   2.959   7.999  2.1675  1.5031  3.4233
   39MOL   H10611582   7.270   3.053   8.036 -0.6010  0.4149 -0.0066
   39MOL   C10711583   7.281   3.222   7.500 -0.6580 -0.5649  0.2963
   39MOL   C10811584   7.411   3.139   7.468  0.3402  0.0790  0.4620
   39MOL   C10911585   7.434   3.013   7.555  0.0329  0.2806 -0.2723
   39MOL   C11011586   7.562   2.980   7.609  0.1669  0.2480 -0.2044
   39MOL   C11111587   7.577   2.860   7.688 -0.3147  0.4803  0.6276
   39MOL   C11211588   7.459   2.789   7.722  0.1328 -0.4273  0.1980
   39MOL   C11311589   7.339   2.832   7.663 -0.2537 -0.5404  0.0502
   39MOL   N11411590   7.330   2.930   7.567 -0.0358  0.8071  0.4772
   39MOL   H11511591   7.294   3.310   7.437 -1.0013 -1.4543 -1.0363
   39MOL   H11611592   7.197   3.170   7.454 -1.0601 -0.7334  1.2092
   39MOL   H11711593   7.492   3.209   7.486 -0.2232  0.8641 -0.0106
   39MOL   H11811594   7.649   3.038   7.584  0.3386  0.2107  0.3188
   39MOL   H11911595   7.674   2.840   7.731 -1.1783  0.2473  2.5277
   39MOL   H12011596   7.468   2.715   7.800  2.1488 -2.7860 -2.1790
   39MOL   H12111597   7.255   2.768   7.687 -1.0549  1.0571  1.5621
   39MOL   C12211598   7.416   3.107   7.316 -0.3743  0.0166  0.9175
   39MOL   C12311599   7.539   3.019   7.268  0.4336  0.4115 -0.1150
   39MOL   C12411600   7.506   2.954   7.129  0.1883  0.5804  0.3526
   39MOL   C12511601   7.526   2.819   7.113  0.8705  0.0365  0.1357
   39MOL   C12611602   7.504   2.760   6.986  0.1215  0.2252 -0.3533
   39MOL   C12711603   7.455   2.842   6.883  0.1740  0.5528 -0.5296
   39MOL   C12811604   7.448   2.980   6.901 -0.8455 -0.2322  0.1431
   39MOL   N12911605   7.472   3.035   7.026  0.6845 -0.7461  0.3194
   39MOL   H13011606   7.416   3.200   7.259  0.5957 -2.0968 -2.6918
   39MOL   H13111607   7.332   3.042   7.292  0.8244 -1.2661  0.1003
   39MOL   H13211608   7.544   2.936   7.337 -1.0508  0.6721  0.3396
   39MOL   H13311609   7.560   2.758   7.195  0.8787  1.0177  0.8762
   39MOL   H13411610   7.511   2.653   6.982  0.8937  0.2988 -0.8967
   39MOL   H13511611   7.435   2.796   6.787  0.7302  0.7224 -0.7303
   39MOL   H13611612   7.409   3.049   6.828  0.5823  0.0441 -0.3718
   39MOL   C13711613   7.668   3.104   7.262 -0.0169 -0.5298 -0.1568
   39MOL   C13811614   7.792   3.018   7.226 -0.9656  0.5219 -0.5525
   39MOL   C13911615   7.909   3.103   7.199 -1.0709 -0.2483  0.8061
   39MOL   C14011616   7.973   3.089   7.072 -0.1657 -0.0825  0.0448
   39MOL   C14111617   8.088   3.162   7.045  0.1649 -0.2414  0.1014
   39MOL   C14211618   8.142   3.242   7.144  0.2317  0.0233  0.2926
   39MOL   C14311619   8.072   3.257   7.266  0.3150  0.2183  1.0635
   39MOL   N14411620   7.960   3.190   7.290 -0.3617 -0.0594 -0.1940
   39MOL   H14511621   7.688   3.148   7.360 -0.5899  0.0169 -0.2848
   39MOL   H14611622   7.669   3.188   7.193  0.4818  0.3780  0.9411
   39MOL   H14711623   7.773   2.964   7.134  2.3440  1.6689 -1.9729
   39MOL   H14811624   7.930   3.025   6.996 -2.6907  0.9403  0.5682
   39MOL   H14911625   8.130   3.138   6.949 -2.2765 -0.0204 -1.0710
   39MOL   H15011626   0.082   3.298   7.135  0.5360 -0.0018  2.8985
   39MOL   H15111627   8.110   3.313   7.350 -0.4820 -1.6526  2.7248
   39MOL   C15211628   7.828   2.917   7.338 -0.5162  0.0161  0.4366
   39MOL   C15311629   7.940   2.816   7.309 -0.3354  0.2389  0.2455
   39MOL   C15411630   8.001   2.762   7.441 -0.0939 -0.1708 -0.3836
   39MOL   C15511631   8.136   2.786   7.466  0.1406  0.2056 -0.0715
   39MOL   C15611632   0.040   2.742   7.583 -0.3046 -0.2966 -0.1936
   39MOL   C15711633   8.108   2.686   7.682 -0.2769  0.1342  0.1453
   39MOL   C15811634   7.979   2.663   7.646 -0.0683  0.0652 -0.0946
   39MOL   N15911635   7.920   2.693   7.526 -0.4834  0.2892 -0.0272
   39MOL   H16011636   7.744   2.864   7.383 -0.2063 -0.0925  0.8987
   39MOL   H16111637   7.858   2.980   7.422  0.9070 -0.5097  0.3482
   39MOL   H16211638   8.016   2.867   7.250 -0.3366  0.5875  0.5471
   39MOL   H16311639   0.046   2.836   7.393  2.0477 -3.4200 -1.0739
   39MOL   H16411640   0.146   2.760   7.597 -0.2240 -0.8628 -0.0818
   39MOL   H16511641   8.147   2.658   7.779  0.5043 -1.0361 -0.4899
   39MOL   H16611642   7.904   2.627   7.714  0.1951 -1.1156 -0.4238
   39MOL   C16711643   7.883   2.702   7.225  0.8860  0.5326 -0.2208
   39MOL   C16811644   7.978   2.600   7.162 -0.3408 -0.5939 -0.4419
   39MOL   C16911645   7.899   2.485   7.091 -0.0116 -0.4046 -0.0060
   39MOL   C17011646   7.761   2.499   7.053 -0.4087  0.0824  0.4343
   39MOL   C17111647   7.699   2.375   7.021 -0.2595  0.2484 -0.4330
   39MOL   C17211648   7.770   2.251   7.014 -0.0746 -0.6299  0.4420
   39MOL   C17311649   7.899   2.251   7.064  0.7143 -0.3882  0.4088
   39MOL   N17411650   7.969   2.366   7.095  0.0290  0.6080 -0.4271
   39MOL   H17511651   7.819   2.750   7.151 -0.1784 -1.8526 -0.9007
   39MOL   H17611652   7.822   2.655   7.303  1.2026  0.5531  0.0419
   39MOL   H17711653   8.054   2.567   7.233 -0.5168  0.1517  0.1033
   39MOL   H17811654   7.711   2.594   7.064  0.0230  0.5648 -1.5150
   39MOL   H17911655   7.593   2.367   7.000 -0.1247  2.0825 -1.9599
   39MOL   H18011656   7.708   2.169   6.980 -0.4876 -0.1512  0.0207
   39MOL   H18111657   7.958   2.162   7.075  0.2883 -0.4708  2.1035
   39MOL   C18211658   8.061   2.670   7.053  0.3166 -0.2250 -0.9086
   39MOL   C18311659   0.049   2.725   7.069 -0.5453 -0.2631 -1.2990
   39MOL   C18411660   0.165   2.627   7.103  0.0787  0.5278  0.5810
   39MOL   C18511661   0.177   2.499   7.039 -0.0032 -0.2833 -0.1423
   39MOL   C18611662   0.289   2.417   7.065  0.1882 -0.0731  0.8785
   39MOL   C18711663   0.384   2.462   7.155 -0.0495  0.4631  0.0809
   39MOL   C18811664   0.353   2.572   7.231 -0.4684  0.7664  0.2255
   39MOL   N18911665   0.257   2.662   7.196  1.5913  0.1234  0.0787
   39MOL   H19011666   7.990   2.733   6.999  1.0525 -0.0694 -1.7062
   39MOL   H19111667   8.086   2.597   6.976  1.8899 -1.1397  0.4360
   39MOL   H19211668   0.052   2.802   7.146  1.5192 -0.0156 -1.5918
   39MOL   H19311669   0.100   2.461   6.973  0.8589 -2.0450 -0.1554
   39MOL   H19411670   0.298   2.324   7.012  0.5250  1.0186 -1.0437
   39MOL   H19511671   0.469   2.398   7.177 -0.6314 -0.7331 -1.0292
   39MOL   H19611672   0.420   2.606   7.308  1.5585  1.0993 -1.6456
   39MOL   C19711673   0.093   2.807   6.937 -0.5611 -0.4556 -0.2459
   39MOL   C19811674   0.086   2.747   6.801  0.4484  0.4437 -0.2534
   39MOL   C19911675   8.102   2.712   6.751 -0.6311  0.2679  0.1985
   39MOL   C20011676   8.059   2.578   6.737  1.1785 -0.2631 -0.2591
   39MOL   C20111677   7.919   2.556   6.724  1.0567 -0.1753 -0.9536
   39MOL   C20211678   7.833   2.667   6.716  0.5275 -0.3576  0.1976
   39MOL   C20311679   7.885   2.798   6.709  0.1889  0.4601 -0.7742
   39MOL   N20411680   8.016   2.816   6.738  0.4974 -0.3299 -0.4643
   39MOL   H20511681   0.195   2.837   6.962 -0.5380 -0.5190 -0.2632
   39MOL   H20611682   0.031   2.897   6.933  1.0558  0.7773  1.3568
   39MOL   H20711683   0.148   2.659   6.816  1.8517  1.3352 -0.6648
   39MOL   H20811684   8.130   2.498   6.752  1.0270 -0.1353  1.2083
   39MOL   H20911685   7.874   2.458   6.718 -2.6601  1.3230  0.8391
   39MOL   H21011686   7.727   2.652   6.712  0.3130  0.6927  1.6259
   39MOL   H21111687   7.811   2.876   6.709  0.3289  0.6317  1.6496
   39MOL   C21211688   0.166   2.840   6.703  0.8948  0.0566  0.3294
   39MOL   C21311689   0.315   2.828   6.705  0.0675 -0.3640 -0.0072
   39MOL   C21411690   0.367   2.688   6.708  0.2473  0.8341 -0.0269
   39MOL   C21511691   0.451   2.635   6.813 -0.3536 -0.1826 -0.3544
   39MOL   C21611692   0.474   2.496   6.811 -0.3045  0.5546 -0.4339
   39MOL   C21711693   0.415   2.416   6.712  0.2889 -0.5967 -0.9112
   39MOL   C21811694   0.350   2.477   6.608 -0.4715  0.3225 -0.1382
   39MOL   N21911695   0.325   2.610   6.607 -0.3445  0.2179  0.4685
   39MOL   H22011696   0.140   2.946   6.709 -0.4228 -0.1143 -1.9891
   39MOL   H22111697   0.129   2.811   6.605  0.6209  1.7395 -0.0704
   39MOL   H22211698   0.340   2.864   6.804  0.6509 -0.7739 -0.0007
   39MOL   H22311699   0.500   2.699   6.885 -1.7964  1.2765 -0.6300
   39MOL   H22411700   0.541   2.456   6.886 -1.0923  0.7007  0.3556
   39MOL   H22511701   0.436   2.311   6.708 -0.9017 -0.8062 -2.1654
   39MOL   H22611702   0.320   2.414   6.525  0.2763  0.6961 -0.7037
   39MOL   C22711703   0.394   2.908   6.597 -0.0534  1.1480  0.1416
   39MOL   C22811704   0.390   3.058   6.602 -0.3849 -0.3366  0.2296
   39MOL   C22911705   0.372   3.108   6.747 -1.6190  0.4200 -0.6250
   39MOL   C23011706   0.257   3.177   6.781 -0.2811  0.1409 -0.4246
   39MOL   C23111707   0.244   3.243   6.906  0.0118 -0.9103  0.3646
   39MOL   C23211708   0.352   3.219   7.000 -0.1845 -0.0285 -0.3960
   39MOL   C23311709   0.459   3.149   6.957  0.0877 -0.6399  0.2985
   39MOL   N23411710   0.476   3.092   6.833  0.9709  0.1176 -0.7013
   39MOL   H23511711   0.356   2.868   6.503  0.7291 -0.1857  0.3872
   39MOL   H23611712   0.500   2.883   6.600 -0.0311  1.3977  2.1479
   39MOL   H23711713   0.304   3.085   6.541 -0.1949  1.4689  0.7405
   39MOL   H23811714   0.176   3.173   6.710 -1.6453 -0.1496  1.1189
   39MOL   H23911715   0.157   3.305   6.920  0.2228 -0.3495 -0.7904
   39MOL   H24011716   0.355   3.273   7.094  0.3925  0.3159 -0.6109
   39MOL   H24111717   0.546   3.141   7.021  0.3773  2.7828  0.4003
   39MOL   C24211718   0.500   3.134   6.527  0.6531 -0.6809  0.5888
   39MOL   C24311719   0.473   3.284   6.492  0.3811 -0.2299  0.2434
   39MOL   C24411720   0.606   3.343   6.472  1.1054 -0.4911 -0.0605
   39MOL   C24511721   0.647   3.456   6.543  0.0194 -0.1533  0.3875
   39MOL   C24611722   0.779   3.502   6.522  0.1535 -0.2047 -0.0898
   39MOL   C24711723   0.858   3.448   6.418  0.2281 -0.3194 -0.1192
   39MOL   C24811724   0.802   3.346   6.342 -0.4856 -0.7279  0.3548
   39MOL   N24911725   0.683   3.289   6.371 -0.4019  0.7716 -0.3000
   39MOL   H25011726   0.525   3.089   6.431  1.2566  1.0577 -0.0848
   39MOL   H25111727   0.591   3.121   6.585  1.5710 -0.0801 -0.6799
   39MOL   H25211728   0.431   3.337   6.577 -0.2108 -1.6805  0.8633
   39MOL   H25311729   0.574   3.489   6.615 -1.2470 -4.2703  1.1213
   39MOL   H25411730   0.817   3.589   6.573  2.2662 -0.3266 -1.3874
   39MOL   H25511731   0.961   3.474   6.399 -0.0478  0.8606 -0.0243
   39MOL   H25611732   0.864   3.309   6.262  0.4320  1.4837  0.0174
   39MOL   C25711733   0.378   3.299   6.375  0.4059 -0.1671  0.0406
   39MOL   C25811734   0.355   3.439   6.329 -0.0984 -0.2829  0.0631
   39MOL   C25911735   0.298   3.442   6.186 -0.1522  0.2468  0.2557
   39MOL   C26011736   0.379   3.471   6.078  0.1016 -0.3077  0.2635
   39MOL   C26111737   0.321   3.493   5.953  0.0659 -0.6271  0.3841
   39MOL   C26211738   0.180   3.477   5.940  0.1292 -0.0120  0.9653
   39MOL   C26311739   0.107   3.440   6.055 -0.0482 -0.2817  0.6086
   39MOL   N26411740   0.162   3.417   6.170 -0.7106  0.3462 -0.0034
   39MOL   H26511741   0.283   3.247   6.391  0.0266 -0.1256 -1.9097
   39MOL   H26611742   0.416   3.240   6.292 -1.8143  0.5104 -1.5178
   39MOL   H26711743   0.455   3.481   6.321 -0.0835 -0.7026 -2.5837
   39MOL   H26811744   0.483   3.495   6.093  0.1964 -0.7437  0.3171
   39MOL   H26911745   0.380   3.519   5.866  1.9935 -1.7961  1.2886
   39MOL   H27011746   0.131   3.487   5.844 -1.6383  1.4327  1.9780
   39MOL   H27111747   0.005   3.406   6.047 -0.7419  2.0516 -0.7275
   39MOL   C27211748   0.273   3.525   6.427  0.2486  0.6879 -0.4928
   39MOL   C27311749   0.241   3.671   6.386 -0.1465  0.4032 -0.3855
   39MOL   C27411750   0.100   3.717   6.419 -0.6511 -0.2084  0.5607
   39MOL   C27511751   0.018   3.758   6.313  0.1713 -0.4751  0.0220
   39MOL   C27611752   8.041   3.800   6.344 -0.3022 -0.3162  0.0306
   39MOL   C27711753   8.005   3.801   6.477  0.6290 -0.1317 -0.3516
   39MOL   C27811754   8.097   3.770   6.582 -0.1904 -0.0595 -0.3441
   39MOL   N27911755   0.067   3.722   6.553  0.1956 -0.5803 -0.1801
   39MOL   H28011756   0.289   3.526   6.535 -0.4755 -0.2463 -0.3743
   39MOL   H28111757   0.176   3.477   6.412  0.3032 -0.0781  1.5217
   39MOL   H28211758   0.258   3.678   6.279 -0.9869  3.5829 -0.3601
   39MOL   H28311759   0.055   3.764   6.212 -0.1406  1.0120 -0.0196
   39MOL   H28411760   7.979   3.832   6.262  2.1325 -3.4941 -3.1660
   39MOL   H28511761   7.906   3.830   6.507  0.3718  0.2162 -1.5138
   39MOL   H28611762   8.064   3.776   6.685  2.0618 -1.6842  0.5152
   39MOL   C28711763   0.344   3.759   6.450 -0.3861  0.0664 -0.4667
   39MOL   C28811764   0.321   3.913   6.424 -0.4544  0.4268 -1.0246
   39MOL   C28911765   0.314   3.955   6.277 -0.5666 -0.2727  0.2323
   39MOL   C29011766   0.203   4.019   6.220 -0.2253 -0.6264  0.1193
   39MOL   C29111767   0.200   4.041   6.080  0.7472 -0.1590 -0.0757
   39MOL   C29211768   0.312   3.995   6.002 -0.3248  0.4530  0.4680
   39MOL   C29311769   0.416   3.940   6.076 -0.4831 -0.1860 -0.1939
   39MOL   N29411770   0.420   3.918   6.206  0.2736 -0.4516 -0.5088
   39MOL   H29511771   0.445   3.725   6.424 -0.3095  0.0828 -0.1901
   39MOL   H29611772   0.338   3.748   6.558 -1.1434  0.3630 -0.4768
   39MOL   H29711773   0.404   3.968   6.467  0.2720 -0.0967 -1.7579
   39MOL   H29811774   0.119   4.050   6.280 -1.1632  2.3651 -2.6546
   39MOL   H29911775   0.110   4.083   6.037 -0.7281 -0.6883  2.4306
   39MOL   H30011776   0.328   4.006   5.896 -0.7808 -4.1418 -0.1735
   39MOL   H30111777   0.510   3.919   6.025  0.0865 -1.2647  1.2870
   39MOL   H30211778   0.230   3.950   6.473  1.1017  3.6467 -0.4070
   40MOL     C111779   0.829   6.630   0.850  0.1071 -0.0366  0.3986
   40MOL     C211780   0.810   6.695   0.711 -0.3337  0.0489  0.1827
   40MOL     C311781   0.792   6.585   0.599  0.1431  0.3870 -0.4029
   40MOL     C411782   0.878   6.593   0.491 -0.6443  0.9152 -0.4540
   40MOL     C511783   0.857   6.504   0.383  0.2197 -0.2656  0.4307
   40MOL     C611784   0.757   6.405   0.395 -0.0708 -0.6481  0.1954
   40MOL     C711785   0.684   6.411   0.512  0.0923 -0.0140 -0.8485
   40MOL     N811786   0.695   6.496   0.611 -0.6592 -0.1480  0.2309
   40MOL     H911787   0.841   6.709   0.923 -1.7499  2.4600 -1.8964
   40MOL    H1011788   0.745   6.566   0.875  1.1377 -1.5865  0.0069
   40MOL    H1111789   0.895   6.756   0.681  0.0688 -0.6801 -0.1728
   40MOL    H1211790   0.958   6.665   0.493  0.1012  0.0931  0.1244
   40MOL    H1311791   0.922   6.501   0.297 -0.7776  1.3290 -0.3911
   40MOL    H1411792   0.756   6.323   0.325  1.0635 -0.1627 -0.4032
   40MOL    H1511793   0.620   6.328   0.537  0.8636 -0.3217  0.1332
   40MOL    H1611794   0.923   6.575   0.854 -0.9238 -1.7865  1.1097
   40MOL    C1711795   0.687   6.791   0.703  0.2043 -0.3101 -0.2339
   40MOL    C1811796   0.662   6.913   0.798 -0.5832  0.4940  0.8172
   40MOL    C1911797   0.794   6.984   0.806  0.1378  0.3571  0.0292
   40MOL    C2011798   0.839   7.016   0.935 -0.4284 -0.4463  0.6371
   40MOL    C2111799   0.957   7.090   0.943 -0.1917 -0.5924 -0.2003
   40MOL    C2211800   1.015   7.139   0.831  0.3628 -0.1666  0.0860
   40MOL    C2311801   0.949   7.126   0.706  0.2223  0.6286  0.2331
   40MOL    N2411802   0.848   7.036   0.695  0.3397 -0.4647 -0.3867
   40MOL    H2511803   0.605   6.718   0.707 -0.2648  0.2861  1.3720
   40MOL    H2611804   0.682   6.828   0.601 -2.5490  0.3848  0.1141
   40MOL    H2711805   0.660   6.863   0.895  0.5913 -0.9631  0.1185
   40MOL    H2811806   0.795   6.979   1.026 -2.1738  2.3053  0.9636
   40MOL    H2911807   1.000   7.117   1.038 -0.5345 -0.2196 -0.1496
   40MOL    H3011808   1.106   7.195   0.846  0.9121 -0.0921 -3.2129
   40MOL    H3111809   0.992   7.163   0.614 -1.6762  0.8850 -0.5801
   40MOL    C3211810   0.550   7.003   0.766  1.1435 -0.3047  0.0369
   40MOL    C3311811   0.419   6.968   0.860 -0.0632  0.2647  0.5640
   40MOL    C3411812   0.391   7.082   0.955  0.1148 -0.3069 -0.0606
   40MOL    C3511813   0.307   7.188   0.919 -0.1876  0.0598 -0.1613
   40MOL    C3611814   0.281   7.287   1.010 -0.3249 -0.3796  0.5357
   40MOL    C3711815   0.333   7.276   1.145  0.1333  0.2038 -0.6259
   40MOL    C3811816   0.414   7.165   1.173 -0.1523  0.0583  0.6698
   40MOL    N3911817   0.441   7.073   1.080 -0.2561  0.2283  1.1416
   40MOL    H4011818   0.517   6.994   0.663  0.9776  0.2527  0.0346
   40MOL    H4111819   0.581   7.108   0.769  1.2099 -0.3478  1.0366
   40MOL    H4211820   0.445   6.892   0.934  0.4987 -0.8895 -0.8023
   40MOL    H4311821   0.273   7.199   0.817  1.5934 -2.9592 -1.1652
   40MOL    H4411822   0.217   7.373   0.993 -0.6244 -0.2478  2.2391
   40MOL    H4511823   0.292   7.341   1.221  0.9152 -0.0155 -0.0081
   40MOL    H4611824   0.464   7.158   1.269  2.0040  1.3757 -0.3066
   40MOL    C4711825   0.297   6.926   0.778 -0.2047  0.7958 -0.7555
   40MOL    C4811826   0.318   6.782   0.712  0.0665 -0.4157  0.6060
   40MOL    C4911827   0.310   6.664   0.808 -0.3970 -0.4263 -0.0893
   40MOL    C5011828   0.403   6.565   0.801 -0.0255 -0.4597 -0.5694
   40MOL    C5111829   0.386   6.458   0.883  0.7444  0.6381 -0.0698
   40MOL    C5211830   0.266   6.444   0.958  0.5298 -0.7003 -0.2166
   40MOL    C5311831   0.185   6.555   0.963 -0.3594  0.4725  0.5521
   40MOL    N5411832   0.198   6.669   0.886  0.3783  1.1781  0.2872
   40MOL    H5511833   0.268   6.999   0.702  2.8995 -0.4912 -3.3262
   40MOL    H5611834   0.214   6.921   0.848  0.1572  1.5735 -0.2701
   40MOL    H5711835   0.418   6.772   0.669 -0.4010  1.5376 -1.0072
   40MOL    H5811836   0.491   6.570   0.738  0.4237  1.4638  0.1758
   40MOL    H5911837   0.454   6.375   0.879 -1.6999 -1.3774 -0.7661
   40MOL    H6011838   0.255   6.361   1.027  1.2270 -0.2835  0.4087
   40MOL    H6111839   0.089   6.555   1.013 -0.2418  0.5156  0.7744
   40MOL    C6211840   0.215   6.761   0.594 -0.4095  0.4595  0.1887
   40MOL    C6311841   0.242   6.829   0.455 -0.2027 -0.7334 -0.2126
   40MOL    C6411842   0.388   6.842   0.411 -0.6526  0.2972  0.1968
   40MOL    C6511843   0.459   6.967   0.406 -0.4418  1.0203 -0.1654
   40MOL    C6611844   0.592   6.959   0.363 -0.3303  0.4397 -0.6736
   40MOL    C6711845   0.655   6.833   0.337 -0.0241  0.3976 -0.2102
   40MOL    C6811846   0.577   6.719   0.352 -0.0769  0.1821 -0.3949
   40MOL    N6911847   0.450   6.724   0.396  0.0977  0.4686 -0.3068
   40MOL    H7011848   0.121   6.798   0.633  0.6271  0.4953  2.7059
   40MOL    H7111849   0.199   6.655   0.574  0.6612  0.1502  0.9520
   40MOL    H7211850   0.204   6.931   0.462 -1.2592 -1.1314 -0.0761
   40MOL    H7311851   0.399   7.053   0.430 -2.6245 -0.7179  0.8704
   40MOL    H7411852   0.647   7.051   0.345 -0.6024  0.1909 -3.0319
   40MOL    H7511853   0.754   6.826   0.295 -0.1030 -0.5241 -0.2507
   40MOL    H7611854   0.627   6.626   0.329  0.7251  0.6214 -0.4720
   40MOL    C7711855   0.159   6.768   0.346  0.4651  0.2743  0.7150
   40MOL    C7811856   0.008   6.769   0.371 -0.0965 -0.0131 -0.1198
   40MOL    C7911857   8.100   6.906   0.347 -0.1831  0.0604  0.2842
   40MOL    C8011858   8.059   6.975   0.461  0.0303 -0.4639 -0.2968
   40MOL    C8111859   7.990   7.097   0.441  0.2127  0.1734 -0.1753
   40MOL    C8211860   7.971   7.144   0.306  0.8305  0.1895 -0.1853
   40MOL    C8311861   8.013   7.060   0.199  0.2858  0.0747  0.3114
   40MOL    N8411862   8.082   6.945   0.222  0.1920  0.6257 -0.3710
   40MOL    H8511863   0.188   6.666   0.321 -4.0337 -1.5376  2.3413
   40MOL    H8611864   0.193   6.814   0.253  1.0196 -0.6030  0.4837
   40MOL    H8711865   8.133   6.739   0.472  0.6766 -0.7590 -0.1266
   40MOL    H8811866   8.078   6.948   0.563  1.0243  1.7165  0.1150
   40MOL    H8911867   7.945   7.156   0.519  2.1766  1.7203 -0.1668
   40MOL    H9011868   7.910   7.227   0.275 -0.9012 -1.0991 -0.2590
   40MOL    H9111869   8.009   7.095   0.097  0.1052  2.7618  1.1979
   40MOL    C9211870   8.088   6.660   0.288  0.3762 -0.5028 -0.0383
   40MOL    C9311871   8.107   6.510   0.336  0.0698  0.5517 -0.0667
   40MOL    C9411872   8.052   6.501   0.477  0.2154 -0.7689 -0.6412
   40MOL    C9511873   8.130   6.462   0.591 -0.7890 -0.3202 -0.0598
   40MOL    C9611874   8.076   6.473   0.717 -0.0236  0.1664  0.1190
   40MOL    C9711875   7.938   6.503   0.725  0.4498  0.2414  0.4160
   40MOL    C9811876   7.868   6.533   0.605 -0.7282  0.3439  0.4634
   40MOL    N9911877   7.925   6.541   0.486 -0.1297 -0.0072 -0.5600
   40MOL   H10011878   8.123   6.671   0.185  0.3341 -1.0568 -0.1161
   40MOL   H10111879   7.983   6.689   0.285  0.8571  1.1906 -1.3680
   40MOL   H10211880   0.063   6.497   0.345 -0.1668 -0.4868  1.4470
   40MOL   H10311881   0.085   6.449   0.580 -1.1794 -1.3696 -3.1590
   40MOL   H10411882   8.129   6.460   0.811  0.6885 -1.1076 -0.4340
   40MOL   H10511883   7.886   6.517   0.818  0.6332  1.3300  0.3618
   40MOL   H10611884   7.765   6.561   0.621 -1.2132 -2.3887  2.4478
   40MOL   C10711885   8.033   6.408   0.247 -0.1826 -0.3123 -0.0751
   40MOL   C10811886   8.071   6.400   0.102  0.5031 -0.1946 -0.2015
   40MOL   C10911887   0.003   6.276   0.078 -0.4350 -0.3199  0.4070
   40MOL   C11011888   0.144   6.284   0.076 -0.0182 -0.4342  0.3001
   40MOL   C11111889   0.221   6.167   0.069 -0.2397  0.0884 -0.0039
   40MOL   C11211890   0.157   6.044   0.063  0.8407  0.3499  0.1761
   40MOL   C11311891   0.021   6.046   0.043  0.5076 -0.2029 -0.1858
   40MOL   N11411892   8.098   6.156   0.058 -0.0983 -0.1914  0.0078
   40MOL   H11511893   7.928   6.436   0.253 -0.4000 -1.2691  0.7664
   40MOL   H11611894   8.045   6.310   0.293 -0.3835 -0.2968  0.0116
   40MOL   H11711895   8.133   6.485   0.072 -1.1869  1.8043  1.7590
   40MOL   H11811896   0.194   6.379   0.086  1.1172 -0.9210 -0.6335
   40MOL   H11911897   0.329   6.171   0.076 -0.3562  0.2847  1.9893
   40MOL   H12011898   0.205   5.948   0.056  1.2158  0.6813 -2.0782
   40MOL   H12111899   8.116   5.954   0.040  0.5140 -0.3512  2.5590
   40MOL   C12211900   7.948   6.411   0.011  0.1430  0.7658 -0.0378
   40MOL   C12311901   7.875   6.539   0.010 -0.0848 -0.2526 -1.3069
   40MOL   C12411902   7.931   6.634   8.061  0.2507  0.3801  0.7218
   40MOL   C12511903   7.962   6.764   8.106 -0.2167  0.7182 -0.0587
   40MOL   C12611904   8.015   6.857   8.019 -0.2327  0.9179 -0.0242
   40MOL   C12711905   8.019   6.821   7.881  0.0492 -0.1957 -0.4592
   40MOL   C12811906   7.986   6.688   7.838 -0.0486 -0.9825 -0.3556
   40MOL   N12911907   7.948   6.595   7.931 -0.7890  0.1364  0.2870
   40MOL   H13011908   7.889   6.336   0.064 -0.2671  0.6661 -0.6277
   40MOL   H13111909   7.964   6.370   8.063 -0.2080  0.2970  0.0970
   40MOL   H13211910   7.894   6.581   0.109  0.4763  0.0700 -1.5481
   40MOL   H13311911   7.947   6.790   0.058 -1.1351  0.5156 -0.1364
   40MOL   H13411912   8.044   6.955   8.053  1.4924 -0.0902  1.4331
   40MOL   H13511913   8.043   6.893   7.805  0.7738 -0.0648 -0.1037
   40MOL   H13611914   7.990   6.657   7.734 -0.7573  0.6454 -0.8859
   40MOL   C13711915   7.724   6.518   8.132  0.0030  0.2171 -0.0523
   40MOL   C13811916   7.635   6.559   0.106 -0.0585  0.0062  0.2690
   40MOL   C13911917   7.645   6.708   0.146 -0.6454  0.2950 -0.5425
   40MOL   C14011918   7.721   6.745   0.259 -0.1354  0.7366  0.2415
   40MOL   C14111919   7.725   6.883   0.295  0.2632 -0.1553  0.0856
   40MOL   C14211920   7.676   6.975   0.198  0.1703  1.3711 -0.1137
   40MOL   C14311921   7.628   6.929   0.072  0.1735  0.2051  0.4441
   40MOL   N14411922   7.603   6.798   0.049  0.2692  0.3791  0.5060
   40MOL   H14511923   7.710   6.417   8.093 -0.3823 -0.6003  2.1370
   40MOL   H14611924   7.694   6.584   8.051 -1.9220  0.2060  0.6112
   40MOL   H14711925   7.675   6.515   0.197  2.4892 -1.5717 -1.5596
   40MOL   H14811926   7.752   6.674   0.334 -0.3375 -0.0014 -0.3667
   40MOL   H14911927   7.773   6.909   0.388  3.7451 -0.2173 -1.6160
   40MOL   H15011928   7.703   7.079   0.206  0.1370  1.2475  2.1078
   40MOL   H15111929   7.599   6.991   8.141  0.9896  0.1551  0.1244
   40MOL   C15211930   7.490   6.516   0.093  0.1910 -0.0391  0.4431
   40MOL   C15311931   7.461   6.365   0.125 -0.3232 -0.1440  0.5033
   40MOL   C15411932   7.569   6.290   0.202 -0.3238  0.8473 -0.4889
   40MOL   C15511933   7.663   6.205   0.139  0.1614 -0.7947 -0.2691
   40MOL   C15611934   7.776   6.155   0.206 -0.0696  0.4195  0.3338
   40MOL   C15711935   7.782   6.186   0.343 -0.1844  0.3554 -0.7978
   40MOL   C15811936   7.675   6.258   0.402  0.1732 -0.3688 -0.3345
   40MOL   N15911937   7.575   6.316   0.333 -0.2285 -1.0111 -0.4597
   40MOL   H16011938   7.460   6.514   8.140 -1.6707 -2.0515  0.9858
   40MOL   H16111939   7.428   6.577   0.160  1.2150 -0.2526  1.5945
   40MOL   H16211940   7.452   6.315   0.029  0.9895  0.1791  0.2032
   40MOL   H16311941   7.634   6.182   0.037  0.3853 -0.0180 -0.5109
   40MOL   H16411942   7.850   6.094   0.156  1.4888  1.8378  0.8723
   40MOL   H16511943   7.862   6.153   0.407 -1.6674 -0.2458  0.7530
   40MOL   H16611944   7.682   6.288   0.506  1.0430 -1.2443 -0.1371
   40MOL   C16711945   7.317   6.351   0.181 -1.1238  0.4816  0.1603
   40MOL   C16811946   7.202   6.374   0.072 -1.0110 -0.9735 -0.7192
   40MOL   C16911947   7.203   6.273   8.105 -0.1006 -0.3986 -1.3706
   40MOL   C17011948   7.186   6.314   7.975 -0.5447 -0.4356 -0.1253
   40MOL   C17111949   7.169   6.223   7.872 -0.2027 -0.6520  0.1558
   40MOL   C17211950   7.178   6.086   7.907 -0.3480  0.3786  0.3641
   40MOL   C17311951   7.185   6.056   8.040  0.1894  0.0854  0.3437
   40MOL   N17411952   7.205   6.149   8.143  0.0403  0.5812  0.3030
   40MOL   H17511953   7.307   6.414   0.270 -2.9779 -0.5791  0.7192
   40MOL   H17611954   7.299   6.254   0.226 -2.7163 -0.0688 -1.6176
   40MOL   H17711955   7.220   6.470   0.025  0.6824 -0.3510  1.1415
   40MOL   H17811956   7.189   6.420   7.951 -1.4382 -0.0524  1.3603
   40MOL   H17911957   7.161   6.252   7.768  0.0162 -0.9110  0.0661
   40MOL   H18011958   7.165   6.009   7.833 -1.9225  1.7293 -0.7929
   40MOL   H18111959   7.188   5.951   8.066  0.2005  0.4047  1.6903
   40MOL   C18211960   7.059   6.369   0.137  0.6017  0.8287  0.1923
   40MOL   C18311961   7.018   6.478   0.233 -0.0385  0.7683 -0.1733
   40MOL   C18411962   7.045   6.618   0.175 -0.3859 -0.5183 -0.2599
   40MOL   C18511963   7.157   6.690   0.220 -0.1524 -0.3309 -0.0210
   40MOL   C18611964   7.169   6.825   0.187 -0.3131 -0.6517  0.1846
   40MOL   C18711965   7.064   6.887   0.113  0.2216 -0.4005  0.3231
   40MOL   C18811966   6.958   6.801   0.067  0.3881 -0.4420  0.8506
   40MOL   N18911967   6.955   6.668   0.091 -0.2860  0.2457  0.5948
   40MOL   H19011968   7.038   6.272   0.182 -1.9173  0.7627 -1.0487
   40MOL   H19111969   6.983   6.376   0.059 -0.1627 -0.0285  0.8510
   40MOL   H19211970   7.083   6.470   0.321  1.3449 -0.8641 -1.2988
   40MOL   H19311971   7.231   6.632   0.273 -1.1651  0.1330  1.9750
   40MOL   H19411972   7.259   6.877   0.215 -1.0347  0.1091  1.1149
   40MOL   H19511973   7.066   6.995   0.103 -0.9359 -0.2902  1.2264
   40MOL   H19611974   6.878   6.853   0.016 -0.1097 -1.8204  0.2130
   40MOL   C19711975   6.878   6.464   0.282 -0.0152 -0.5535  0.0810
   40MOL   C19811976   6.840   6.350   0.382 -0.1328 -1.1914  0.1710
   40MOL   C19911977   6.909   6.378   0.514 -0.4473 -0.0280 -1.1586
   40MOL   C20011978   6.962   6.266   0.583  1.0489  0.4345 -0.2458
   40MOL   C20111979   7.030   6.288   0.707 -0.4205  0.1125  0.3435
   40MOL   C20211980   7.019   6.414   0.764  0.5516 -0.0523  0.1280
   40MOL   C20311981   6.962   6.520   0.688 -0.4374 -0.0390 -0.2521
   40MOL   N20411982   6.901   6.505   0.569 -0.5894 -0.4739  0.0617
   40MOL   H20511983   6.817   6.453   0.193 -1.0803  0.7729  0.6400
   40MOL   H20611984   6.856   6.563   0.321  0.2639 -0.2652 -0.4887
   40MOL   H20711985   6.893   6.261   0.349  0.6993 -0.4441 -0.5384
   40MOL   H20811986   6.949   6.170   0.534  0.4944  0.7641 -0.7578
   40MOL   H20911987   7.094   6.213   0.752 -0.4595  0.6007  1.2164
   40MOL   H21011988   7.068   6.441   0.856  0.7692  0.7069 -0.2077
   40MOL   H21111989   6.953   6.618   0.733 -2.4070 -0.1985 -0.2372
   40MOL   C21211990   6.685   6.326   0.396  0.1445 -0.1293  0.4240
   40MOL   C21311991   6.613   6.260   0.275 -0.8655  0.1859 -0.3078
   40MOL   C21411992   6.695   6.138   0.222 -0.0383  0.1435  0.1202
   40MOL   C21511993   6.748   6.138   0.089  0.1161  0.0264 -0.3077
   40MOL   C21611994   6.819   6.017   0.045 -0.2325  0.7352 -0.4590
   40MOL   C21711995   6.837   5.919   0.138 -0.5500 -0.4780  0.0729
   40MOL   C21811996   6.778   5.925   0.268 -0.9458 -0.3861  0.5166
   40MOL   N21911997   6.707   6.032   0.308  0.0064  0.1528 -0.1394
   40MOL   H22011998   6.628   6.418   0.415 -0.3305 -0.4902  0.7635
   40MOL   H22111999   6.675   6.267   0.488 -0.2416 -1.3197 -0.3779
   40MOL   H22212000   6.601   6.328   0.191  1.2851  2.0109  0.8214
   40MOL   H22312001   6.737   6.217   0.016  1.3654  1.5466  1.1277
   40MOL   H22412002   6.851   6.005   8.094  0.8453 -1.9689  0.1616
   40MOL   H22512003   6.892   5.828   0.116 -0.3847 -0.4654  0.4342
   40MOL   H22612004   6.807   5.849   0.339 -0.5289 -1.8577 -1.1800
   40MOL   C22712005   6.474   6.224   0.317  0.2168  0.7697  0.0947
   40MOL   C22812006   6.383   6.177   0.207 -0.3089 -0.1598  0.0208
   40MOL   C22912007   6.307   6.060   0.260  0.2931  0.1852  0.0032
   40MOL   C23012008   6.297   5.946   0.180 -0.2022  0.3262 -0.7648
   40MOL   C23112009   6.214   5.839   0.222 -0.2361  0.1333  0.2223
   40MOL   C23212010   6.151   5.848   0.347  0.0833  0.0836 -0.8006
   40MOL   C23312011   6.149   5.975   0.409 -0.8336 -0.5318  0.2036
   40MOL   N23412012   6.224   6.080   0.364  0.0137 -0.4553 -0.1186
   40MOL   H23512013   6.435   6.318   0.356 -0.1140  0.7620 -0.2192
   40MOL   H23612014   6.478   6.143   0.390  1.9982  0.7428 -0.0108
   40MOL   H23712015   6.441   6.128   0.129 -2.7327 -2.5796 -0.3412
   40MOL   H23812016   6.352   5.943   0.087  0.3990  0.3211 -0.4079
   40MOL   H23912017   6.215   5.743   0.173 -1.0725 -0.2043  0.8459
   40MOL   H24012018   6.099   5.759   0.380 -0.2140  0.1672 -1.0405
   40MOL   H24112019   6.106   5.982   0.508  0.4283 -0.8259  0.7840
   40MOL   C24212020   6.293   6.290   0.151 -0.1378  0.2928  0.3843
   40MOL   C24312021   6.346   6.401   0.048  0.1223 -0.1215  0.4271
   40MOL   C24412022   6.376   6.333   8.072 -0.2580 -0.0272 -0.7360
   40MOL   C24512023   6.492   6.375   8.003 -0.9042  0.6261  0.1526
   40MOL   C24612024   6.511   6.323   7.877  0.2145  0.3138  0.5182
   40MOL   C24712025   6.411   6.245   7.819  0.1513 -0.9467  0.2647
   40MOL   C24812026   6.293   6.217   7.890 -0.1273 -0.0314  0.0565
   40MOL   N24912027   6.277   6.260   8.013 -0.1912 -0.5485  0.3326
   40MOL   H25012028   6.236   6.328   0.236 -4.0610  0.3733 -2.1349
   40MOL   H25112029   6.207   6.249   0.099 -0.3233 -0.0363  0.9469
   40MOL   H25212030   6.441   6.439   0.086  1.0254  0.3286 -2.1880
   40MOL   H25312031   6.560   6.439   8.057  1.4062 -1.2602 -0.4428
   40MOL   H25412032   6.591   6.356   7.812 -0.7878  2.2612  0.2619
   40MOL   H25512033   6.417   6.213   7.716 -0.7335  1.0876 -0.4467
   40MOL   H25612034   6.216   6.155   7.847  1.9805 -0.9079 -2.5842
   40MOL   C25712035   6.245   6.519   0.021  0.0351  0.1088 -0.3989
   40MOL   C25812036   6.219   6.626   0.132 -0.5949 -0.4039  0.1644
   40MOL   C25912037   6.344   6.657   0.211  0.3060  0.4204 -0.3654
   40MOL   C26012038   6.342   6.670   0.350  0.1435  0.2301 -0.1330
   40MOL   C26112039   6.465   6.698   0.411  0.5956  0.3938 -0.5174
   40MOL   C26212040   6.587   6.705   0.340 -0.2487  0.8744  0.0462
   40MOL   C26312041   6.574   6.697   0.199 -0.2345  0.1293  0.1753
   40MOL   N26412042   6.454   6.684   0.136 -0.1940 -0.3271  0.6088
   40MOL   H26512043   6.153   6.476   8.131  0.1668 -0.5577 -0.0138
   40MOL   H26612044   6.295   6.578   8.096 -0.2272  0.8695  0.0092
   40MOL   H26712045   6.146   6.584   0.200  0.7376 -2.3207  0.4525
   40MOL   H26812046   6.251   6.672   0.410  2.0395  1.4611  2.8509
   40MOL   H26912047   6.475   6.711   0.517 -0.9660 -0.4150 -0.2591
   40MOL   H27012048   6.687   6.721   0.378 -0.2087 -2.4219  1.5054
   40MOL   H27112049   6.659   6.695   0.133  0.6424  1.1472  1.2695
   40MOL   C27212050   6.164   6.758   0.070 -0.1823  0.0480  0.4389
   40MOL   C27312051   6.124   6.876   0.165  0.1717 -0.1307  0.7107
   40MOL   C27412052   6.124   7.010   0.093 -0.3986  0.4757 -0.0197
   40MOL   C27512053   6.197   7.122   0.145 -0.0642 -0.1678 -0.6103
   40MOL   C27612054   6.192   7.245   0.080  0.0441  0.1800  0.2432
   40MOL   C27712055   6.096   7.264   8.133  0.0747  0.4006  0.6423
   40MOL   C27812056   6.022   7.153   8.087  0.0739  0.3269  0.5373
   40MOL   N27912057   6.040   7.027   8.139  0.6330  1.1504  0.0208
   40MOL   H28012058   6.078   6.739   0.007  0.1990  0.7418 -0.3012
   40MOL   H28112059   6.241   6.805   0.009 -0.4266 -0.0400  0.0668
   40MOL   H28212060   6.196   6.876   0.246 -0.2906 -0.6338  1.1277
   40MOL   H28312061   6.258   7.114   0.234  1.6507  0.8317 -1.6606
   40MOL   H28412062   6.257   7.331   0.090 -2.0337  2.3330 -3.6411
   40MOL   H28512063   6.082   7.358   8.081 -0.0101  1.5386  2.6742
   40MOL   H28612064   5.949   7.166   8.009  1.4512  0.4269 -0.7392
   40MOL   C28712065   5.984   6.842   0.226  0.3300 -0.2339 -0.2885
   40MOL   C28812066   5.937   6.933   0.346  0.3158  0.3814 -0.1638
   40MOL   C28912067   6.028   6.925   0.467 -1.1300 -0.3659 -0.3312
   40MOL   C29012068   6.123   7.033   0.488 -0.2206  0.4001  0.1034
   40MOL   C29112069   6.208   7.026   0.603  0.3262  0.1146 -1.0429
   40MOL   C29212070   6.194   6.923   0.696 -0.2981 -0.3438 -0.3669
   40MOL   C29312071   6.100   6.820   0.656 -0.3400  0.5477 -0.0741
   40MOL   N29412072   6.018   6.825   0.553  0.0773 -0.1160  0.9825
   40MOL   H29512073   5.988   6.739   0.262  0.1829 -0.2588 -0.3451
   40MOL   H29612074   5.906   6.834   0.151 -0.4217  0.2427  0.4355
   40MOL   H29712075   5.840   6.903   0.385  0.6377 -2.1286 -1.2070
   40MOL   H29812076   6.130   7.115   0.418  0.7060  0.8028  0.6643
   40MOL   H29912077   6.275   7.110   0.620  2.9903 -2.2440  0.4616
   40MOL   H30012078   6.264   6.923   0.778 -0.4134  0.9543 -0.2606
   40MOL   H30112079   6.108   6.727   0.711  0.9204 -0.0164 -1.1790
   40MOL   H30212080   5.924   7.034   0.308 -1.0718 -0.0836 -0.9160
   41MOL     C112081   5.516   0.658   6.620 -0.6285 -0.1509 -0.2416
   41MOL     C212082   5.619   0.549   6.659 -0.2681  0.3782  0.1757
   41MOL     C312083   5.745   0.548   6.575  0.0788 -0.0249  0.7216
   41MOL     C412084   5.765   0.445   6.480  0.7384 -0.3449 -0.4287
   41MOL     C512085   5.886   0.445   6.408 -0.1786 -0.4493 -0.1643
   41MOL     C612086   5.973   0.563   6.426  0.4911  0.0026  0.6037
   41MOL     C712087   5.942   0.658   6.524  0.0402 -0.1067  0.0108
   41MOL     N812088   5.825   0.654   6.590 -0.7134 -0.1891 -0.4057
   41MOL     H912089   5.508   0.641   6.512  3.0030 -0.8279 -0.4560
   41MOL    H1012090   5.416   0.646   6.663 -1.3874  2.9326 -1.0216
   41MOL    H1112091   5.564   0.459   6.634  0.8609 -0.0348 -0.8301
   41MOL    H1212092   5.695   0.364   6.464  0.1553  0.2417 -0.8760
   41MOL    H1312093   5.920   0.375   6.333  3.7378  2.6463 -1.4396
   41MOL    H1412094   6.062   0.566   6.364  1.2492 -1.2232  1.6083
   41MOL    H1512095   6.011   0.739   6.539  0.8261 -0.7396 -0.1300
   41MOL    H1612096   5.549   0.760   6.632  0.7398 -0.6857  0.5504
   41MOL    C1712097   5.664   0.533   6.803 -0.8175  0.2759  0.6566
   41MOL    C1812098   5.545   0.532   6.905 -0.5597  0.7064 -1.0751
   41MOL    C1912099   5.447   0.421   6.878  0.2543 -0.5903  0.1579
   41MOL    C2012100   5.313   0.447   6.856 -0.4223  0.0844 -0.1835
   41MOL    C2112101   5.232   0.343   6.828  0.4247  0.8837  0.6416
   41MOL    C2212102   5.280   0.214   6.816  0.0832  0.0646  0.3945
   41MOL    C2312103   5.417   0.191   6.836  0.2773  0.3853  0.6444
   41MOL    N2412104   5.497   0.293   6.871  0.6119 -0.0575  0.0973
   41MOL    H2512105   5.738   0.610   6.825  1.7263 -1.7049 -0.7190
   41MOL    H2612106   5.721   0.441   6.794  1.9975  2.0455 -0.2523
   41MOL    H2712107   5.494   0.628   6.901 -0.1111  1.0526  1.0527
   41MOL    H2812108   5.283   0.550   6.870  1.8393  0.8756 -0.8955
   41MOL    H2912109   5.127   0.356   6.808 -0.0557 -0.5089  2.1573
   41MOL    H3012110   5.213   0.132   6.795 -0.6283  1.6512 -4.3154
   41MOL    H3112111   5.456   0.092   6.820  0.8384  1.1222 -2.8991
   41MOL    C3212112   5.599   0.533   7.049  0.5306 -0.1281  0.2001
   41MOL    C3312113   5.496   0.512   7.156 -0.3814  0.6587  0.6756
   41MOL    C3412114   5.564   0.489   7.288  0.2495 -0.3789  0.3171
   41MOL    C3512115   5.545   0.366   7.353  0.0144  0.2528  0.3995
   41MOL    C3612116   5.620   0.324   7.464  0.0958 -0.1498  0.2078
   41MOL    C3712117   5.717   0.418   7.510  0.2351  0.0482  0.0568
   41MOL    C3812118   5.725   0.539   7.443  0.0004  0.2901 -0.5249
   41MOL    N3912119   5.655   0.578   7.335 -0.4657  0.6743  0.3253
   41MOL    H4012120   5.647   0.629   7.068  2.1055 -0.7171 -0.7115
   41MOL    H4112121   5.670   0.455   7.075 -0.5231 -0.6309  1.6310
   41MOL    H4212122   5.446   0.424   7.117  0.6154  1.0345 -1.5150
   41MOL    H4312123   5.466   0.307   7.310  0.6627 -1.4009  1.4063
   41MOL    H4412124   5.596   0.227   7.504 -1.3221  0.2127  0.2545
   41MOL    H4512125   5.782   0.390   7.591 -0.6984  2.1641  1.5758
   41MOL    H4612126   5.791   0.616   7.480 -1.7175  0.2266  2.8071
   41MOL    C4712127   5.389   0.620   7.175  0.4979 -0.2388  0.3715
   41MOL    C4812128   5.265   0.585   7.260 -1.0458  0.5729  0.2177
   41MOL    C4912129   5.173   0.701   7.291 -0.3187 -0.2430  0.5586
   41MOL    C5012130   5.158   0.747   7.422  0.5182  0.2080 -0.2110
   41MOL    C5112131   5.070   0.853   7.451  0.4963 -0.2462  0.4226
   41MOL    C5212132   5.012   0.916   7.337 -0.1886 -0.8765 -0.0986
   41MOL    C5312133   5.040   0.868   7.207  0.2095  0.2696 -0.3846
   41MOL    N5412134   5.120   0.767   7.186  0.1782 -0.2536 -0.5176
   41MOL    H5512135   5.353   0.647   7.076 -1.6891 -2.3905  0.5397
   41MOL    H5612136   5.436   0.709   7.218  2.2948 -1.5202  1.1258
   41MOL    H5712137   5.306   0.554   7.356 -0.0133  1.1567 -0.0213
   41MOL    H5812138   5.214   0.704   7.504  2.4553  0.6092 -1.2827
   41MOL    H5912139   5.068   0.878   7.556 -1.5127 -2.2036  0.9058
   41MOL    H6012140   4.962   1.011   7.348 -1.4396 -1.7684  2.2255
   41MOL    H6112141   4.991   0.910   7.120  2.5635  0.9159 -1.4389
   41MOL    C6212142   5.195   0.463   7.203 -0.6076 -0.1482  0.0362
   41MOL    C6312143   5.056   0.424   7.270 -0.0489 -0.0678  0.9843
   41MOL    C6412144   4.974   0.339   7.177 -0.3260 -0.8035 -0.0466
   41MOL    C6512145   4.848   0.381   7.131 -0.2685  0.0510  0.2165
   41MOL    C6612146   4.778   0.299   7.042  0.7144  0.2971 -0.4156
   41MOL    C6712147   4.828   0.176   7.006  0.5632  0.2359 -0.4007
   41MOL    C6812148   4.952   0.148   7.056 -0.1710  0.4727 -0.6762
   41MOL    N6912149   5.025   0.221   7.142 -0.0340  0.3894 -0.9986
   41MOL    H7012150   5.253   0.370   7.207  2.2624  1.5467 -0.4886
   41MOL    H7112151   5.172   0.485   7.099 -1.7635  1.9900  0.7109
   41MOL    H7212152   4.993   0.513   7.277 -0.4969 -0.1870 -1.1567
   41MOL    H7312153   4.819   0.479   7.169  1.0379 -0.1882  1.8988
   41MOL    H7412154   4.675   0.327   7.025 -0.5020 -1.0553  3.9981
   41MOL    H7512155   4.772   0.120   6.932 -1.5108  0.3378  1.0317
   41MOL    H7612156   4.995   0.057   7.015 -1.5657 -0.2705 -0.5235
   41MOL    C7712157   5.071   0.351   7.409  0.2949 -0.8311 -0.1625
   41MOL    C7812158   4.956   0.351   7.506  0.3570 -0.1137 -0.2244
   41MOL    C7912159   4.988   0.262   7.625 -0.0169  0.3896 -0.6952
   41MOL    C8012160   4.948   0.127   7.635 -0.2118  0.3042  0.3763
   41MOL    C8112161   4.977   0.054   7.752 -0.7721  0.6973 -0.5546
   41MOL    C8212162   5.052   0.113   7.857  0.2001 -0.3392  0.8115
   41MOL    C8312163   5.082   0.253   7.838  1.1843 -0.5688  0.1163
   41MOL    N8412164   5.066   0.320   7.719  0.3120  0.2678 -0.0848
   41MOL    H8512165   5.151   0.405   7.459  0.0285  0.4145 -1.0545
   41MOL    H8612166   5.108   0.252   7.384  2.9594  0.2827 -0.8268
   41MOL    H8712167   4.871   0.309   7.452  0.4303  1.7620 -1.8624
   41MOL    H8812168   4.886   0.080   7.561 -1.6251  0.4601  1.4433
   41MOL    H8912169   4.956   8.100   7.765  0.1646  1.0111  4.3681
   41MOL    H9012170   5.074   0.058   7.947  0.2321  1.3942  1.8841
   41MOL    H9112171   5.128   0.308   7.919  1.3425  1.5885 -1.4020
   41MOL    C9212172   4.904   0.493   7.539 -0.4995  0.7566 -0.4925
   41MOL    C9312173   4.799   0.520   7.653 -0.2926 -0.7955 -0.3237
   41MOL    C9412174   4.804   0.670   7.684  0.3024 -0.3423 -0.7257
   41MOL    C9512175   4.856   0.729   7.798 -0.1526  0.1693 -0.3311
   41MOL    C9612176   4.848   0.865   7.818 -0.5354 -0.6050  0.1226
   41MOL    C9712177   4.794   0.949   7.717  0.3404  0.0996  0.3125
   41MOL    C9812178   4.748   0.880   7.598  0.3510 -0.1894 -0.0565
   41MOL    N9912179   4.746   0.746   7.588  0.0064 -0.2237 -0.1192
   41MOL   H10012180   4.872   0.548   7.451 -1.7229  1.4696  0.3849
   41MOL   H10112181   4.986   0.552   7.580 -0.2400 -1.0901  1.7706
   41MOL   H10212182   4.823   0.480   7.752  1.1674  0.8869  0.0242
   41MOL   H10312183   4.894   0.661   7.872 -2.2400 -0.4212  0.2044
   41MOL   H10412184   4.881   0.916   7.908 -2.3377  1.9599 -0.5927
   41MOL   H10512185   4.791   1.056   7.732  3.6589  0.3721 -0.5634
   41MOL   H10612186   4.710   0.931   7.511 -2.6632  1.1961  1.9594
   41MOL   C10712187   4.655   0.474   7.611 -0.2973  0.0188  0.4752
   41MOL   C10812188   4.603   0.336   7.658  0.3790 -0.0070 -0.4770
   41MOL   C10912189   4.607   0.312   7.810 -0.0620 -0.7649  0.5463
   41MOL   C11012190   4.676   0.208   7.870 -0.0124 -1.0617  0.6572
   41MOL   C11112191   4.662   0.191   8.010 -0.7242  0.7755  0.5210
   41MOL   C11212192   4.585   0.277   8.084  0.1998  0.4937 -0.3194
   41MOL   C11312193   4.517   0.375   8.011 -0.2507  0.2480 -0.1437
   41MOL   N11412194   4.521   0.390   7.877  0.3042 -0.6360  0.9552
   41MOL   H11512195   4.646   0.469   7.502 -2.4019  1.3115  0.5403
   41MOL   H11612196   4.580   0.551   7.628  2.6108  3.0795 -0.1131
   41MOL   H11712197   4.675   0.269   7.611  0.1781 -0.3013 -0.3686
   41MOL   H11812198   4.744   0.139   7.821 -0.2852  0.1659 -1.4962
   41MOL   H11912199   4.726   0.123   8.065 -1.7080  0.4044  1.2250
   41MOL   H12012200   4.585   0.276   0.040  4.2979 -0.9251 -0.2576
   41MOL   H12112201   4.447   0.437   8.065 -3.0729 -2.2802 -0.7967
   41MOL   C12212202   4.469   0.290   7.601 -0.2731 -0.1113 -0.0980
   41MOL   C12312203   4.465   0.259   7.449 -0.2837  0.1389  0.0351
   41MOL   C12412204   4.538   0.128   7.416  0.1374  0.2147 -0.2094
   41MOL   C12512205   4.666   0.123   7.349 -0.7374 -0.9280 -0.4235
   41MOL   C12612206   4.736   0.002   7.355  0.2721  0.1365 -0.3508
   41MOL   C12712207   4.663   8.044   7.402  0.1736  0.2567  0.4084
   41MOL   C12812208   4.539   8.055   7.457 -0.2229  0.5657  0.7857
   41MOL   N12912209   4.478   0.018   7.472 -0.1698  0.0885 -0.2802
   41MOL   H13012210   4.401   0.374   7.617  2.0075  1.6887  0.2938
   41MOL   H13112211   4.424   0.208   7.657 -1.1568  1.4355  1.5502
   41MOL   H13212212   4.516   0.344   7.405  2.0433 -0.1008  2.0879
   41MOL   H13312213   4.719   0.212   7.316  0.5884 -1.7529 -0.5830
   41MOL   H13412214   4.833   8.143   7.309  1.3167  0.4582  1.7547
   41MOL   H13512215   4.697   7.945   7.375 -2.4793 -0.5190 -0.2164
   41MOL   H13612216   4.495   7.964   7.494 -0.8271  1.0708  1.3282
   41MOL   C13712217   4.327   0.277   7.381  0.1273 -0.5988 -0.2268
   41MOL   C13812218   4.280   0.427   7.351 -0.0057  0.9084 -0.2867
   41MOL   C13912219   4.388   0.523   7.294 -0.2913 -0.2641  0.0319
   41MOL   C14012220   4.433   0.629   7.370 -0.4037 -0.0315 -0.4378
   41MOL   C14112221   4.541   0.709   7.315 -0.1016 -0.5833 -0.5607
   41MOL   C14212222   4.603   0.676   7.193 -0.1505  0.1804 -0.0427
   41MOL   C14312223   4.545   0.567   7.124 -0.1902 -0.1251 -0.2532
   41MOL   N14412224   4.447   0.492   7.174  0.3810 -0.7985  0.4728
   41MOL   H14512225   4.251   0.228   7.442  1.2274 -1.4646  0.4798
   41MOL   H14612226   4.334   0.215   7.291  1.1751 -2.1494  0.8815
   41MOL   H14712227   4.262   0.469   7.450 -2.7833  1.3589 -0.9275
   41MOL   H14812228   4.391   0.656   7.466  1.0725  3.7211 -0.7557
   41MOL   H14912229   4.568   0.797   7.371  0.5771 -1.7436  0.9801
   41MOL   H15012230   4.679   0.738   7.148  0.7379 -0.5253  0.4703
   41MOL   H15112231   4.588   0.538   7.029 -0.7868 -1.0447 -0.2440
   41MOL   C15212232   4.143   0.445   7.276  0.0604  0.1351 -0.6546
   41MOL   C15312233   4.016   0.453   7.365 -0.5773 -0.7030  0.4729
   41MOL   C15412234   3.978   0.330   7.436  0.1647 -0.4590 -0.1331
   41MOL   C15512235   4.015   0.306   7.571 -0.1283  0.2556  0.6413
   41MOL   C15612236   3.964   0.186   7.628  0.0561  0.8918  0.1348
   41MOL   C15712237   3.880   0.100   7.551  0.5351 -0.3014  0.0040
   41MOL   C15812238   3.854   0.133   7.420  0.6290  0.3480  0.4327
   41MOL   N15912239   3.899   0.243   7.362  0.4951  0.3363  0.1813
   41MOL   H16012240   4.132   0.358   7.211 -2.1606  0.1211 -0.3180
   41MOL   H16112241   4.141   0.535   7.216 -1.5608  1.2730  1.0356
   41MOL   H16212242   3.943   0.463   7.285 -0.0153  2.4561  0.2932
   41MOL   H16312243   4.065   0.369   7.643  0.8591 -1.2768  1.3339
   41MOL   H16412244   3.973   0.157   7.732 -0.6771  1.0518  0.2409
   41MOL   H16512245   3.852   0.001   7.583  2.2301 -0.8716 -0.2381
   41MOL   H16612246   3.771   0.091   7.365  1.0029 -0.5973  0.5830
   41MOL   C16712247   4.005   0.583   7.447  0.4959 -0.0853 -0.5317
   41MOL   C16812248   3.873   0.607   7.512 -0.6489  0.0539 -0.0512
   41MOL   C16912249   3.893   0.699   7.628  0.0502  0.1572 -0.7696
   41MOL   C17012250   3.903   0.648   7.757  0.0567 -0.1447 -0.1339
   41MOL   C17112251   3.932   0.736   7.865  0.1353  0.2332  0.9754
   41MOL   C17212252   3.957   0.868   7.831  0.4531 -0.2286 -0.4245
   41MOL   C17312253   3.951   0.913   7.698  0.3826  0.7982 -0.2570
   41MOL   N17412254   3.912   0.827   7.599 -0.1108 -0.5813  0.3932
   41MOL   H17512255   4.040   0.667   7.387  1.5437 -0.8251 -0.9547
   41MOL   H17612256   4.083   0.577   7.522  0.6713  1.3004 -0.5822
   41MOL   H17712257   3.839   0.515   7.559 -1.8853  1.3332  1.6068
   41MOL   H17812258   3.886   0.544   7.783  0.2829  0.2384  1.6252
   41MOL   H17912259   3.915   0.716   7.969  1.4447 -1.0976  0.9541
   41MOL   H18012260   3.975   0.936   7.913  1.3925  0.0049 -0.8104
   41MOL   H18112261   3.984   1.009   7.663  0.9974  1.4258  2.0084
   41MOL   C18212262   3.753   0.633   7.422 -0.1307  0.4759 -0.0647
   41MOL   C18312263   3.747   0.768   7.340 -0.0575  0.7976 -0.1260
   41MOL   C18412264   3.864   0.781   7.250  0.0692 -0.6094 -0.4180
   41MOL   C18512265   3.965   0.880   7.267 -0.4029 -0.0371  0.1298
   41MOL   C18612266   4.073   0.884   7.180 -0.4092  0.2342  0.0715
   41MOL   C18712267   4.081   0.788   7.079 -0.1081  0.1373  1.1656
   41MOL   C18812268   3.983   0.687   7.068  0.1576 -0.3057  0.4384
   41MOL   N18912269   3.867   0.693   7.147  0.0180  0.0560 -0.2535
   41MOL   H19012270   3.664   0.616   7.482  1.4117 -2.6503  1.4517
   41MOL   H19112271   3.742   0.548   7.355  0.7904  0.1627  0.1780
   41MOL   H19212272   3.759   0.849   7.413  1.6127  0.5774 -0.1182
   41MOL   H19312273   3.955   0.944   7.353 -0.5711  0.3991 -0.2160
   41MOL   H19412274   4.145   0.961   7.202  0.1120 -0.0081 -0.7706
   41MOL   H19512275   4.165   0.779   7.012  0.1440 -1.4568  1.6756
   41MOL   H19612276   4.002   0.608   6.997  2.7019  2.0792 -1.6687
   41MOL   C19712277   3.625   0.796   7.246  0.0462  0.1066  0.2939
   41MOL   C19812278   3.484   0.817   7.304 -0.1011 -0.5948 -0.1254
   41MOL   C19912279   3.392   0.880   7.194  0.3564  1.1225  0.7337
   41MOL   C20012280   3.328   0.997   7.226  0.2826 -0.3528 -0.2729
   41MOL   C20112281   3.239   1.042   7.129 -0.3741 -0.2411  0.6966
   41MOL   C20212282   3.224   0.979   7.008 -0.1324  0.7354  0.0804
   41MOL   C20312283   3.306   0.870   6.984  0.0816 -0.1641  0.3999
   41MOL   N20412284   3.383   0.810   7.078  0.1765 -0.7961 -0.2543
   41MOL   H20512285   3.612   0.712   7.177 -2.4077 -1.2932  2.3733
   41MOL   H20612286   3.649   0.878   7.179  0.3954 -1.0057 -0.9719
   41MOL   H20712287   3.493   0.890   7.384  1.2286 -0.9792  0.1071
   41MOL   H20812288   3.324   1.030   7.328 -1.1538  3.6703 -1.5184
   41MOL   H20912289   3.176   1.126   7.153  0.6132  0.4579  0.8718
   41MOL   H21012290   3.157   1.018   6.932 -2.3463  0.6423  1.9217
   41MOL   H21112291   3.290   0.815   6.893 -0.8827  0.8649 -0.0535
   41MOL   C21212292   3.416   0.683   7.358 -0.1169  0.4292  0.8701
   41MOL   C21312293   3.358   0.700   7.496 -0.3202 -0.1191 -0.2852
   41MOL   C21412294   3.276   0.824   7.517 -0.6852 -0.3574  0.0742
   41MOL   C21512295   3.151   0.834   7.453  0.1240  0.0453 -0.0917
   41MOL   C21612296   3.071   0.939   7.481  0.0358  0.7226 -0.0551
   41MOL   C21712297   3.121   1.042   7.571  0.7302 -0.1339  0.3989
   41MOL   C21812298   3.250   1.035   7.620  0.3944 -0.1801  0.2027
   41MOL   N21912299   3.320   0.918   7.600 -0.4924 -0.4426  0.4311
   41MOL   H22012300   3.482   0.596   7.350 -0.7923 -0.0035 -0.0952
   41MOL   H22112301   3.331   0.655   7.296 -0.4686 -3.1596  2.8208
   41MOL   H22212302   3.445   0.722   7.558 -2.3017  1.5436  2.0296
   41MOL   H22312303   3.118   0.760   7.381 -0.6604  0.6906 -0.3995
   41MOL   H22412304   2.977   0.958   7.431 -1.2096 -0.6255  1.7187
   41MOL   H22512305   3.062   1.130   7.589 -0.7152 -0.9703 -0.1378
   41MOL   H22612306   3.299   1.099   7.691  1.1623 -1.5216  0.8979
   41MOL   C22712307   3.284   0.572   7.546 -0.2819 -1.2865  0.3839
   41MOL   C22812308   3.213   0.576   7.686  0.1327  0.4117 -0.6015
   41MOL   C22912309   3.169   0.443   7.731  0.0070  0.0551  0.3781
   41MOL   C23012310   3.026   0.424   7.744 -0.5774  0.2480 -0.8936
   41MOL   C23112311   2.984   0.295   7.794 -0.0397 -0.3344 -0.5588
   41MOL   C23212312   3.082   0.211   7.851 -0.3982 -0.3996 -0.1080
   41MOL   C23312313   3.217   0.255   7.853  0.5394  0.0471 -0.2624
   41MOL   N23412314   3.262   0.364   7.791 -0.2010  0.3072  0.7668
   41MOL   H23512315   3.355   0.489   7.541  0.7457 -0.2980 -2.6739
   41MOL   H23612316   3.207   0.562   7.469  0.9771 -2.2957 -0.7702
   41MOL   H23712317   3.128   0.632   7.647 -1.8534 -0.9056  1.7600
   41MOL   H23812318   2.955   0.493   7.700 -0.1891  0.9941 -0.3478
   41MOL   H23912319   2.879   0.272   7.802  0.4210 -2.1300  0.6818
   41MOL   H24012320   3.064   0.122   7.909 -0.6623 -2.0053 -2.5726
   41MOL   H24112321   3.275   0.197   7.923  2.1483  1.1569 -0.6592
   41MOL   C24212322   3.272   0.657   7.806  0.4697  0.3027 -0.4885
   41MOL   C24312323   3.174   0.655   7.928 -0.0638  0.2469  0.0395
   41MOL   C24412324   3.243   0.701   8.056 -0.4730 -0.8842  0.3995
   41MOL   C24512325   3.301   0.826   8.073 -0.5598 -0.2975  0.0751
   41MOL   C24612326   3.366   0.866   0.037  0.0383 -0.1597 -0.3134
   41MOL   C24712327   3.359   0.779   0.147  0.6657  0.3438 -0.2147
   41MOL   C24812328   3.292   0.658   0.119 -0.5364  0.3200 -0.4160
   41MOL   N24912329   3.254   0.610   0.001  0.6598 -0.5204  0.8524
   41MOL   H25012330   3.278   0.765   7.795  0.9350  0.2486 -0.7720
   41MOL   H25112331   3.365   0.612   7.841  0.3073  1.2386  1.1998
   41MOL   H25212332   3.145   0.550   7.940  0.6612 -0.0506 -0.7240
   41MOL   H25312333   3.287   0.883   7.983  1.6212 -1.3404 -0.9666
   41MOL   H25412334   3.417   0.962   0.039 -1.1043  0.5056 -1.8507
   41MOL   H25512335   3.393   0.799   0.247  0.0718  0.4511 -0.0315
   41MOL   H25612336   3.290   0.582   0.195  1.8471 -1.0099 -1.6321
   41MOL   C25712337   3.051   0.744   7.890 -0.3548  0.4891 -0.7061
   41MOL   C25812338   2.945   0.762   8.003  0.1122  0.4078 -0.6552
   41MOL   C25912339   2.822   0.831   7.936 -0.2627  0.5192 -0.1956
   41MOL   C26012340   2.760   0.937   8.003 -0.1318 -0.3175  0.6412
   41MOL   C26112341   2.645   0.996   7.958  0.0168  0.4440 -0.3199
   41MOL   C26212342   2.594   0.953   7.834  0.6823  0.9830 -0.4737
   41MOL   C26312343   2.662   0.847   7.765  0.7171  0.0882 -0.3284
   41MOL   N26412344   2.770   0.782   7.822  0.6710  0.5496  0.0853
   41MOL   H26512345   2.998   0.696   7.808 -1.4907 -0.0792  0.3407
   41MOL   H26612346   3.082   0.836   7.842  0.5050  1.4797  1.6845
   41MOL   H26712347   2.991   0.840   8.064  1.4829  0.3952 -1.6698
   41MOL   H26812348   2.804   0.965   8.098  1.3117  2.3799 -0.7673
   41MOL   H26912349   2.580   1.058   8.017  0.8040  0.2664  0.7338
   41MOL   H27012350   2.504   0.994   7.791  0.1004  0.3745  0.1520
   41MOL   H27112351   2.610   0.800   7.682 -0.4863 -0.4212  0.6819
   41MOL   C27212352   2.892   0.629   8.073 -0.0133 -0.1355  0.4139
   41MOL   C27312353   2.807   0.646   0.050 -0.3227  0.3891 -0.0703
   41MOL   C27412354   2.739   0.518   0.096 -0.0677 -0.1280  0.2932
   41MOL   C27512355   2.806   0.394   0.081 -0.1399  1.2640 -0.3250
   41MOL   C27612356   2.740   0.274   0.122  0.1866  0.3109 -0.6298
   41MOL   C27712357   2.615   0.288   0.184 -0.9097  0.5456 -0.0976
   41MOL   C27812358   2.560   0.417   0.196  0.0882 -0.2445 -0.1527
   41MOL   N27912359   2.622   0.527   0.158  0.1239 -0.0529  0.3205
   41MOL   H28012360   2.980   0.567   8.095 -1.8326 -2.1971  2.1283
   41MOL   H28112361   2.827   0.566   8.012 -1.5832  2.3862 -0.5847
   41MOL   H28212362   2.725   0.718   0.037 -0.5013  0.0259 -1.0038
   41MOL   H28312363   2.908   0.386   0.044  0.5459 -2.2202  2.0780
   41MOL   H28412364   2.785   0.177   0.107  0.1220  0.3977 -1.4500
   41MOL   H28512365   2.556   0.203   0.213 -4.1225  1.2438 -4.0548
   41MOL   H28612366   2.463   0.433   0.240 -0.3178 -1.1092 -0.7137
   41MOL   C28712367   2.887   0.701   0.170 -0.1653  0.6289  0.3773
   41MOL   C28812368   2.804   0.767   0.287 -0.0150  0.8513  0.5952
   41MOL   C28912369   2.730   0.903   0.247 -0.1124  0.2873  0.6529
   41MOL   C29012370   2.597   0.899   0.212  0.7443 -0.1885 -0.2275
   41MOL   C29112371   2.537   1.024   0.176  0.3038 -0.2003  0.1924
   41MOL   C29212372   2.614   1.144   0.188  0.3903 -0.2204  0.2580
   41MOL   C29312373   2.747   1.135   0.220 -0.5022 -0.6339 -0.3225
   41MOL   N29412374   2.805   1.016   0.249  0.1897 -0.4489 -0.0775
   41MOL   H29512375   2.977   0.760   0.153  1.5966 -1.9674  0.3524
   41MOL   H29612376   2.933   0.613   0.216 -1.7601  0.0163  0.8580
   41MOL   H29712377   2.873   0.786   0.369 -0.8557 -0.2207  1.5507
   41MOL   H29812378   2.532   0.813   0.213 -0.8149  0.9687  0.1062
   41MOL   H29912379   2.431   1.018   0.159 -0.1436 -3.2155  3.5538
   41MOL   H30012380   2.560   1.236   0.174 -0.4579 -0.5965  1.0163
   41MOL   H30112381   2.818   1.216   0.221 -0.7370 -0.4385  0.7011
   41MOL   H30212382   2.729   0.698   0.324 -1.0757  0.5398 -2.0119
   42MOL     C112383   7.770   5.208   1.655  0.0198 -0.2656  0.5470
   42MOL     C212384   7.879   5.177   1.551  0.3274  0.1318 -0.2326
   42MOL     C312385   7.819   5.133   1.422  0.0415 -0.4797  0.3294
   42MOL     C412386   7.847   5.004   1.371 -0.5040  0.3832 -0.6202
   42MOL     C512387   7.772   4.945   1.270 -0.8242 -0.3000  0.1847
   42MOL     C612388   7.662   5.023   1.229 -0.3831  0.2689 -0.2185
   42MOL     C712389   7.645   5.157   1.272 -0.3814 -0.4032  0.2979
   42MOL     N812390   7.727   5.210   1.365 -0.0694  0.3892 -0.3979
   42MOL     H912391   7.711   5.118   1.675  2.1462 -2.3024 -1.9250
   42MOL    H1012392   7.810   5.237   1.752 -0.0650 -0.8171  0.7494
   42MOL    H1112393   7.937   5.088   1.578  0.9318  0.4837 -0.3601
   42MOL    H1212394   7.931   4.952   1.416  0.4819 -0.9393 -3.8482
   42MOL    H1312395   7.781   4.846   1.226 -1.5828 -1.2422  2.0634
   42MOL    H1412396   7.602   4.970   1.156 -2.2151  0.4719  1.1011
   42MOL    H1512397   7.576   5.230   1.235 -0.5301 -1.3681 -1.3768
   42MOL    H1612398   7.707   5.288   1.618  1.2496  0.8390  0.8134
   42MOL    C1712399   7.968   5.296   1.533  1.0820 -0.0216 -0.0758
   42MOL    C1812400   8.048   5.334   1.666  0.0531  0.1191 -0.6958
   42MOL    C1912401   8.125   5.214   1.719 -0.3182  0.6017  0.1126
   42MOL    C2012402   8.093   5.165   1.849 -0.5143  0.1198  0.6138
   42MOL    C2112403   0.022   5.061   1.900  0.2615 -0.0199 -0.1054
   42MOL    C2212404   0.131   5.019   1.821  0.0665 -0.6456 -0.4640
   42MOL    C2312405   0.155   5.075   1.697 -0.2362 -0.2339  0.4923
   42MOL    N2412406   0.076   5.172   1.644  0.7327  0.0125 -0.4273
   42MOL    H2512407   7.897   5.379   1.529 -0.2427 -1.0684  1.1156
   42MOL    H2612408   8.015   5.299   1.435 -1.3221  0.8325 -1.2584
   42MOL    H2712409   7.978   5.356   1.747 -1.2337  0.7673 -1.9756
   42MOL    H2812410   8.013   5.206   1.909 -1.4477  0.7050 -0.9995
   42MOL    H2912411   0.004   5.016   1.997 -1.6540  0.4521 -0.2179
   42MOL    H3012412   0.199   4.944   1.857  2.4005  1.5876 -0.0903
   42MOL    H3112413   0.238   5.041   1.637 -1.4437 -0.1953 -1.2444
   42MOL    C3212414   8.127   5.468   1.648 -0.2018  0.3199  0.3360
   42MOL    C3312415   0.055   5.524   1.764  0.1771  0.0418  0.1512
   42MOL    C3412416   0.164   5.621   1.722  0.3311  0.5377 -0.5843
   42MOL    C3512417   0.300   5.590   1.766  0.3389  0.6731 -0.3239
   42MOL    C3612418   0.400   5.681   1.745  0.6500 -0.3451  0.3207
   42MOL    C3712419   0.358   5.796   1.676 -0.4995  0.1991 -0.1714
   42MOL    C3812420   0.221   5.822   1.644  0.1282  0.5838  0.1730
   42MOL    N3912421   0.122   5.734   1.671 -0.6865  0.8286  0.0130
   42MOL    H4012422   8.075   5.552   1.600  1.5536  1.1155 -0.2272
   42MOL    H4112423   0.047   5.439   1.572 -0.4190 -4.5114  1.8483
   42MOL    H4212424   0.108   5.436   1.801 -0.2043  0.0906  0.8186
   42MOL    H4312425   0.322   5.498   1.819  1.1155  1.0541  0.0304
   42MOL    H4412426   0.504   5.657   1.761  0.7077  1.1943  2.7185
   42MOL    H4512427   0.426   5.877   1.654 -0.6368  0.4841  0.4278
   42MOL    H4612428   0.192   5.908   1.585 -0.3001 -1.0847 -2.1106
   42MOL    C4712429   8.125   5.565   1.888 -0.4177 -1.3072 -0.5238
   42MOL    C4812430   8.026   5.687   1.884  0.0983 -0.5750  0.0611
   42MOL    C4912431   7.902   5.662   1.804 -0.5440 -0.4827  0.0094
   42MOL    C5012432   7.882   5.714   1.680  0.2986 -0.2404 -0.0469
   42MOL    C5112433   7.769   5.675   1.609  0.1760 -0.2711 -0.2616
   42MOL    C5212434   7.681   5.582   1.669  0.4778  0.3994 -0.6634
   42MOL    C5312435   7.702   5.535   1.801 -0.6377 -0.6191 -0.4501
   42MOL    N5412436   7.816   5.573   1.861 -0.0391  0.0510 -0.2025
   42MOL    H5512437   0.050   5.594   1.959  0.3638 -1.3914 -1.3314
   42MOL    H5612438   8.073   5.482   1.935 -1.9616  0.5852  1.2078
   42MOL    H5712439   8.078   5.769   1.835 -0.7415 -0.1040 -0.0629
   42MOL    H5812440   7.957   5.775   1.632  0.1737  2.4827  3.0541
   42MOL    H5912441   7.757   5.702   1.505 -2.1584  0.9710  0.2895
   42MOL    H6012442   7.592   5.540   1.623  0.4241 -0.2181 -0.0083
   42MOL    H6112443   7.643   5.466   1.859 -0.5271  0.4098  0.9123
   42MOL    C6212444   7.987   5.745   2.024 -0.4348  0.5642  0.2877
   42MOL    C6312445   8.097   5.756   2.131  0.4340 -0.5032  0.0843
   42MOL    C6412446   0.061   5.840   2.073  0.3659 -0.1470 -0.2249
   42MOL    C6512447   0.192   5.795   2.099 -0.6497  0.4891 -0.2496
   42MOL    C6612448   0.302   5.873   2.061  0.2431 -0.5560  0.3315
   42MOL    C6712449   0.283   6.002   2.012 -0.0519  0.2133  0.5396
   42MOL    C6812450   0.146   6.042   1.998 -0.2603  0.2090 -0.0028
   42MOL    N6912451   0.039   5.961   2.022 -0.1613 -0.4716 -0.1355
   42MOL    H7012452   7.912   5.684   2.075  0.9485 -1.3843  0.0551
   42MOL    H7112453   7.956   5.847   2.003  0.3515  1.1063  1.7279
   42MOL    H7212454   8.143   5.660   2.154 -0.2301 -0.5384  1.2881
   42MOL    H7312455   0.207   5.692   2.127  0.5672 -0.0341 -2.7787
   42MOL    H7412456   0.403   5.833   2.066  0.9954  1.3479  0.5575
   42MOL    H7512457   0.365   6.067   1.985  0.0838  1.2280  3.2922
   42MOL    H7612458   0.113   6.136   1.956 -2.1904  0.1620  1.2920
   42MOL    C7712459   8.039   5.823   2.259 -0.6845  0.1035  0.2679
   42MOL    C7812460   8.096   5.743   2.376  0.6928  0.0485  0.1388
   42MOL    C7912461   8.073   5.825   2.503 -0.3092 -0.6186  0.4012
   42MOL    C8012462   0.029   5.894   2.567 -0.1510 -0.0620  0.0701
   42MOL    C8112463   8.144   5.984   2.669 -0.5981  0.3013 -0.4387
   42MOL    C8212464   8.011   5.990   2.714 -0.2638  0.3204 -0.0352
   42MOL    C8312465   7.919   5.912   2.646  0.1315 -0.0409 -0.7253
   42MOL    N8412466   7.944   5.835   2.542  0.4186 -0.2431  0.1250
   42MOL    H8512467   7.930   5.823   2.259 -0.6955 -0.2267  1.7561
   42MOL    H8612468   8.069   5.928   2.261  0.9663 -0.3734  2.1888
   42MOL    H8712469   0.050   5.720   2.367  0.4255 -1.2084  0.2394
   42MOL    H8812470   0.129   5.887   2.528  0.4665  0.7733  1.4761
   42MOL    H8912471   0.071   6.040   2.716  0.2993  0.1105 -1.6838
   42MOL    H9012472   7.990   6.056   2.797  2.1605 -1.5329  2.1181
   42MOL    H9112473   7.816   5.918   2.679  1.0280  0.0298  2.1752
   42MOL    C9212474   8.032   5.604   2.388 -0.1967  0.5307  0.1233
   42MOL    C9312475   8.111   5.502   2.477  0.5791 -0.1405  0.3647
   42MOL    C9412476   8.108   5.537   2.624  0.8932  0.3659  0.4015
   42MOL    C9512477   0.081   5.543   2.699 -0.1392 -0.3708  0.1356
   42MOL    C9612478   0.071   5.581   2.834  0.3883 -0.5248 -0.0454
   42MOL    C9712479   8.097   5.602   2.891  0.0037  0.3685  0.8278
   42MOL    C9812480   7.978   5.584   2.813 -0.2423 -0.5771  0.4051
   42MOL    N9912481   7.985   5.555   2.682  0.5287  0.2575  0.1125
   42MOL   H10012482   8.025   5.564   2.287  0.6820 -0.4191  0.4317
   42MOL   H10112483   7.931   5.608   2.429 -0.0942 -2.7869  0.8192
   42MOL   H10212484   0.062   5.510   2.443 -0.2518 -0.5805 -2.3157
   42MOL   H10312485   0.179   5.528   2.657  0.5006  2.1124  0.6626
   42MOL   H10412486   0.158   5.591   2.898 -0.1893  1.0873  0.5051
   42MOL   H10512487   8.089   5.632   2.994 -1.3167 -0.2069  0.8995
   42MOL   H10612488   7.883   5.610   2.859 -0.6052  0.1007 -0.7012
   42MOL   C10712489   8.075   5.348   2.461 -0.0786  0.3541  0.3075
   42MOL   C10812490   8.096   5.289   2.319  0.8222  0.4935 -0.1615
   42MOL   C10912491   0.088   5.310   2.273 -0.8321 -0.3955 -0.3439
   42MOL   C11012492   0.114   5.340   2.143  0.1238  0.1831 -0.8139
   42MOL   C11112493   0.248   5.335   2.103 -0.0547 -0.1695  0.0100
   42MOL   C11212494   0.350   5.302   2.193  0.4431 -0.0643  0.3601
   42MOL   C11312495   0.319   5.276   2.326  0.2853  0.3809 -0.8347
   42MOL   N11412496   0.190   5.288   2.363  0.1250  0.1676  0.3445
   42MOL   H11512497   7.968   5.355   2.479  0.0510 -0.8329  1.5652
   42MOL   H11612498   8.127   5.287   2.534  0.3517  1.0858  0.6208
   42MOL   H11712499   8.035   5.341   2.245  0.3280  2.2405  1.4026
   42MOL   H11812500   0.041   5.379   2.074  0.4002  4.1445  0.9817
   42MOL   H11912501   0.270   5.353   1.999 -0.4347 -0.5275 -0.1345
   42MOL   H12012502   0.453   5.284   2.167  0.5784  1.5665 -0.3093
   42MOL   H12112503   0.396   5.262   2.400  1.5320 -0.2489 -2.2105
   42MOL   C12212504   8.053   5.137   2.309  0.0819  0.3605  0.1373
   42MOL   C12312505   7.899   5.126   2.349 -0.2030  0.0966 -0.1488
   42MOL   C12412506   7.813   5.231   2.283 -0.3357 -0.7347  0.4753
   42MOL   C12512507   7.730   5.315   2.367 -0.7880 -0.3498 -1.2748
   42MOL   C12612508   7.644   5.397   2.300  0.0867  0.1642 -0.3187
   42MOL   C12712509   7.637   5.395   2.154  0.5009 -0.3867  0.0384
   42MOL   C12812510   7.725   5.311   2.089  0.1130  0.4669 -0.0998
   42MOL   N12912511   7.810   5.230   2.147 -0.6728  0.0011 -0.6682
   42MOL   H13012512   8.123   5.080   2.371  1.2389  0.2869 -1.2298
   42MOL   H13112513   8.062   5.107   2.205  0.9482  1.1128 -0.0129
   42MOL   H13212514   7.896   5.152   2.454  1.1822  1.9980 -0.5444
   42MOL   H13312515   7.722   5.299   2.473  0.3982 -0.3629 -1.1838
   42MOL   H13412516   7.571   5.456   2.353  0.9774  0.6642  0.3682
   42MOL   H13512517   7.562   5.449   2.098 -0.3437 -0.1104  1.4055
   42MOL   H13612518   7.729   5.312   1.981  0.0290  1.3596 -0.0983
   42MOL   C13712519   7.839   4.979   2.333 -0.1512 -0.9979 -0.0553
   42MOL   C13812520   7.902   4.882   2.433 -0.2443 -0.1476  0.9578
   42MOL   C13912521   7.826   4.887   2.563  0.5030  0.1733 -0.0175
   42MOL   C14012522   7.876   4.953   2.677 -0.5534 -0.1375 -0.3309
   42MOL   C14112523   7.798   4.954   2.787 -0.1656 -0.5727  0.2133
   42MOL   C14212524   7.682   4.879   2.802  0.0892  0.0804 -0.9591
   42MOL   C14312525   7.648   4.801   2.688  0.5874 -0.4748 -0.4890
   42MOL   N14412526   7.716   4.804   2.570  0.5813  0.4662  0.1534
   42MOL   H14512527   7.871   4.946   2.235  1.7647  0.7748 -0.0656
   42MOL   H14612528   7.730   4.978   2.335 -0.1672 -0.9489 -0.8885
   42MOL   H14712529   8.003   4.908   2.463  0.1156 -1.2826  0.7432
   42MOL   H14812530   7.962   5.018   2.671 -0.5169 -0.2900 -1.4981
   42MOL   H14912531   7.824   5.018   2.870 -0.3755  0.0899 -0.2228
   42MOL   H15012532   7.636   4.871   2.900  2.4125 -1.9664  0.0224
   42MOL   H15112533   7.559   4.740   2.682 -1.3085  2.0370  1.2006
   42MOL   C15212534   7.912   4.728   2.390 -0.3775 -0.5646 -0.2733
   42MOL   C15312535   8.022   4.707   2.285 -0.1583  0.3837 -0.4842
   42MOL   C15412536   0.001   4.771   2.313 -0.0930  0.0644 -0.8112
   42MOL   C15512537   0.070   4.764   2.437 -0.1231  0.0933 -0.1639
   42MOL   C15612538   0.189   4.831   2.454 -0.3405 -0.7002 -0.2838
   42MOL   C15712539   0.244   4.890   2.339 -0.0196 -0.0494 -0.0281
   42MOL   C15812540   0.173   4.889   2.222  0.3715  0.3504  0.0685
   42MOL   N15912541   0.051   4.829   2.205  0.6210  0.3738 -0.4406
   42MOL   H16012542   7.812   4.699   2.357 -0.8308  0.7021 -0.0622
   42MOL   H16112543   7.946   4.676   2.479 -2.3183 -1.9425 -0.3108
   42MOL   H16212544   7.990   4.754   2.191 -0.0484 -0.8935 -1.1699
   42MOL   H16312545   0.032   4.711   2.523 -0.8725 -1.6457 -1.5303
   42MOL   H16412546   0.227   4.844   2.554 -1.7391  0.9388  0.0631
   42MOL   H16512547   0.340   4.938   2.352 -0.0724 -0.0940  0.5315
   42MOL   H16612548   0.218   4.937   2.136  2.6474  0.7009  1.4184
   42MOL   C16712549   8.024   4.562   2.248 -0.6115  0.5130  0.1240
   42MOL   C16812550   8.118   4.518   2.138 -0.7527 -0.1242 -0.3262
   42MOL   C16912551   8.126   4.366   2.135 -0.4351  0.4580  0.7051
   42MOL   C17012552   8.014   4.280   2.136  0.5964 -0.0930  0.4902
   42MOL   C17112553   8.045   4.142   2.129  1.0101 -0.4331  0.6508
   42MOL   C17212554   0.024   4.093   2.124 -1.0378  0.0328  0.6304
   42MOL   C17312555   0.121   4.201   2.124 -0.3993  0.6589  0.6152
   42MOL   N17412556   0.101   4.330   2.121  0.3962  0.1131  0.0620
   42MOL   H17512557   7.924   4.537   2.213 -0.0027 -1.0731 -0.5166
   42MOL   H17612558   8.044   4.507   2.340 -1.1229 -0.3053 -0.2486
   42MOL   H17712559   0.065   4.559   2.155 -0.4577 -0.6053 -0.8507
   42MOL   H17812560   7.915   4.321   2.149 -0.3051 -1.5168 -1.8182
   42MOL   H17912561   7.965   4.074   2.155 -0.8538  1.6105  0.3856
   42MOL   H18012562   0.044   3.987   2.126 -3.9132 -0.6149 -0.9995
   42MOL   H18112563   0.227   4.189   2.139 -0.3161 -1.6294 -1.3410
   42MOL   C18212564   8.079   4.579   1.996 -0.0600  0.0559 -0.1648
   42MOL   C18312565   0.033   4.562   1.883 -0.3192  0.3923 -0.3858
   42MOL   C18412566   8.108   4.594   1.752 -0.4774  0.9539 -0.3006
   42MOL   C18512567   8.067   4.493   1.661  0.7058  0.5660 -0.2428
   42MOL   C18612568   7.986   4.524   1.549 -0.4188 -0.3757 -0.4289
   42MOL   C18712569   7.948   4.663   1.534 -1.1824  0.3836 -0.0823
   42MOL   C18812570   7.996   4.757   1.629  0.3920  0.7743 -0.0402
   42MOL   N18912571   8.072   4.719   1.739 -0.2041  0.0712  0.4337
   42MOL   H19012572   8.050   4.683   2.012 -1.1518 -0.1148 -0.9310
   42MOL   H19112573   7.988   4.528   1.966  1.6675 -2.3617 -1.4500
   42MOL   H19212574   0.064   4.457   1.875 -2.7477 -0.3074 -1.0732
   42MOL   H19312575   8.095   4.391   1.685  1.2637  1.5330  3.6252
   42MOL   H19412576   7.939   4.453   1.482 -1.2380  0.0722 -0.3395
   42MOL   H19512577   7.879   4.693   1.457  0.0401 -0.3397 -1.4714
   42MOL   H19612578   7.970   4.861   1.618 -2.8711  0.1070  0.7666
   42MOL   C19712579   0.170   4.639   1.904 -0.0947  0.2191 -0.1346
   42MOL   C19812580   0.295   4.550   1.914 -0.9380  0.7850  0.1372
   42MOL   C19912581   0.334   4.475   1.787 -0.0636  0.0921  0.1598
   42MOL   C20012582   0.355   4.338   1.794 -0.3075 -0.1814 -0.3067
   42MOL   C20112583   0.365   4.262   1.676  0.1524 -0.1022 -0.6811
   42MOL   C20212584   0.364   4.323   1.553  0.0149 -0.4600 -0.2576
   42MOL   C20312585   0.345   4.468   1.557  0.0811  0.5149 -0.0104
   42MOL   N20412586   0.345   4.538   1.669 -0.0138  0.5681  0.5804
   42MOL   H20512587   0.165   4.676   2.007  0.8029 -3.1161  1.1825
   42MOL   H20612588   0.185   4.729   1.844 -0.0962 -0.6870 -1.5209
   42MOL   H20712589   0.279   4.472   1.989 -2.0057 -0.1131 -1.0018
   42MOL   H20812590   0.349   4.293   1.892 -1.2835  0.0869 -0.2381
   42MOL   H20912591   0.368   4.154   1.675  0.3027 -0.0916 -1.5765
   42MOL   H21012592   0.365   4.274   1.457 -1.7302  1.3961 -1.2809
   42MOL   H21112593   0.333   4.520   1.463  0.0419  0.2873 -0.1324
   42MOL   C21212594   0.418   4.624   1.984  0.6616 -0.1154 -0.0749
   42MOL   C21312595   0.482   4.551   2.103  0.0181  0.7123 -0.1255
   42MOL   C21412596   0.625   4.590   2.132 -0.6368 -0.1699  0.4355
   42MOL   C21512597   0.731   4.492   2.131 -0.4486  0.2382  0.0348
   42MOL   C21612598   0.852   4.535   2.177 -0.6622  0.4914 -0.1179
   42MOL   C21712599   0.869   4.667   2.219 -0.5630 -0.2667  0.1598
   42MOL   C21812600   0.769   4.762   2.212  0.4927 -0.5021  0.2125
   42MOL   N21912601   0.643   4.718   2.176 -0.1258 -0.3799  0.5426
   42MOL   H22012602   0.387   4.722   2.019  2.5557 -0.0924  1.5916
   42MOL   H22112603   0.500   4.662   1.923  0.4211  1.3001  0.4590
   42MOL   H22212604   0.482   4.446   2.074 -0.3724  0.8152 -0.5057
   42MOL   H22312605   0.710   4.389   2.106  0.3537 -0.2497  1.3382
   42MOL   H22412606   0.937   4.468   2.172 -1.4322 -0.4323 -1.0204
   42MOL   H22512607   0.966   4.704   2.249 -0.8908  2.3910 -1.8068
   42MOL   H22612608   0.776   4.868   2.233  0.4152 -0.3857 -0.3376
   42MOL   C22712609   0.395   4.546   2.228  0.7994 -0.0630  0.2857
   42MOL   C22812610   0.452   4.460   2.338  0.0159  0.1364  0.6042
   42MOL   C22912611   0.393   4.496   2.476 -0.7788  0.4941 -0.0923
   42MOL   C23012612   0.452   4.587   2.555 -0.2718 -0.1611  0.0496
   42MOL   C23112613   0.383   4.625   2.672 -0.2503 -0.7833 -0.1469
   42MOL   C23212614   0.261   4.567   2.703  0.9029  0.4636 -0.2441
   42MOL   C23312615   0.215   4.465   2.625  0.0312 -0.4951 -0.2249
   42MOL   N23412616   0.276   4.435   2.511 -0.8839 -0.3887  0.5787
   42MOL   H23512617   0.294   4.517   2.202  0.9747 -0.7123  0.3096
   42MOL   H23612618   0.393   4.649   2.263 -1.6182 -0.5476  1.7334
   42MOL   H23712619   0.557   4.488   2.346 -0.0192  0.6005 -0.4851
   42MOL   H23812620   0.541   4.641   2.523 -1.0768  0.1950 -1.6542
   42MOL   H23912621   0.416   4.698   2.745 -0.5496 -0.7106 -0.0828
   42MOL   H24012622   0.220   4.588   2.801 -0.4966 -0.2597 -0.6622
   42MOL   H24112623   0.136   4.402   2.661 -0.1421  0.1442  0.5407
   42MOL   C24212624   0.445   4.312   2.302  0.7968  0.7001  0.4762
   42MOL   C24312625   0.530   4.215   2.386 -0.3061 -0.4910  0.5382
   42MOL   C24412626   0.441   4.108   2.445  0.4311  0.2828  0.9073
   42MOL   C24512627   0.416   4.087   2.580 -0.5767  0.0240  0.5242
   42MOL   C24612628   0.322   3.992   2.625  0.1339  0.5180  0.5212
   42MOL   C24712629   0.262   3.912   2.526  0.3894 -0.0913  0.0393
   42MOL   C24812630   0.295   3.932   2.389  0.3534  0.0130 -0.4483
   42MOL   N24912631   0.387   4.023   2.352 -0.5156 -0.4172  0.1707
   42MOL   H25012632   0.447   4.283   2.197 -2.4609 -2.2088  1.1373
   42MOL   H25112633   0.342   4.290   2.330  1.5880 -1.4069  1.8076
   42MOL   H25212634   0.570   4.265   2.474 -0.3070  2.6729 -1.2146
   42MOL   H25312635   0.464   4.154   2.650  0.2228  0.5470 -0.5017
   42MOL   H25412636   0.298   3.984   2.730 -2.1043  2.1607  0.1749
   42MOL   H25512637   0.196   3.833   2.558  0.4846  0.2719  1.1875
   42MOL   H25612638   0.250   3.870   2.313 -0.2046  0.1014 -0.1906
   42MOL   C25712639   0.652   4.165   2.303 -0.0379 -0.1864 -0.3845
   42MOL   C25812640   0.719   4.042   2.360 -0.0410 -0.2789  0.3507
   42MOL   C25912641   0.829   3.994   2.267  0.0591 -0.1517  0.1149
   42MOL   C26012642   0.827   3.863   2.212 -0.7359 -0.4648 -0.4073
   42MOL   C26112643   0.939   3.820   2.134  0.4299  0.3124  0.6451
   42MOL   C26212644   1.045   3.910   2.119 -0.8089  0.6156 -0.3798
   42MOL   C26312645   1.038   4.041   2.174  0.3086 -0.4539  0.0866
   42MOL   N26412646   0.933   4.079   2.241  0.2639  0.0106 -0.4425
   42MOL   H26512647   0.723   4.245   2.284  0.1779 -0.6647 -1.6465
   42MOL   H26612648   0.621   4.132   2.204 -2.5293 -1.4419  0.7848
   42MOL   H26712649   0.656   3.953   2.368 -0.5818  0.2688  2.8888
   42MOL   H26812650   0.750   3.789   2.229  1.1900 -2.1941  1.0242
   42MOL   H26912651   0.942   3.717   2.101 -0.2719  1.0866 -1.8972
   42MOL   H27012652   1.133   3.872   2.069 -0.6687 -1.9122  1.6905
   42MOL   H27112653   1.112   4.113   2.143  0.2823  0.2503  1.6005
   42MOL   C27212654   0.769   4.057   2.508  0.0361 -0.6001 -0.1548
   42MOL   C27312655   0.810   3.929   2.580 -0.0592 -0.2834  0.1902
   42MOL   C27412656   0.905   3.952   2.696  0.1598 -0.4984 -0.2709
   42MOL   C27512657   1.044   3.960   2.677  0.1556  0.5188  0.2895
   42MOL   C27612658   1.120   3.990   2.786 -0.2642  0.2640 -0.3157
   42MOL   C27712659   1.062   3.991   2.914 -0.4401 -0.7492  0.0217
   42MOL   C27812660   0.922   3.996   2.924 -0.2646 -0.3341 -0.2454
   42MOL   N27912661   0.846   3.972   2.813 -0.1245 -0.1148  0.6691
   42MOL   H28012662   0.689   4.101   2.567 -0.6841  0.2322 -1.7055
   42MOL   H28112663   0.849   4.132   2.509 -1.1759  0.7099  0.2430
   42MOL   H28212664   0.878   3.871   2.517  1.0947 -2.4138  3.2492
   42MOL   H28312665   1.078   3.932   2.579  0.9662 -2.5241  1.3822
   42MOL   H28412666   1.226   3.997   2.763  0.4735 -0.2130  2.6194
   42MOL   H28512667   1.115   4.018   3.004 -2.5451  2.2526  0.4285
   42MOL   H28612668   0.875   4.021   3.018  2.4167  1.3432  0.7111
   42MOL   C28712669   0.677   3.843   2.619  0.1381  0.3003 -0.5292
   42MOL   C28812670   0.699   3.694   2.663  0.6553 -0.1729  0.7192
   42MOL   C28912671   0.564   3.623   2.680  0.9266 -0.5451 -0.5249
   42MOL   C29012672   0.514   3.543   2.579  0.2655  0.0353 -0.3234
   42MOL   C29112673   0.383   3.503   2.591  0.1005  0.0315  0.2010
   42MOL   C29212674   0.311   3.540   2.705  0.1934  0.7357  0.1086
   42MOL   C29312675   0.378   3.604   2.813 -0.8107 -0.3094 -0.9008
   42MOL   N29412676   0.496   3.657   2.792  0.5232  0.7389  0.7607
   42MOL   H29512677   0.596   3.833   2.547  0.2208  1.7805 -0.8426
   42MOL   H29612678   0.627   3.887   2.706  0.5755 -3.8627  1.9384
   42MOL   H29712679   0.747   3.697   2.761  2.1694 -1.4856  0.0355
   42MOL   H29812680   0.577   3.520   2.494  0.2785  3.0089 -1.1709
   42MOL   H29912681   0.341   3.438   2.516 -2.2277  2.6893 -0.8589
   42MOL   H30012682   0.211   3.504   2.727  0.4305  0.4024  0.6576
   42MOL   H30112683   0.333   3.621   2.909 -0.3699  0.0138 -0.7533
   42MOL   H30212684   0.763   3.637   2.596 -0.1470 -1.3049  0.8961
   43MOL     C112685   2.474   1.782   5.529 -0.2359  0.0163 -0.2708
   43MOL     C212686   2.497   1.748   5.374 -1.1196  0.1710  0.1853
   43MOL     C312687   2.367   1.750   5.289 -0.5168 -0.1580 -0.0502
   43MOL     C412688   2.254   1.817   5.347  0.5347  0.0572  0.4536
   43MOL     C512689   2.136   1.820   5.272  0.1521 -0.1441 -0.3353
   43MOL     C612690   2.129   1.753   5.151 -0.4579  0.3480  0.8332
   43MOL     C712691   2.250   1.691   5.106  0.8174  0.2906  0.8360
   43MOL     N812692   2.369   1.687   5.166  0.3276 -0.0971  0.1364
   43MOL     H912693   2.481   1.888   5.553  3.0198 -0.4072  0.8591
   43MOL    H1012694   2.382   1.741   5.572  0.2951 -0.9157 -0.0100
   43MOL    H1112695   2.524   1.642   5.370  0.6570  0.6614 -2.1180
   43MOL    H1212696   2.254   1.867   5.442 -1.5360 -0.2477  0.6369
   43MOL    H1312697   2.050   1.865   5.319  0.4131 -0.2445  0.2550
   43MOL    H1412698   2.033   1.745   5.103  0.3030  0.1701 -0.6722
   43MOL    H1512699   2.243   1.631   5.016 -0.6117  0.9466  0.5080
   43MOL    H1612700   2.554   1.740   5.589  0.7879  0.6366 -1.1804
   43MOL    C1712701   2.613   1.836   5.317 -0.6698 -0.2522  0.4084
   43MOL    C1812702   2.752   1.826   5.389  0.2156 -0.6363  0.2179
   43MOL    C1912703   2.803   1.686   5.415 -0.6862 -0.0790 -0.2088
   43MOL    C2012704   2.787   1.580   5.321 -0.1641 -0.0062 -0.3388
   43MOL    C2112705   2.837   1.453   5.356  0.4568  0.3616 -0.5440
   43MOL    C2212706   2.899   1.433   5.479 -0.0071  0.7488  0.5165
   43MOL    C2312707   2.908   1.540   5.567 -0.2807  0.0305  0.4457
   43MOL    N2412708   2.863   1.662   5.532 -0.2406 -1.0635 -0.1720
   43MOL    H2512709   2.580   1.940   5.317 -1.8617 -0.6193  1.2582
   43MOL    H2612710   2.621   1.810   5.211 -2.0483 -1.1291  0.5062
   43MOL    H2712711   2.729   1.865   5.488  0.0303 -0.0488 -0.0535
   43MOL    H2812712   2.737   1.601   5.228 -1.2339  0.3327  0.2962
   43MOL    H2912713   2.832   1.366   5.292  1.3699 -1.3264  1.6263
   43MOL    H3012714   2.933   1.336   5.514 -0.8027  0.7733  1.3937
   43MOL    H3112715   2.950   1.532   5.666 -1.6097  1.1102  1.1246
   43MOL    C3212716   2.855   1.923   5.331  0.3574  0.1851 -0.1245
   43MOL    C3312717   2.831   2.078   5.344  0.0565  0.1891 -0.1743
   43MOL    C3412718   2.779   2.112   5.482  0.1748 -0.5061 -0.5038
   43MOL    C3512719   2.646   2.146   5.504  0.2396  0.2114 -0.0584
   43MOL    C3612720   2.595   2.158   5.632 -0.3579  0.1846  0.2642
   43MOL    C3712721   2.687   2.141   5.734 -0.5011 -0.0298 -0.5618
   43MOL    C3812722   2.822   2.111   5.712  0.4370  0.3480  0.3396
   43MOL    N3912723   2.867   2.095   5.585 -0.4774  0.2274  0.9105
   43MOL    H4012724   2.861   1.909   5.223 -1.0192  4.1333 -0.7671
   43MOL    H4112725   2.946   1.906   5.388  0.4510  2.3942  0.4141
   43MOL    H4212726   2.752   2.104   5.274  0.2037  1.0722 -0.0198
   43MOL    H4312727   2.573   2.159   5.426 -0.2466 -1.3568  0.1216
   43MOL    H4412728   2.494   2.194   5.644 -0.1063  1.6983 -1.8900
   43MOL    H4512729   2.649   2.141   5.835  0.4829  0.2649 -0.1896
   43MOL    H4612730   2.891   2.099   5.794 -0.7872 -3.1098  0.9168
   43MOL    C4712731   2.939   2.172   5.301 -0.0178 -0.3897 -0.0850
   43MOL    C4812732   2.896   2.303   5.222 -0.1849  1.1407 -0.4463
   43MOL    C4912733   2.985   2.422   5.251 -0.1075 -0.0748  0.2752
   43MOL    C5012734   2.928   2.539   5.299 -0.2540  0.2448 -0.6698
   43MOL    C5112735   3.008   2.655   5.312 -0.0261 -0.1923  0.2794
   43MOL    C5212736   3.145   2.642   5.276  0.5700  0.1403 -0.0128
   43MOL    C5312737   3.194   2.517   5.240 -0.0283  0.5400  0.0299
   43MOL    N5412738   3.110   2.411   5.219 -0.2879  0.4648 -0.6089
   43MOL    H5512739   3.002   2.121   5.229 -2.0305 -3.0792 -0.0528
   43MOL    H5612740   2.986   2.218   5.388 -0.5120  0.6887 -0.3862
   43MOL    H5712741   2.805   2.336   5.272  0.4535  2.0310  0.1757
   43MOL    H5812742   2.825   2.538   5.331 -0.1833 -0.3601 -0.4682
   43MOL    H5912743   2.960   2.749   5.338 -0.6271 -0.5257  0.3817
   43MOL    H6012744   3.208   2.730   5.274  0.5210  0.2311  1.6119
   43MOL    H6112745   3.298   2.491   5.230  0.0720  1.6123 -1.7444
   43MOL    C6212746   2.889   2.283   5.066 -0.2154 -0.0711  0.0798
   43MOL    C6312747   2.816   2.166   4.993 -0.7593  0.4466 -1.6466
   43MOL    C6412748   2.665   2.171   4.993  0.0953 -0.0242  0.2447
   43MOL    C6512749   2.585   2.068   5.054  0.1701  0.6340  0.4565
   43MOL    C6612750   2.445   2.090   5.063 -0.1597  0.5389 -0.2343
   43MOL    C6712751   2.398   2.209   5.007  0.2490 -0.0924 -0.1146
   43MOL    C6812752   2.477   2.308   4.949  0.2283  0.9855 -0.4075
   43MOL    N6912753   2.613   2.280   4.934  0.2451  0.1567 -0.2699
   43MOL    H7012754   2.994   2.286   5.037  0.0191  0.5454  0.9633
   43MOL    H7112755   2.841   2.375   5.030  0.7741  0.0138 -1.0635
   43MOL    H7212756   2.820   2.073   5.051 -2.5764  1.4917  0.2183
   43MOL    H7312757   2.636   1.988   5.107  0.6681 -0.1103 -1.1178
   43MOL    H7412758   2.377   2.020   5.109 -0.2991  0.6075 -0.3356
   43MOL    H7512759   2.292   2.229   5.004 -0.3180 -2.6693  1.3962
   43MOL    H7612760   2.431   2.396   4.908 -0.5367  0.8256  0.1041
   43MOL    C7712761   2.871   2.156   4.851  0.6157 -0.1671 -0.5873
   43MOL    C7812762   2.982   2.055   4.835  0.0623 -0.0738  0.1313
   43MOL    C7912763   2.921   1.913   4.836  1.0552 -0.0591 -1.0647
   43MOL    C8012764   2.949   1.820   4.946 -0.4130 -0.1097 -0.1640
   43MOL    C8112765   2.893   1.690   4.939 -0.8053  0.0776 -0.4619
   43MOL    C8212766   2.820   1.659   4.821 -0.1965  0.4639  0.1178
   43MOL    C8312767   2.789   1.762   4.730 -0.5398 -0.4559  0.2619
   43MOL    N8412768   2.840   1.884   4.732  0.2129 -0.3494 -0.2999
   43MOL    H8512769   2.890   2.257   4.813  1.0318 -0.1337 -0.2990
   43MOL    H8612770   2.795   2.139   4.775  0.2717  0.2374 -0.3388
   43MOL    H8712771   3.050   2.059   4.920 -0.3004  2.1572  0.3472
   43MOL    H8812772   3.020   1.846   5.024 -1.3794  1.1566  0.3162
   43MOL    H8912773   2.926   1.608   5.000 -2.5080  0.5289  1.0956
   43MOL    H9012774   2.766   1.565   4.813 -1.9754  1.6409 -2.1552
   43MOL    H9112775   2.720   1.743   4.649  1.2893  1.7213 -1.8938
   43MOL    C9212776   3.067   2.085   4.710  0.0642  0.2064  0.5353
   43MOL    C9312777   3.173   2.200   4.714 -0.6593 -0.0245  0.3394
   43MOL    C9412778   3.263   2.173   4.837  0.1886  0.2397  0.0152
   43MOL    C9512779   3.290   2.264   4.935 -0.0253  0.3360  0.4276
   43MOL    C9612780   3.347   2.225   5.056  0.0755  0.1845 -0.2457
   43MOL    C9712781   3.385   2.091   5.076  0.2982  0.3249  0.9332
   43MOL    C9812782   3.381   2.011   4.957  0.0417  0.3448  0.9202
   43MOL    N9912783   3.321   2.052   4.843 -0.0062 -0.1364 -0.4671
   43MOL   H10012784   2.995   2.115   4.634  1.2486  1.4724 -0.1101
   43MOL   H10112785   3.101   1.993   4.663 -0.3091 -0.0314  0.7243
   43MOL   H10212786   3.131   2.300   4.718  2.6569  1.4842 -0.9775
   43MOL   H10312787   3.252   2.365   4.927 -1.6267 -0.1675  1.4277
   43MOL   H10412788   3.359   2.292   5.140 -1.8743 -0.0311  0.2318
   43MOL   H10512789   3.425   2.051   5.168  1.2961 -1.6041 -0.2917
   43MOL   H10612790   3.408   1.906   4.951 -2.5502 -0.3317  0.5255
   43MOL   C10712791   3.257   2.202   4.583  0.1334 -0.5250  0.3750
   43MOL   C10812792   3.179   2.246   4.454 -0.3074 -0.1816  0.7157
   43MOL   C10912793   3.159   2.398   4.452 -0.1600  0.5133  0.2993
   43MOL   C11012794   3.030   2.453   4.456  0.4411 -0.2147 -0.3916
   43MOL   C11112795   3.022   2.594   4.451 -0.0948  0.2326  0.0041
   43MOL   C11212796   3.141   2.669   4.449 -0.3620  0.0120 -0.2095
   43MOL   C11312797   3.261   2.609   4.449  0.7184 -0.2548 -0.0942
   43MOL   N11412798   3.273   2.471   4.450  0.2913 -0.6715  0.5311
   43MOL   H11512799   3.292   2.100   4.570 -1.0835 -0.8152 -0.6934
   43MOL   H11612800   3.345   2.264   4.599  0.5457 -1.0160  0.0258
   43MOL   H11712801   3.083   2.195   4.445  0.3825 -1.5088  0.7628
   43MOL   H11812802   2.940   2.392   4.462 -0.9986  1.8388 -0.7183
   43MOL   H11912803   2.929   2.650   4.453 -0.8443 -0.9630 -0.6543
   43MOL   H12012804   3.131   2.774   4.474  3.5497  0.1569  1.1350
   43MOL   H12112805   3.352   2.667   4.457  0.5288  0.0409 -0.0568
   43MOL   C12212806   3.246   2.204   4.328  0.1755  1.1898  0.4887
   43MOL   C12312807   3.216   2.055   4.295  0.1779 -0.3653  0.1530
   43MOL   C12412808   3.071   2.025   4.261 -0.5550  0.0485 -0.3424
   43MOL   C12512809   2.994   1.951   4.358  0.2860 -0.6288  0.6918
   43MOL   C12612810   2.864   1.918   4.321 -0.1461 -0.7891 -0.3111
   43MOL   C12712811   2.810   1.960   4.199 -0.1549  0.4750 -0.6261
   43MOL   C12812812   2.899   2.043   4.119 -0.0407 -0.0612 -0.0044
   43MOL   N12912813   3.029   2.073   4.144  0.1089  0.3583  0.8300
   43MOL   H13012814   3.354   2.219   4.331  0.2610  1.0758 -1.3831
   43MOL   H13112815   3.209   2.268   4.248  0.0962 -1.6843 -1.8652
   43MOL   H13212816   3.237   1.998   4.385  0.8031  1.0682  0.9382
   43MOL   H13312817   3.042   1.908   4.445  2.0041 -0.5775 -0.2149
   43MOL   H13412818   2.809   1.847   4.381  0.9990 -1.1766  0.2784
   43MOL   H13512819   2.705   1.948   4.177 -0.6247  0.1291  1.7401
   43MOL   H13612820   2.864   2.084   4.026  0.5177  2.1405  0.7327
   43MOL   C13712821   3.316   1.996   4.194  0.4232  0.0740  0.4141
   43MOL   C13812822   3.463   2.000   4.232  0.0623 -0.4965  0.0097
   43MOL   C13912823   3.493   1.944   4.370 -0.2246 -0.1458  0.3202
   43MOL   C14012824   3.545   2.032   4.474 -0.0776 -0.1374  0.2493
   43MOL   C14112825   3.556   1.987   4.605 -0.9334 -0.2396 -0.1688
   43MOL   C14212826   3.529   1.851   4.629  0.0177 -0.0464  0.4443
   43MOL   C14312827   3.493   1.769   4.518  0.6129  0.6647  0.0131
   43MOL   N14412828   3.467   1.811   4.391 -0.2848 -0.3585  0.4468
   43MOL   H14512829   3.307   2.040   4.095  0.8442  1.3144  0.9165
   43MOL   H14612830   3.286   1.892   4.181 -2.1796  0.9216 -0.6465
   43MOL   H14712831   3.484   2.106   4.219 -1.0533 -0.4463 -1.4990
   43MOL   H14812832   3.557   2.137   4.451  0.7053 -0.0645  0.9737
   43MOL   H14912833   3.585   2.042   4.693 -1.4054 -1.0272  0.4758
   43MOL   H15012834   3.537   1.817   4.731  0.4088 -2.4515 -0.3707
   43MOL   H15112835   3.461   1.666   4.526 -0.9614  0.9156 -2.2955
   43MOL   C15212836   3.552   1.929   4.125  0.3198 -0.2007 -0.0964
   43MOL   C15312837   3.702   1.900   4.144  0.6985  0.4314  0.7267
   43MOL   C15412838   3.766   1.832   4.022  0.2440 -0.0797  0.3478
   43MOL   C15512839   3.885   1.757   4.039 -0.1465 -0.1273 -0.6143
   43MOL   C15612840   3.951   1.712   3.924 -0.4582  0.8203  0.1140
   43MOL   C15712841   3.904   1.746   3.800 -0.0313 -0.1587  0.3939
   43MOL   C15812842   3.781   1.813   3.791 -0.6531  0.2719  0.4603
   43MOL   N15912843   3.728   1.873   3.899  0.2816 -0.4277  0.2662
   43MOL   H16012844   3.533   1.999   4.043 -0.2464  1.4111  1.3839
   43MOL   H16112845   3.506   1.836   4.092  0.3182  0.0840 -0.9163
   43MOL   H16212846   3.702   1.820   4.218 -0.0733  0.2748  0.5589
   43MOL   H16312847   3.917   1.738   4.141  0.7109  0.3059 -0.7962
   43MOL   H16412848   4.040   1.653   3.939 -1.3465 -1.1923 -2.3684
   43MOL   H16512849   3.941   1.724   3.700  0.5590  2.6903 -0.0622
   43MOL   H16612850   3.736   1.840   3.697  0.5638  1.1609  0.1147
   43MOL   C16712851   3.798   2.007   4.209 -0.4418  0.7332  0.9379
   43MOL   C16812852   3.819   2.136   4.138  0.1682  0.3435  0.3368
   43MOL   C16912853   3.713   2.237   4.159  0.4380 -0.5663  0.5689
   43MOL   C17012854   3.629   2.276   4.049 -0.7154  0.0591 -0.0590
   43MOL   C17112855   3.516   2.359   4.078 -0.3188  0.5070 -0.1677
   43MOL   C17212856   3.495   2.420   4.205  0.8652 -0.1000 -0.2531
   43MOL   C17312857   3.598   2.383   4.299 -0.3702  0.6046 -0.4258
   43MOL   N17412858   3.695   2.299   4.280  0.4903  1.2298  0.3494
   43MOL   H17512859   3.891   1.954   4.225 -0.9069 -1.2190 -2.2420
   43MOL   H17612860   3.751   2.026   4.305  0.5911  0.6451  1.4619
   43MOL   H17712861   3.813   2.111   4.032  0.3358 -3.8858  1.2499
   43MOL   H17812862   3.639   2.237   3.949  3.7023 -1.8664  0.9924
   43MOL   H17912863   3.444   2.391   4.004 -1.4190 -1.5355 -0.0245
   43MOL   H18012864   3.422   2.493   4.237  1.9617  0.8054  0.2168
   43MOL   H18112865   3.616   2.438   4.390 -1.8521 -0.8302  0.7467
   43MOL   C18212866   3.957   2.189   4.164 -0.1810 -0.2707  0.4852
   43MOL   C18312867   4.073   2.122   4.078  0.6659  0.1706 -0.3415
   43MOL   C18412868   4.073   2.180   3.936 -0.8505 -0.1607 -0.5410
   43MOL   C18512869   4.060   2.101   3.824  0.6022 -0.0911  0.5732
   43MOL   C18612870   4.078   2.158   3.697 -0.3471  0.3637 -0.1506
   43MOL   C18712871   4.106   2.292   3.683 -0.1340 -0.6023  0.0681
   43MOL   C18812872   4.109   2.374   3.801 -0.0685 -0.0734  0.3919
   43MOL   N18912873   4.095   2.312   3.926 -0.4225 -0.0033  0.5480
   43MOL   H19012874   3.983   2.185   4.270  0.1215 -0.2042  0.4159
   43MOL   H19112875   3.962   2.298   4.164  0.5209 -0.2975  0.4204
   43MOL   H19212876   4.061   2.016   4.060 -1.1323  0.3183 -0.0787
   43MOL   H19312877   4.041   1.995   3.838 -1.0187 -0.0988 -1.4703
   43MOL   H19412878   4.075   2.092   3.612  0.6775 -0.1985  0.2391
   43MOL   H19512879   4.106   2.349   3.592 -0.0563  1.1401  1.1339
   43MOL   H19612880   4.121   2.482   3.800 -1.9816  0.1374 -1.4200
   43MOL   C19712881   4.219   2.123   4.149  0.6254  0.2061  0.1155
   43MOL   C19812882   4.252   2.021   4.267  0.0246 -0.0820 -0.2563
   43MOL   C19912883   4.219   1.878   4.231  0.0216 -1.0051 -0.7020
   43MOL   C20012884   4.149   1.793   4.316  0.8316 -0.4827 -1.1674
   43MOL   C20112885   4.149   1.652   4.298  0.2204 -0.3738  0.1292
   43MOL   C20212886   4.214   1.606   4.180  0.6858  0.4224 -0.4265
   43MOL   C20312887   4.273   1.701   4.092 -0.4019 -0.2769 -0.1064
   43MOL   N20412888   4.277   1.832   4.115  0.0401  0.2564  0.3510
   43MOL   H20512889   4.224   2.230   4.174 -1.4607  0.3743 -0.0938
   43MOL   H20612890   4.289   2.102   4.069  0.4665 -0.5760  0.1817
   43MOL   H20712891   4.197   2.060   4.353 -1.3298 -2.0065 -0.2383
   43MOL   H20812892   4.107   1.841   4.404  1.5369 -2.9908  0.6053
   43MOL   H20912893   4.092   1.589   4.364  0.3030 -0.5480  0.0346
   43MOL   H21012894   4.227   1.501   4.162  0.7102  0.3562 -0.0234
   43MOL   H21112895   4.324   1.660   4.006 -1.3936  1.9565 -1.7913
   43MOL   C21212896   4.397   2.048   4.306 -0.0415 -0.2904  0.9352
   43MOL   C21312897   4.463   1.969   4.420 -0.3592 -0.0250 -0.1139
   43MOL   C21412898   4.613   2.002   4.434 -0.5214 -0.5843  0.7939
   43MOL   C21512899   4.708   1.903   4.418  0.2600 -0.0975  0.7417
   43MOL   C21612900   4.842   1.933   4.440 -0.8183  0.3472 -0.7791
   43MOL   C21712901   4.882   2.066   4.456 -0.3997 -0.0701  0.2406
   43MOL   C21812902   4.777   2.166   4.461 -0.4908  0.2446 -0.5513
   43MOL   N21912903   4.649   2.133   4.454 -0.0013 -0.2938 -0.4936
   43MOL   H22012904   4.406   2.152   4.335 -1.5248 -0.1036  0.7798
   43MOL   H22112905   4.452   2.025   4.215  1.5277  1.2058  1.4752
   43MOL   H22212906   4.458   1.866   4.384  2.5788 -0.1827 -0.2063
   43MOL   H22312907   4.684   1.798   4.409  1.5757 -0.4355  1.0631
   43MOL   H22412908   4.915   1.856   4.420 -1.4685 -0.8906  1.4973
   43MOL   H22512909   4.987   2.087   4.472 -1.0497  1.7655  2.3941
   43MOL   H22612910   4.799   2.271   4.474 -1.2752  0.0964  2.2325
   43MOL   C22712911   4.398   1.966   4.563 -0.0319 -0.5779 -0.4082
   43MOL   C22812912   4.373   2.101   4.638 -0.0050  0.5404 -0.4689
   43MOL   C22912913   4.266   2.186   4.573  0.7973 -0.8329  0.2465
   43MOL   C23012914   4.296   2.308   4.507  0.2689 -0.4340  0.2132
   43MOL   C23112915   4.197   2.399   4.456  0.4051  0.3406  0.3409
   43MOL   C23212916   4.068   2.344   4.464  0.8892 -0.1323 -0.3258
   43MOL   C23312917   4.048   2.221   4.528 -0.0657  0.7161 -0.6131
   43MOL   N23412918   4.138   2.146   4.590 -0.0715 -0.2246 -0.2426
   43MOL   H23512919   4.477   1.907   4.608  1.0380  0.7063 -0.5891
   43MOL   H23612920   4.304   1.912   4.548 -0.8011  1.1082 -1.8103
   43MOL   H23712921   4.464   2.160   4.624  0.2964  0.3389  0.6181
   43MOL   H23812922   4.401   2.330   4.500  0.1677  0.6114  1.6947
   43MOL   H23912923   4.210   2.499   4.418  0.6459 -0.6364 -2.2142
   43MOL   H24012924   3.986   2.405   4.429  0.9590 -0.8771 -1.8260
   43MOL   H24112925   3.950   2.181   4.551  0.7841 -0.2322  1.3880
   43MOL   C24212926   4.340   2.074   4.783 -0.8606 -0.4688 -0.3860
   43MOL   C24312927   4.458   2.023   4.879  0.7634 -0.4621  0.6238
   43MOL   C24412928   4.587   2.102   4.867 -0.5607  0.2327  0.0553
   43MOL   C24512929   4.592   2.245   4.849 -0.5210 -0.4879 -0.5438
   43MOL   C24612930   4.718   2.306   4.846  0.4089 -0.6788 -0.1149
   43MOL   C24712931   4.831   2.223   4.867 -0.0490  0.4561 -0.6419
   43MOL   C24812932   4.810   2.090   4.905  0.3475 -0.4628  0.5112
   43MOL   N24912933   4.692   2.029   4.900  0.3582 -0.1306  0.3149
   43MOL   H25012934   4.246   2.022   4.798 -0.6413 -0.8727 -0.3971
   43MOL   H25112935   4.308   2.166   4.832  0.9661 -0.0572  0.0925
   43MOL   H25212936   4.474   1.919   4.851 -1.3424  0.2937 -3.7503
   43MOL   H25312937   4.504   2.304   4.827  1.4854  2.2112 -1.6463
   43MOL   H25412938   4.730   2.412   4.828 -1.8244 -0.3771  0.0062
   43MOL   H25512939   4.931   2.263   4.857  0.1561 -0.0151 -0.4593
   43MOL   H25612940   4.892   2.023   4.928  2.2848  1.1855 -1.3281
   43MOL   C25712941   4.417   2.031   5.022  0.2476  0.1272 -0.1444
   43MOL   C25812942   4.316   1.926   5.067  0.7033 -0.3141  0.1382
   43MOL   C25912943   4.360   1.784   5.066  0.1071  0.2409 -0.6556
   43MOL   C26012944   4.296   1.690   4.988  1.3256  0.1614 -0.4445
   43MOL   C26112945   4.334   1.555   5.008 -0.7593 -0.6490  0.1066
   43MOL   C26212946   4.435   1.526   5.100  0.1441 -0.0215  0.3354
   43MOL   C26312947   4.493   1.624   5.169 -0.4533 -0.2330 -0.2592
   43MOL   N26412948   4.454   1.750   5.160  0.2899  0.1089  0.2290
   43MOL   H26512949   4.389   2.136   5.031 -0.6980 -0.0486 -0.9587
   43MOL   H26612950   4.503   2.022   5.088  0.0774  2.9307  0.5529
   43MOL   H26712951   4.228   1.939   5.004 -0.7365 -2.2123  1.6725
   43MOL   H26812952   4.230   1.714   4.906  0.1480 -0.5045  0.2905
   43MOL   H26912953   4.293   1.483   4.938 -0.4723 -0.7489  0.0378
   43MOL   H27012954   4.479   1.428   5.104  1.6689  0.7056  2.0389
   43MOL   H27112955   4.575   1.607   5.237  0.8126  2.4484 -1.0644
   43MOL   C27212956   4.263   1.965   5.206 -0.2693 -0.3012  0.4986
   43MOL   C27312957   4.161   2.087   5.221 -0.6741  0.4474  0.3603
   43MOL   C27412958   4.023   2.054   5.156  0.2829 -0.2996 -0.4330
   43MOL   C27512959   3.937   2.151   5.104  0.1117 -0.9193 -0.3460
   43MOL   C27612960   3.809   2.122   5.065 -0.2061 -0.1526  0.1181
   43MOL   C27712961   3.766   1.986   5.068 -0.0516  0.0200 -0.4081
   43MOL   C27812962   3.853   1.898   5.133  0.8784  0.7964  0.0821
   43MOL   N27912963   3.980   1.929   5.174 -0.4813 -0.0060  0.0958
   43MOL   H28012964   4.349   1.980   5.272  0.8132  0.3549 -1.0356
   43MOL   H28112965   4.207   1.878   5.242 -1.4447  0.2391 -0.0280
   43MOL   H28212966   4.210   2.167   5.165  1.8988 -1.0729  0.3640
   43MOL   H28312967   3.983   2.249   5.102 -2.6798  0.4121 -0.6090
   43MOL   H28412968   3.753   2.199   5.015 -0.2640 -0.5962 -0.5017
   43MOL   H28512969   3.661   1.972   5.044 -0.1189 -0.5762  0.2121
   43MOL   H28612970   3.828   1.793   5.135  1.8116  0.5606 -0.3422
   43MOL   C28712971   4.140   2.137   5.364 -0.4580 -0.2002  0.4493
   43MOL   C28812972   4.218   2.270   5.397  0.8845  0.0842 -0.9158
   43MOL   C28912973   4.363   2.267   5.358  0.4468  0.7667  0.5427
   43MOL   C29012974   4.415   2.352   5.253  0.2495  0.0344 -0.3020
   43MOL   C29112975   4.555   2.354   5.237 -0.3105 -0.1546 -0.0442
   43MOL   C29212976   4.638   2.278   5.319 -0.3832 -0.4782 -0.2844
   43MOL   C29312977   4.572   2.196   5.411 -0.1802  0.5752 -1.1650
   43MOL   N29412978   4.439   2.197   5.442 -0.0860  0.3086  0.5659
   43MOL   H29512979   4.166   2.060   5.437  1.1941  0.1164  0.2118
   43MOL   H29612980   4.036   2.162   5.383 -0.2411  0.3988  0.8629
   43MOL   H29712981   4.210   2.290   5.504  0.7668 -0.8082 -0.7536
   43MOL   H29812982   4.356   2.421   5.195  1.5779  2.8001  1.5324
   43MOL   H29912983   4.596   2.410   5.154  0.2542  0.3242  0.5501
   43MOL   H30012984   4.746   2.280   5.313 -0.3362  0.4422  0.6555
   43MOL   H30112985   4.638   2.132   5.468 -0.8241  2.6916  2.0978
   43MOL   H30212986   4.157   2.351   5.356 -4.3245 -1.8174  2.5473
   44MOL     C112987   7.449   4.453   7.204 -0.6963 -0.1141  0.6336
   44MOL     C212988   7.450   4.382   7.343 -0.0337  0.9945  0.1678
   44MOL     C312989   7.347   4.267   7.334 -0.1243  0.8005 -0.2544
   44MOL     C412990   7.382   4.139   7.306  0.5609  0.2060 -0.2618
   44MOL     C512991   7.282   4.043   7.284 -0.2131  0.1435  0.8649
   44MOL     C612992   7.150   4.081   7.299  0.6048 -0.0788  0.0649
   44MOL     C712993   7.120   4.217   7.332  0.1909  0.4554 -0.3290
   44MOL     N812994   7.218   4.307   7.347  0.5174 -0.0158  0.4495
   44MOL     H912995   7.345   4.477   7.180 -1.9469 -3.7050  2.1204
   44MOL    H1012996   7.511   4.543   7.206  0.5720 -0.8690 -1.7711
   44MOL    H1112997   7.414   4.454   7.416 -0.9168  1.4553 -0.7064
   44MOL    H1212998   7.484   4.111   7.285  0.8795  0.1882  1.2693
   44MOL    H1312999   7.304   3.942   7.253 -1.7332  0.0442  0.0512
   44MOL    H1413000   7.076   4.003   7.288 -0.7533  0.9794  1.3961
   44MOL    H1513001   7.019   4.254   7.344 -0.5580 -1.3201 -0.9702
   44MOL    H1613002   7.484   4.394   7.119  0.0338  0.0087  0.8452
   44MOL    C1713003   7.593   4.333   7.386 -0.4829 -0.1533  0.0512
   44MOL    C1813004   7.617   4.321   7.535  0.0158  0.3653  0.5547
   44MOL    C1913005   7.531   4.206   7.590 -0.1217 -0.5808  1.1126
   44MOL    C2013006   7.434   4.237   7.684  0.2862 -0.0852 -0.3190
   44MOL    C2113007   7.354   4.131   7.732  0.2115  0.3202  0.6410
   44MOL    C2213008   7.369   4.000   7.683 -0.2280 -0.6464 -0.3031
   44MOL    C2313009   7.476   3.981   7.588 -0.0403  0.2525  0.4709
   44MOL    N2413010   7.551   4.081   7.541  0.0388 -0.3175 -0.0364
   44MOL    H2513011   7.662   4.404   7.341  0.6619 -0.8536  0.6866
   44MOL    H2613012   7.621   4.244   7.330 -2.8491 -0.9028 -0.0094
   44MOL    H2713013   7.568   4.413   7.569  0.9441  0.9360  0.3653
   44MOL    H2813014   7.428   4.338   7.721 -0.1711 -0.3414  0.2954
   44MOL    H2913015   7.285   4.152   7.812 -1.8923 -2.8783 -0.1899
   44MOL    H3013016   7.313   3.920   7.729  0.8332 -1.8678 -1.1001
   44MOL    H3113017   7.504   3.886   7.546  0.4574  1.0081 -0.9503
   44MOL    C3213018   7.766   4.310   7.573 -0.1330 -0.7185 -0.1986
   44MOL    C3313019   7.800   4.263   7.718 -0.3896  0.2020  0.0264
   44MOL    C3413020   7.940   4.208   7.729  0.4420 -0.4069  0.1463
   44MOL    C3513021   8.051   4.288   7.693 -0.3371 -0.2577  0.0664
   44MOL    C3613022   0.031   4.247   7.702  0.2581  0.0521  0.1714
   44MOL    C3713023   0.047   4.116   7.754 -0.3842  0.4122  0.6396
   44MOL    C3813024   8.089   4.045   7.794 -0.0040  0.2201  0.0774
   44MOL    N3913025   7.960   4.086   7.783  0.1561 -0.5237 -0.8354
   44MOL    H4013026   7.807   4.410   7.556  0.2845 -0.5571  1.6713
   44MOL    H4113027   7.808   4.244   7.497  2.5245  0.5382  0.0997
   44MOL    H4213028   7.731   4.180   7.733 -1.0310  0.4603 -1.4490
   44MOL    H4313029   8.046   4.392   7.664  2.0370  0.2883  1.4618
   44MOL    H4413030   0.122   4.301   7.682  0.3522 -0.1452  0.0664
   44MOL    H4513031   0.147   4.076   7.752 -0.6377 -0.2283  0.2407
   44MOL    H4613032   8.101   3.952   7.847  2.3757  1.4688  1.8700
   44MOL    C4713033   7.770   4.373   7.826  0.9969  0.1090  0.7204
   44MOL    C4813034   7.756   4.306   7.964  0.9176 -0.2870  0.0020
   44MOL    C4913035   7.785   4.420   8.066  0.5567  0.4000 -0.2358
   44MOL    C5013036   7.892   4.397   0.001  0.7096 -0.0803  0.4192
   44MOL    C5113037   7.936   4.506   0.075 -1.1014 -0.0246  0.6904
   44MOL    C5213038   7.875   4.627   0.063  0.5518 -0.5567 -0.0694
   44MOL    C5313039   7.759   4.638   8.136 -0.2709  0.1246  0.3289
   44MOL    N5413040   7.712   4.534   8.052  0.9007 -0.3972  0.1431
   44MOL    H5513041   7.683   4.434   7.804  0.0442 -1.2561  0.6735
   44MOL    H5613042   7.849   4.449   7.832  1.9751 -0.5834 -2.2349
   44MOL    H5713043   7.841   4.238   7.968  0.6081 -0.6587  0.3767
   44MOL    H5813044   7.945   4.302   8.148  1.3076  0.3069 -0.8136
   44MOL    H5913045   8.024   4.493   0.137 -0.1920  0.0797 -0.5449
   44MOL    H6013046   7.908   4.711   0.123 -1.3705  0.3905 -0.3176
   44MOL    H6113047   7.706   4.732   8.137 -0.8080 -0.1690 -0.3032
   44MOL    C6213048   7.623   4.240   7.986 -0.5795 -0.3190  0.6638
   44MOL    C6313049   7.612   4.155   8.112 -0.0908 -0.1680 -0.6216
   44MOL    C6413050   7.468   4.117   8.144 -0.1984  0.3221  0.0529
   44MOL    C6513051   7.397   4.195   0.085 -0.2074 -0.4225 -0.5910
   44MOL    C6613052   7.260   4.171   0.098  1.0021  0.0194 -0.3631
   44MOL    C6713053   7.207   4.055   0.035 -0.9382 -0.1875 -0.0282
   44MOL    C6813054   7.289   3.991   8.094  0.1065  0.0623  0.2583
   44MOL    N6913055   7.421   4.018   8.073 -0.1327  0.1075  0.2436
   44MOL    H7013056   7.600   4.175   7.902  1.1594 -1.5036  1.0886
   44MOL    H7113057   7.540   4.311   7.988 -0.2685  0.1343 -1.2398
   44MOL    H7213058   7.641   4.220   0.043  2.4600 -2.1546  0.0915
   44MOL    H7313059   7.443   4.280   0.132 -1.3727  1.7923 -3.3493
   44MOL    H7413060   7.194   4.218   0.169  0.3169  0.9921 -1.6295
   44MOL    H7513061   7.103   4.031   0.053 -1.7109  2.5325 -0.5757
   44MOL    H7613062   7.244   3.910   8.038  0.9638  0.1430 -0.5519
   44MOL    C7713063   7.711   4.033   8.112 -0.4495 -0.1225  0.4626
   44MOL    C7813064   7.701   3.940   0.091  0.1402 -0.1978 -0.4219
   44MOL    C7913065   7.770   3.806   0.065 -0.6741 -0.0343  0.6900
   44MOL    C8013066   7.690   3.694   0.038  0.5131 -0.6962  0.6850
   44MOL    C8113067   7.750   3.574   0.005 -0.4943 -0.7996  0.4472
   44MOL    C8213068   7.892   3.571   0.007  0.2873 -0.6370 -0.2976
   44MOL    C8313069   7.959   3.690   0.022 -0.8459  0.0114  0.9182
   44MOL    N8413070   7.903   3.810   0.051  0.1483 -0.2000  0.3110
   44MOL    H8513071   7.816   4.054   8.090 -0.5163  1.3799  1.5047
   44MOL    H8613072   7.677   3.969   8.031 -0.0243  1.0430 -0.6601
   44MOL    H8713073   7.596   3.915   0.103  0.3989 -1.5062 -0.7910
   44MOL    H8813074   7.582   3.692   0.042  0.5631 -0.9319  1.9596
   44MOL    H8913075   7.692   3.483   8.145  0.0094 -1.6571  4.0761
   44MOL    H9013076   7.947   3.479   8.149  4.1131  1.5585 -0.5117
   44MOL    H9113077   8.067   3.688   0.020 -0.8738 -1.3431 -1.8842
   44MOL    C9213078   7.745   4.015   0.223  0.1637 -0.1582 -0.4693
   44MOL    C9313079   7.638   4.072   0.318  0.5667  0.0159  0.0001
   44MOL    C9413080   7.531   3.960   0.357 -0.0822 -0.0362 -0.0001
   44MOL    C9513081   7.397   3.991   0.360  0.3849 -0.1784  0.1205
   44MOL    C9613082   7.301   3.893   0.411 -0.5532  0.6677  0.9554
   44MOL    C9713083   7.352   3.762   0.439 -0.2235  0.4264  0.7886
   44MOL    C9813084   7.490   3.741   0.431 -0.2318  0.3100  0.4017
   44MOL    N9913085   7.573   3.834   0.387  0.4142 -0.2777  0.1820
   44MOL   H10013086   7.816   4.095   0.199 -1.1813  0.5015 -2.4213
   44MOL   H10113087   7.797   3.936   0.276 -2.5637 -2.4504 -1.1150
   44MOL   H10213088   7.575   4.149   0.274  0.7664 -0.0941 -0.4727
   44MOL   H10313089   7.366   4.092   0.340  1.3242 -0.1206 -1.1118
   44MOL   H10413090   7.194   3.907   0.412 -0.8873 -1.4013 -0.7181
   44MOL   H10513091   7.284   3.687   0.477 -0.7770  0.7181  0.3882
   44MOL   H10613092   7.533   3.645   0.454 -3.1062 -1.1490 -0.1902
   44MOL   C10713093   7.705   4.135   0.440  0.6394 -0.2032  0.0111
   44MOL   C10813094   7.744   4.285   0.418  0.4228 -0.2997 -0.2962
   44MOL   C10913095   7.623   4.368   0.390 -1.0033  0.5258 -0.1996
   44MOL   C11013096   7.612   4.439   0.268  0.3507 -0.5381 -0.2899
   44MOL   C11113097   7.495   4.515   0.249 -0.2540  0.2304  0.0615
   44MOL   C11213098   7.403   4.519   0.355 -1.0171 -0.6344  0.4048
   44MOL   C11313099   7.423   4.439   0.467  0.4771  0.0375  0.3424
   44MOL   N11413100   7.532   4.371   0.490  0.5432 -0.2746  0.8657
   44MOL   H11513101   7.786   4.068   0.470  0.7033 -0.3720 -0.5230
   44MOL   H11613102   7.650   4.146   0.533  0.2629 -0.7279 -0.1447
   44MOL   H11713103   7.809   4.285   0.331  3.0494 -0.5090  1.6052
   44MOL   H11813104   7.687   4.436   0.190 -0.8241  0.8553 -1.4938
   44MOL   H11913105   7.487   4.569   0.155 -0.1659  2.0770  1.0910
   44MOL   H12013106   7.311   4.572   0.334 -0.0935  0.6094 -0.6078
   44MOL   H12113107   7.345   4.433   0.541 -1.1438 -1.1756 -1.4330
   44MOL   C12213108   7.826   4.350   0.529 -0.3747 -0.6243  0.5419
   44MOL   C12313109   7.942   4.266   0.589  0.5805 -0.0551  1.1004
   44MOL   C12413110   8.035   4.228   0.477 -0.1010 -0.5640 -0.5341
   44MOL   C12513111   8.077   4.095   0.467  0.3684  0.0396 -0.1412
   44MOL   C12613112   0.013   4.055   0.368 -0.8035  0.3313  0.4270
   44MOL   C12713113   0.068   4.155   0.293  0.0770 -0.6226 -0.2303
   44MOL   C12813114   0.032   4.290   0.311 -0.0008 -0.7347 -0.6298
   44MOL   N12913115   8.084   4.327   0.392  0.4052 -0.6010 -0.4245
   44MOL   H13013116   7.774   4.366   0.624 -0.7663 -0.6660  0.3339
   44MOL   H13113117   7.869   4.444   0.494 -0.8687 -0.3404  0.6853
   44MOL   H13213118   7.913   4.175   0.642 -0.7282 -1.5704 -2.0611
   44MOL   H13313119   8.055   4.033   0.553  1.8280  0.5279  0.6050
   44MOL   H13413120   0.049   3.954   0.352 -0.7559  0.6761 -1.7327
   44MOL   H13513121   0.134   4.124   0.213 -1.5693 -1.0864 -1.4453
   44MOL   H13613122   0.077   4.374   0.261  1.7747 -1.5157 -0.4073
   44MOL   C13713123   8.032   4.341   0.686  0.2866 -1.1970 -0.4137
   44MOL   C13813124   7.976   4.362   0.828 -0.5007  0.3732  0.7059
   44MOL   C13913125   7.985   4.232   0.903 -0.9870  0.0153  0.7527
   44MOL   C14013126   7.875   4.170   0.967 -0.1053 -0.0919  0.7418
   44MOL   C14113127   7.902   4.056   1.039  0.3181 -0.1393  0.6678
   44MOL   C14213128   8.032   4.004   1.060 -0.1506 -0.1455  0.9134
   44MOL   C14313129   8.133   4.070   0.987  0.3732  0.1417 -0.4211
   44MOL   N14413130   8.107   4.178   0.908 -0.2891 -0.0623 -0.1414
   44MOL   H14513131   8.058   4.437   0.641  1.6969 -0.1186  2.6036
   44MOL   H14613132   8.125   4.284   0.694 -0.7655 -2.9045  0.0386
   44MOL   H14713133   7.878   4.404   0.803  1.2116  2.5134 -2.6991
   44MOL   H14813134   7.774   4.208   0.957  0.1458  1.4095  3.4685
   44MOL   H14913135   7.817   4.014   1.092 -1.1231  1.2427 -0.5248
   44MOL   H15013136   8.055   3.918   1.121 -0.1642 -0.1990  0.8436
   44MOL   H15113137   0.084   4.037   0.989  0.2597 -0.2200 -0.6580
   44MOL   C15213138   8.038   4.476   0.906  0.0033 -0.0948 -0.4359
   44MOL   C15313139   7.965   4.517   1.036 -0.4014 -0.1954  0.0267
   44MOL   C15413140   8.057   4.608   1.125  0.1283 -0.1999 -0.4059
   44MOL   C15513141   8.138   4.557   1.236  0.0472 -0.2608  0.6730
   44MOL   C15613142   0.084   4.641   1.296 -0.2243  0.0182 -0.0358
   44MOL   C15713143   0.090   4.776   1.248  0.4238 -0.2492 -0.0306
   44MOL   C15813144   0.004   4.820   1.150 -0.0595 -0.3165  0.2279
   44MOL   N15913145   8.073   4.738   1.087 -0.0040 -0.1803 -0.2038
   44MOL   H16013146   8.060   4.566   0.848 -1.0474  1.0965  0.9842
   44MOL   H16113147   8.139   4.451   0.939  0.2834  2.1065  0.4526
   44MOL   H16213148   7.961   4.424   1.094 -0.1966  0.3565  0.9306
   44MOL   H16313149   8.117   4.461   1.279 -2.5749 -0.1392 -0.2359
   44MOL   H16413150   0.133   4.608   1.386  1.7455 -0.5182 -1.2826
   44MOL   H16513151   0.160   4.850   1.284  0.7748 -1.5360  2.0464
   44MOL   H16613152   0.012   4.918   1.106 -0.9903 -1.4969 -2.7081
   44MOL   C16713153   7.826   4.587   1.021 -1.2806 -0.1922 -0.4098
   44MOL   C16813154   7.701   4.506   1.053 -0.1750  0.5192  0.2602
   44MOL   C16913155   7.666   4.486   1.194 -0.2764 -0.1674  0.2046
   44MOL   C17013156   7.615   4.361   1.238  0.5039 -0.2884  0.4085
   44MOL   C17113157   7.573   4.352   1.376  0.4617 -0.6626  1.1232
   44MOL   C17213158   7.591   4.464   1.464  0.2712  0.4979  0.1482
   44MOL   C17313159   7.639   4.583   1.405 -0.0273  0.6115 -0.0859
   44MOL   N17413160   7.679   4.593   1.280  0.7991  0.4474 -0.0602
   44MOL   H17513161   7.819   4.616   0.916  0.1372  2.0974  0.0971
   44MOL   H17613162   7.828   4.678   1.081  1.1064 -1.2863  1.2488
   44MOL   H17713163   7.714   4.414   0.998  2.0181  0.3708  1.0016
   44MOL   H17813164   7.600   4.274   1.176  1.6168 -0.7245  0.7484
   44MOL   H17913165   7.521   4.263   1.409 -3.8622  1.7449  1.0152
   44MOL   H18013166   7.552   4.468   1.565  1.9668 -0.5292  0.8724
   44MOL   H18113167   7.642   4.672   1.465 -1.2615 -0.6733  1.9222
   44MOL   C18213168   7.570   4.568   0.987 -0.5028  0.3544  0.4344
   44MOL   C18313169   7.554   4.537   0.832 -0.3147  0.3165  0.1387
   44MOL   C18413170   7.470   4.414   0.817 -0.7836  0.5131 -0.2188
   44MOL   C18513171   7.537   4.288   0.794 -0.1695  0.4286 -0.5906
   44MOL   C18613172   7.463   4.172   0.776  0.6096  0.1130  0.4194
   44MOL   C18713173   7.322   4.183   0.789  0.3502 -0.9855  0.6441
   44MOL   C18813174   7.264   4.312   0.816  0.1164  0.1658  0.1802
   44MOL   N18913175   7.335   4.422   0.831 -0.1748  0.2249 -0.4115
   44MOL   H19013176   7.570   4.677   0.991 -0.5014  0.3916 -0.4077
   44MOL   H19113177   7.473   4.547   1.033 -1.1537 -1.4386 -1.6930
   44MOL   H19213178   7.655   4.520   0.794  0.0328  1.3653  0.5819
   44MOL   H19313179   7.644   4.284   0.799 -0.3253 -2.7286  1.1288
   44MOL   H19413180   7.491   4.069   0.765  1.2372  0.1908  1.2335
   44MOL   H19513181   7.264   4.092   0.786  0.6761 -1.2367  1.6637
   44MOL   H19613182   7.157   4.321   0.810  0.1801  2.1012  1.3752
   44MOL   C19713183   7.502   4.649   0.744  0.2443  0.2830  0.2731
   44MOL   C19813184   7.601   4.775   0.728  0.7818 -0.5973 -0.6874
   44MOL   C19913185   7.732   4.738   0.660 -0.2571  0.0331 -0.5506
   44MOL   C20013186   7.864   4.752   0.715  0.8662 -0.1503 -0.6393
   44MOL   C20113187   7.971   4.721   0.630  0.1317 -0.0539  0.0635
   44MOL   C20213188   7.945   4.696   0.492  0.1050 -0.1037 -0.2234
   44MOL   C20313189   7.811   4.700   0.450 -0.7491  0.1256  0.2883
   44MOL   N20413190   7.710   4.706   0.528 -0.3794  0.0318  0.0615
   44MOL   H20513191   7.409   4.676   0.794 -0.4938 -1.6078 -0.0563
   44MOL   H20613192   7.455   4.610   0.654 -0.6902  1.0316  0.4277
   44MOL   H20713193   7.621   4.791   0.834 -1.2693  1.2196 -0.5515
   44MOL   H20813194   7.888   4.793   0.812 -1.6826 -0.6489  0.2474
   44MOL   H20913195   8.072   4.737   0.666  0.1956  1.0025 -0.5670
   44MOL   H21013196   8.028   4.679   0.424  0.7444 -3.2318  1.2485
   44MOL   H21113197   7.786   4.691   0.346 -0.5642 -0.1715  0.2718
   44MOL   C21213198   7.543   4.894   0.668  1.0392  0.5837  0.1261
   44MOL   C21313199   7.500   5.009   0.761 -0.0336 -0.0327  0.0702
   44MOL   C21413200   7.371   4.988   0.841  0.1932  0.1113 -0.4449
   44MOL   C21513201   7.251   5.050   0.801 -0.6318 -0.2836 -0.6651
   44MOL   C21613202   7.138   5.024   0.882  0.5620 -0.1353 -1.1721
   44MOL   C21713203   7.149   4.940   0.994  0.8415  0.0554 -0.0752
   44MOL   C21813204   7.273   4.894   1.030 -0.6967  0.7656  0.1024
   44MOL   N21913205   7.382   4.904   0.944  0.7445  0.0553  0.0307
   44MOL   H22013206   7.452   4.866   0.615  0.1763  1.9860  0.8543
   44MOL   H22113207   7.623   4.934   0.607  0.6784  0.7214 -0.2540
   44MOL   H22213208   7.465   5.092   0.699 -0.7353  0.6100  1.3187
   44MOL   H22313209   7.241   5.127   0.725  1.1862  2.5314  1.8186
   44MOL   H22413210   7.049   5.078   0.856  0.1775  0.1777  0.7311
   44MOL   H22513211   7.058   4.914   1.046 -0.3546  0.5881 -1.8619
   44MOL   H22613212   7.293   4.842   1.123 -0.8304 -0.4730 -0.5466
   44MOL   C22713213   7.606   5.077   0.852  0.7457  0.5900 -0.3373
   44MOL   C22813214   7.747   5.099   0.790  0.4098  0.2231  0.3828
   44MOL   C22913215   7.749   5.195   0.669  0.1133 -0.5403  0.3216
   44MOL   C23013216   7.765   5.151   0.531 -0.6276 -0.5920 -0.0846
   44MOL   C23113217   7.767   5.247   0.432 -0.3361 -0.0565  0.1076
   44MOL   C23213218   7.773   5.381   0.475 -1.4386 -0.4513  0.3185
   44MOL   C23313219   7.754   5.422   0.607  0.1931  0.1880 -0.5377
   44MOL   N23413220   7.735   5.325   0.697  0.1193 -0.0466 -0.3717
   44MOL   H23513221   7.613   5.012   0.939 -2.4767 -0.0439 -0.4827
   44MOL   H23613222   7.573   5.178   0.877 -2.8579 -0.0250 -2.2343
   44MOL   H23713223   7.779   5.002   0.752 -4.1433  0.0799 -3.6514
   44MOL   H23813224   7.778   5.050   0.497  0.0891  0.2730 -2.4884
   44MOL   H23913225   7.781   5.220   0.329 -0.5946 -2.1541  0.6029
   44MOL   H24013226   7.792   5.454   0.397 -2.2461  1.4384  1.8663
   44MOL   H24113227   7.745   5.525   0.637 -1.6595 -0.6360  1.9648
   44MOL   C24213228   7.836   5.133   0.906 -0.2782  0.1507  0.1573
   44MOL   C24313229   7.982   5.187   0.879  0.5039  0.2705 -0.8310
   44MOL   C24413230   8.048   5.264   0.993  0.6679  0.6833  0.9581
   44MOL   C24513231   8.022   5.402   1.011 -0.2107  0.5325  0.5354
   44MOL   C24613232   8.079   5.471   1.125  0.2103 -0.9342 -0.1631
   44MOL   C24713233   8.145   5.390   1.224  0.1718  0.2462  0.8325
   44MOL   C24813234   0.004   5.253   1.197 -0.3007  0.7636 -0.3658
   44MOL   N24913235   8.103   5.193   1.089  0.4329  0.2146 -0.2849
   44MOL   H25013236   7.835   5.053   0.980 -1.2092 -0.8492 -0.9207
   44MOL   H25113237   7.780   5.205   0.966 -0.4014  1.4225 -1.4702
   44MOL   H25213238   7.958   5.258   0.800 -0.6628 -1.2301 -1.8440
   44MOL   H25313239   7.966   5.458   0.937 -1.5283 -1.0878  0.2821
   44MOL   H25413240   8.067   5.578   1.139  1.9226 -0.7642  0.1752
   44MOL   H25513241   0.039   5.430   1.313 -2.1333  1.5309  1.4533
   44MOL   H25613242   0.055   5.193   1.272  0.6025  0.3252 -1.3241
   44MOL   C25713243   8.059   5.069   0.824 -0.1488  0.2281 -0.7326
   44MOL   C25813244   0.052   5.085   0.774 -0.3579  0.9898 -0.4647
   44MOL   C25913245   0.140   4.977   0.842 -0.0083  0.2778 -0.5602
   44MOL   C26013246   0.237   5.019   0.939 -0.1245  0.1541  0.1444
   44MOL   C26113247   0.321   4.918   0.988 -0.3618 -0.2573 -0.0772
   44MOL   C26213248   0.290   4.782   0.952  0.5808  0.2099  0.3281
   44MOL   C26313249   0.194   4.750   0.854 -0.0347  0.2279 -0.0907
   44MOL   N26413250   0.115   4.848   0.806  0.8286  0.2501  0.4732
   44MOL   H26513251   8.005   5.026   0.740 -0.0310  0.2295 -0.8086
   44MOL   H26613252   8.062   4.985   0.893  2.1712  0.2765 -0.7571
   44MOL   H26713253   0.089   5.182   0.807 -1.9774  1.3295  0.4377
   44MOL   H26813254   0.250   5.120   0.975 -0.7561  0.4822 -0.5399
   44MOL   H26913255   0.396   4.938   1.063 -0.4199  0.1155 -0.1155
   44MOL   H27013256   0.357   4.704   0.983 -2.2152 -2.6736 -0.5854
   44MOL   H27113257   0.192   4.650   0.815 -1.7908 -0.6047  2.0242
   44MOL   C27213258   0.088   5.083   0.620  0.3635  0.3114 -0.2715
   44MOL   C27313259   0.022   5.202   0.542  0.3922 -0.2735 -0.2484
   44MOL   C27413260   0.109   5.322   0.569 -0.0675  0.2627 -0.5860
   44MOL   C27513261   0.065   5.424   0.654 -0.0784  0.2918  0.8048
   44MOL   C27613262   0.137   5.540   0.669 -1.4934  0.8149 -0.3259
   44MOL   C27713263   0.264   5.543   0.605 -0.4366 -0.1697 -0.3094
   44MOL   C27813264   0.305   5.437   0.528  0.2971 -0.1959 -0.1701
   44MOL   N27913265   0.221   5.333   0.498 -0.1579 -0.7033  0.4091
   44MOL   H28013266   0.062   4.988   0.573  2.7192 -0.5705  0.1527
   44MOL   H28113267   0.195   5.079   0.601  0.1436 -0.6776 -1.3228
   44MOL   H28213268   8.070   5.208   0.577  0.2651  0.8442 -0.8057
   44MOL   H28313269   8.123   5.417   0.707 -0.9918  2.0716 -0.5382
   44MOL   H28413270   0.109   5.627   0.726 -0.6695  0.2639  0.9433
   44MOL   H28513271   0.334   5.625   0.605 -0.2234 -0.3529 -1.3187
   44MOL   H28613272   0.393   5.436   0.466 -0.3411  0.4817 -1.1293
   44MOL   C28713273   0.017   5.183   0.388 -0.1844  0.2876 -0.3182
   44MOL   C28813274   8.069   5.074   0.342  0.2424  0.4133 -0.3659
   44MOL   C28913275   8.101   5.008   0.203  0.1917 -0.3314  0.2280
   44MOL   C29013276   8.033   5.050   0.087  0.3488 -0.0629 -0.3467
   44MOL   C29113277   8.079   4.992   8.120  0.0996  0.0388  0.0016
   44MOL   C29213278   0.031   4.892   8.122  0.0908  0.8284 -0.8324
   44MOL   C29313279   0.085   4.855   0.094  0.2820  0.5773  0.3606
   44MOL   N29413280   0.049   4.916   0.211  0.0704  0.0540  0.1666
   44MOL   H29513281   0.118   5.154   0.360 -0.6272 -0.9188 -0.7379
   44MOL   H29613282   8.152   5.273   0.330 -2.0223  0.5825  0.6344
   44MOL   H29713283   7.972   5.120   0.326 -0.7139 -1.3583  0.2074
   44MOL   H29813284   7.959   5.128   0.081  0.4210  0.0050 -0.3527
   44MOL   H29913285   8.032   5.018   8.026 -0.6046 -2.3844 -0.3502
   44MOL   H30013286   0.068   4.836   8.038  0.0976 -3.3760  1.7941
   44MOL   H30113287   0.160   4.780   0.114  1.1830  1.3301 -0.1468
   44MOL   H30213288   8.052   5.000   0.420  2.9566  0.5181  0.3692
   45MOL     C113289   1.148   0.935   5.587 -0.6284  0.0500  0.8084
   45MOL     C213290   1.173   1.027   5.471 -0.4626  0.4983  0.0662
   45MOL     C313291   1.307   0.993   5.408  0.7594  0.4555  0.0827
   45MOL     C413292   1.416   1.086   5.416 -0.0194 -0.3790  0.3643
   45MOL     C513293   1.531   1.062   5.342  0.0355 -0.3441 -1.3153
   45MOL     C613294   1.543   0.935   5.283  0.4423 -0.0939  0.5608
   45MOL     C713295   1.438   0.845   5.290 -0.0891  0.0658  1.0467
   45MOL     N813296   1.320   0.873   5.345 -1.3637  0.0312 -0.2070
   45MOL     H913297   1.236   0.902   5.642 -0.1514  0.1948  0.1330
   45MOL    H1013298   1.089   0.984   5.665 -1.3390  0.7819 -0.1805
   45MOL    H1113299   1.199   1.124   5.513 -0.9280  0.3084  0.7964
   45MOL    H1213300   1.410   1.179   5.469  0.5489  0.9761 -1.8603
   45MOL    H1313301   1.616   1.129   5.343 -0.3810  0.2197  1.3874
   45MOL    H1413302   1.634   0.915   5.228  0.4021  3.0787 -0.7556
   45MOL    H1513303   1.443   0.743   5.253  0.5981  0.8742 -1.1977
   45MOL    H1613304   1.102   0.842   5.553  0.5056 -0.1320 -0.2608
   45MOL    C1713305   1.062   1.040   5.368  0.2320 -0.5194  0.5491
   45MOL    C1813306   0.964   1.160   5.377  0.4195  0.4486  0.1665
   45MOL    C1913307   1.027   1.291   5.334  0.8043 -0.3837 -1.0366
   45MOL    C2013308   1.148   1.290   5.265  0.7403  0.2540 -0.0806
   45MOL    C2113309   1.209   1.419   5.246  0.4280  0.0206  0.0167
   45MOL    C2213310   1.138   1.539   5.284 -0.0650  0.0317 -0.2894
   45MOL    C2313311   1.010   1.526   5.342 -0.1172 -0.6770 -0.0546
   45MOL    N2413312   0.960   1.406   5.375 -0.3133  0.4398  0.7310
   45MOL    H2513313   1.005   0.947   5.370  1.0628 -1.0995 -1.7578
   45MOL    H2613314   1.114   1.036   5.273  1.7585 -0.8940  1.3868
   45MOL    H2713315   0.938   1.161   5.482  1.7236  0.0261  0.5026
   45MOL    H2813316   1.200   1.202   5.229 -0.4987 -0.8149  0.6950
   45MOL    H2913317   1.311   1.418   5.210  0.8348 -1.1850  1.1625
   45MOL    H3013318   1.182   1.634   5.258  1.0024 -1.0585 -2.6174
   45MOL    H3113319   0.953   1.610   5.378  0.0956 -0.4493 -0.2507
   45MOL    C3213320   0.832   1.138   5.303  0.3908  0.4642  0.4677
   45MOL    C3313321   0.740   1.022   5.349  0.3085 -1.1117  0.0796
   45MOL    C3413322   0.746   0.996   5.497 -0.4455  0.5725 -0.5940
   45MOL    C3513323   0.794   0.872   5.543  0.5348  0.0551  0.0270
   45MOL    C3613324   0.784   0.847   5.681  0.1295 -0.2756 -0.3289
   45MOL    C3713325   0.742   0.952   5.768 -0.5467 -0.5006  0.2174
   45MOL    C3813326   0.711   1.076   5.712  0.0200 -0.2805  0.2072
   45MOL    N3913327   0.707   1.094   5.578 -0.8013  0.5758 -0.2258
   45MOL    H4013328   0.847   1.130   5.196  0.5173  2.3802  0.3234
   45MOL    H4113329   0.772   1.229   5.311 -1.3721 -0.4388 -1.9891
   45MOL    H4213330   0.776   0.933   5.299 -0.5350 -0.8372 -1.0301
   45MOL    H4313331   0.825   0.791   5.479  2.2665 -0.1564  1.1018
   45MOL    H4413332   0.819   0.754   5.723 -1.9156 -0.5969  0.7033
   45MOL    H4513333   0.737   0.938   5.875 -1.3313  3.9806  0.8874
   45MOL    H4613334   0.683   1.157   5.778 -1.1992  0.9430 -1.7857
   45MOL    C4713335   0.596   1.027   5.304  0.3569  0.8221  0.6482
   45MOL    C4813336   0.569   1.082   5.169  0.3161  0.2149  0.0000
   45MOL    C4913337   0.627   1.004   5.052  0.0171 -0.7056  0.0279
   45MOL    C5013338   0.717   1.067   4.960  0.3739 -0.3912 -0.0493
   45MOL    C5113339   0.747   0.997   4.843  0.2980 -0.0569  0.3030
   45MOL    C5213340   0.700   0.864   4.825  0.2749 -0.0073 -0.2003
   45MOL    C5313341   0.619   0.815   4.929 -0.3503  0.4412 -0.0494
   45MOL    N5413342   0.586   0.879   5.044 -0.2099  0.6664  0.0564
   45MOL    H5513343   0.536   1.090   5.370  1.4881  1.3735  1.1551
   45MOL    H5613344   0.552   0.928   5.311  1.2693  0.3684  0.0779
   45MOL    H5713345   0.616   1.180   5.163  1.8434 -0.5419 -0.6751
   45MOL    H5813346   0.766   1.162   4.979  1.0205 -0.6704 -0.3166
   45MOL    H5913347   0.815   1.044   4.774  0.3099 -2.3376 -1.2635
   45MOL    H6013348   0.745   0.811   4.742  0.5271 -2.2771  1.3417
   45MOL    H6113349   0.573   0.718   4.922 -1.0542  0.6501  1.4563
   45MOL    C6213350   0.412   1.107   5.148 -0.1065  0.1227 -0.4611
   45MOL    C6313351   0.352   1.244   5.174  1.3213  0.1558  0.5915
   45MOL    C6413352   0.432   1.345   5.091 -0.4654  0.0717 -0.1343
   45MOL    C6513353   0.502   1.451   5.153  0.5139 -0.4805  0.1490
   45MOL    C6613354   0.593   1.521   5.076  0.8067  0.0936  0.2301
   45MOL    C6713355   0.615   1.486   4.945 -0.6425 -0.0688  1.1022
   45MOL    C6813356   0.540   1.379   4.886  0.2002  0.3265  0.0184
   45MOL    N6913357   0.452   1.308   4.963  0.5713 -0.6376  0.6549
   45MOL    H7013358   0.358   1.045   5.219 -0.7901  1.8425  0.5682
   45MOL    H7113359   0.383   1.083   5.046  0.0868  0.0639 -0.5028
   45MOL    H7213360   0.371   1.266   5.279  0.4546  1.0942  0.5597
   45MOL    H7313361   0.483   1.471   5.257  1.8261 -0.6901  0.4459
   45MOL    H7413362   0.659   1.590   5.127 -0.2518  1.7965 -0.6520
   45MOL    H7513363   0.681   1.548   4.886 -1.3141 -0.9913 -0.6707
   45MOL    H7613364   0.549   1.365   4.779  1.4152 -0.0308  0.1674
   45MOL    C7713365   0.200   1.250   5.130  0.2048  0.4889 -0.3332
   45MOL    C7813366   0.092   1.240   5.249  0.7158 -0.6674 -0.5319
   45MOL    C7913367   0.100   1.119   5.345 -0.0716  0.8521  0.8590
   45MOL    C8013368   0.016   1.013   5.347  0.1630  0.2423  0.0661
   45MOL    C8113369   0.041   0.906   5.433  0.5974 -0.2270  0.0500
   45MOL    C8213370   0.149   0.914   5.515 -0.0397  0.0813  0.0392
   45MOL    C8313371   0.234   1.026   5.509  1.2310 -0.2428 -0.3335
   45MOL    N8413372   0.212   1.124   5.425  0.8012 -0.0379  0.6858
   45MOL    H8513373   0.174   1.185   5.046  0.0544  0.3738 -0.1990
   45MOL    H8613374   0.195   1.351   5.089  3.1508  1.1477  0.8231
   45MOL    H8713375   8.151   1.224   5.194 -1.2022 -1.6862  2.8105
   45MOL    H8813376   8.086   1.014   5.276  0.1858  0.1555  0.0391
   45MOL    H8913377   8.128   0.819   5.432 -0.4158  0.3697  4.5422
   45MOL    H9013378   0.170   0.834   5.584  1.1023  0.0523 -0.3431
   45MOL    H9113379   0.313   1.042   5.581  1.2924  0.1375 -0.4876
   45MOL    C9213380   0.080   1.378   5.321 -0.1231 -0.2589 -0.3587
   45MOL    C9313381   8.099   1.386   5.404  0.3124  0.3039 -0.9571
   45MOL    C9413382   8.121   1.328   5.539 -0.2720  0.3165 -0.2701
   45MOL    C9513383   8.043   1.224   5.591  0.2312  0.1058  0.4547
   45MOL    C9613384   8.064   1.177   5.718  0.1460 -0.3073  0.4973
   45MOL    C9713385   8.137   1.251   5.803  0.1679 -0.4570 -0.0992
   45MOL    C9813386   0.063   1.355   5.753  0.0011  0.6523  0.6284
   45MOL    N9913387   0.050   1.393   5.624 -0.1033  0.6814 -0.4152
   45MOL   H10013388   0.073   1.458   5.248  0.4377  0.8223  0.7599
   45MOL   H10113389   0.165   1.401   5.384  1.9212  0.9549 -3.4527
   45MOL   H10213390   8.023   1.325   5.354 -2.8074  3.7348 -0.6303
   45MOL   H10313391   7.971   1.176   5.527  3.1011  0.0622 -2.8588
   45MOL   H10413392   8.038   1.083   5.765  0.8004 -0.8708 -0.2460
   45MOL   H10513393   8.144   1.219   5.906  1.5838  1.2892  0.3720
   45MOL   H10613394   0.117   1.424   5.816 -1.7828  0.7819  2.0874
   45MOL   C10713395   8.038   1.528   5.418 -0.6434  0.6923  0.5263
   45MOL   C10813396   7.958   1.586   5.303 -0.2660 -0.5219 -0.2036
   45MOL   C10913397   7.857   1.489   5.255  0.3398  0.3447 -0.7894
   45MOL   C11013398   7.876   1.411   5.137 -0.2605  0.5158  0.0556
   45MOL   C11113399   7.792   1.305   5.107 -0.5643 -0.5216 -0.6286
   45MOL   C11213400   7.690   1.277   5.196 -0.0311 -0.0981 -0.1677
   45MOL   C11313401   7.683   1.347   5.315 -0.3264 -0.4319 -0.3410
   45MOL   N11413402   7.759   1.456   5.346 -0.0885 -0.1577  0.1453
   45MOL   H11513403   8.111   1.598   5.460  3.0455 -2.4121 -0.4652
   45MOL   H11613404   7.959   1.523   5.493  0.2039 -0.2169  1.3737
   45MOL   H11713405   8.030   1.596   5.221  0.4648 -0.1898  0.4757
   45MOL   H11813406   7.951   1.428   5.062 -0.2687 -1.2061 -0.3626
   45MOL   H11913407   7.803   1.236   5.024 -1.2202 -0.1681 -1.0150
   45MOL   H12013408   7.619   1.197   5.178 -0.5549  0.1057  0.9743
   45MOL   H12113409   7.599   1.333   5.381  1.2372  0.3898  1.8634
   45MOL   C12213410   7.904   1.725   5.332  0.2591 -0.0787 -0.1243
   45MOL   C12313411   7.817   1.792   5.224  0.0489 -0.3661 -0.2689
   45MOL   C12413412   7.767   1.928   5.276 -0.4443  0.0554  0.2671
   45MOL   C12513413   7.628   1.949   5.308  0.2802 -0.3844  1.5894
   45MOL   C12613414   7.591   2.078   5.352 -0.6173 -0.6741 -0.4382
   45MOL   C12713415   7.688   2.176   5.349  0.5958 -0.5464 -0.2475
   45MOL   C12813416   7.822   2.150   5.313  0.1798 -0.0613 -0.1981
   45MOL   N12913417   7.858   2.024   5.287 -0.0253  0.2488  0.4319
   45MOL   H13013418   7.986   1.794   5.351 -0.4511  0.4661  1.0826
   45MOL   H13113419   7.841   1.718   5.421 -0.0319  0.0714 -0.3196
   45MOL   H13213420   7.725   1.733   5.230  0.3831 -0.9046 -0.3782
   45MOL   H13313421   7.559   1.866   5.310 -0.8595  0.5575  1.6877
   45MOL   H13413422   7.492   2.116   5.375 -0.7163  0.3185 -2.4136
   45MOL   H13513423   7.667   2.275   5.387 -0.2705 -0.5812 -0.6302
   45MOL   H13613424   7.893   2.225   5.282 -0.2992  0.1699 -0.7456
   45MOL   C13713425   7.870   1.788   5.081 -1.0647  0.4646  0.2527
   45MOL   C13813426   7.999   1.865   5.046 -0.7128  0.0281  0.0699
   45MOL   C13913427   8.130   1.801   5.095  0.7096  0.1974 -0.3332
   45MOL   C14013428   0.047   1.867   5.197  0.1164 -0.7328 -0.4198
   45MOL   C14113429   0.179   1.831   5.228  0.4518 -0.2820 -0.2250
   45MOL   C14213430   0.228   1.721   5.160 -0.2264 -0.0838 -0.3238
   45MOL   C14313431   0.153   1.656   5.061 -0.4392 -0.6443  0.4787
   45MOL   N14413432   0.028   1.694   5.030 -0.6134 -0.0859  0.9331
   45MOL   H14513433   7.789   1.827   5.019  0.2151  0.7338 -1.2836
   45MOL   H14613434   7.884   1.690   5.035  1.9249  1.0036 -0.0895
   45MOL   H14713435   7.986   1.962   5.094  0.1563  0.3287 -0.2898
   45MOL   H14813436   8.151   1.953   5.242  2.0278  0.4689 -0.6411
   45MOL   H14913437   0.239   1.886   5.299  1.6929 -0.6619 -0.9595
   45MOL   H15013438   0.329   1.683   5.170 -0.2099  0.2208  0.6582
   45MOL   H15113439   0.187   1.561   5.023 -0.5423 -1.1581  1.6515
   45MOL   C15213440   8.004   1.893   4.893 -0.1539 -0.0625  0.2855
   45MOL   C15313441   8.134   1.961   4.844  0.4135  0.2259  0.0159
   45MOL   C15413442   0.005   1.935   4.698 -0.6250  0.9350  0.7240
   45MOL   C15513443   0.129   1.882   4.653  0.4542  0.1069  0.3852
   45MOL   C15613444   0.150   1.860   4.514  0.0963  0.2659 -0.2837
   45MOL   C15713445   0.048   1.902   4.428  0.9192 -0.0600 -0.3434
   45MOL   C15813446   8.082   1.955   4.479  0.0207 -0.2995  0.2744
   45MOL   N15913447   8.056   1.970   4.612  0.0993 -0.4491 -0.2342
   45MOL   H16013448   7.915   1.948   4.863  0.4970  0.9092  0.1317
   45MOL   H16113449   7.997   1.794   4.848 -3.0152  0.8231 -1.3822
   45MOL   H16213450   0.074   1.930   4.894  1.0353  3.3377  0.8879
   45MOL   H16313451   0.214   1.882   4.719 -0.3620 -0.7371  1.4591
   45MOL   H16413452   0.252   1.831   4.491  0.1655 -0.5151  0.9791
   45MOL   H16513453   0.070   1.902   4.322 -0.3986  0.2161 -0.6274
   45MOL   H16613454   8.009   1.999   4.413  1.4598  2.0313  0.1695
   45MOL   C16713455   8.127   2.116   4.872 -0.2332 -0.2672  0.3708
   45MOL   C16813456   0.088   2.208   4.815 -0.8016  0.4168  0.2236
   45MOL   C16913457   0.039   2.350   4.822  0.4258  0.1603  0.7821
   45MOL   C17013458   0.033   2.425   4.703 -0.4064  0.3033  0.0693
   45MOL   C17113459   8.118   2.549   4.703 -0.4383 -0.3560  0.1796
   45MOL   C17213460   8.088   2.603   4.828  0.2388  0.2632  0.2222
   45MOL   C17313461   8.114   2.530   4.942 -0.7322  0.6426  0.6734
   45MOL   N17413462   8.151   2.402   4.936  0.4763 -0.2181 -1.5429
   45MOL   H17513463   8.103   2.134   4.977 -0.2376 -1.6836  0.6278
   45MOL   H17613464   8.037   2.148   4.819  1.6847  0.2614 -2.6589
   45MOL   H17713465   0.106   2.178   4.711  0.1313 -2.5780  1.1802
   45MOL   H17813466   0.086   2.391   4.615 -1.5010  0.1048 -0.5202
   45MOL   H17913467   8.120   2.616   4.618 -0.1728  0.5212  0.8695
   45MOL   H18013468   8.051   2.703   4.845  0.0711  0.3155 -0.4172
   45MOL   H18113469   8.081   2.573   5.036 -1.5416  0.9635  0.2456
   45MOL   C18213470   0.219   2.186   4.900  0.3031 -0.3556 -0.0718
   45MOL   C18313471   0.340   2.268   4.856  0.4558 -0.5891 -0.0931
   45MOL   C18413472   0.396   2.337   4.977  0.3069 -0.3406  0.1111
   45MOL   C18513473   0.416   2.476   4.976  0.5666  0.1600  0.9989
   45MOL   C18613474   0.465   2.531   5.095  0.2863  0.1463 -0.2815
   45MOL   C18713475   0.494   2.450   5.204 -0.2502  0.7147  0.6927
   45MOL   C18813476   0.477   2.313   5.192 -0.1746 -0.3152  0.1852
   45MOL   N18913477   0.424   2.257   5.083 -0.7333 -0.0653  0.1359
   45MOL   H19013478   0.248   2.082   4.892  0.3616 -0.3267 -0.2274
   45MOL   H19113479   0.186   2.205   5.002 -0.3336 -0.6550 -0.2171
   45MOL   H19213480   0.289   2.346   4.800  3.0938  1.4424  0.2059
   45MOL   H19313481   0.387   2.538   4.893 -1.4501 -2.5650 -0.4265
   45MOL   H19413482   0.474   2.638   5.103 -1.7001  0.3670 -0.7215
   45MOL   H19513483   0.519   2.492   5.300  1.4850 -0.1611  0.6432
   45MOL   H19613484   0.510   2.243   5.267 -0.6924  1.5351  2.1915
   45MOL   C19713485   0.449   2.193   4.769  0.1722 -0.3151  0.1568
   45MOL   C19813486   0.424   2.156   4.617 -0.1614 -0.5788 -0.2277
   45MOL   C19913487   0.360   2.260   4.529 -0.1881 -0.1212 -0.4166
   45MOL   C20013488   0.366   2.400   4.558  0.2445 -0.1212  0.3957
   45MOL   C20113489   0.303   2.481   4.463 -0.0833  0.2186  0.5960
   45MOL   C20213490   0.224   2.431   4.359  0.0094 -0.5576 -0.0669
   45MOL   C20313491   0.220   2.294   4.349  0.2076 -0.4302  0.4772
   45MOL   N20413492   0.291   2.214   4.426 -0.2301 -0.1021 -0.6261
   45MOL   H20513493   0.482   2.104   4.823  0.1833 -0.1059  0.4912
   45MOL   H20613494   0.535   2.259   4.758  0.5937 -0.8578  0.1587
   45MOL   H20713495   0.345   2.082   4.624 -0.3635 -0.2742  0.8418
   45MOL   H20813496   0.429   2.445   4.633 -1.0445  1.4481  0.5748
   45MOL   H20913497   0.307   2.588   4.472  1.5279  0.0890  1.7102
   45MOL   H21013498   0.176   2.491   4.283  0.0463 -3.0716 -2.1316
   45MOL   H21113499   0.163   2.248   4.269 -1.6317  0.3595  1.3020
   45MOL   C21213500   0.553   2.100   4.551  0.0540 -0.0571 -0.4926
   45MOL   C21313501   0.640   1.994   4.614  0.0124  0.4218 -0.5952
   45MOL   C21413502   0.562   1.862   4.638 -0.1883 -0.3289 -0.7515
   45MOL   C21513503   0.537   1.771   4.538 -0.5346  0.0278  0.2744
   45MOL   C21613504   0.457   1.662   4.565  0.2962 -0.7641  0.5232
   45MOL   C21713505   0.403   1.641   4.693  0.5783 -0.2410  0.2404
   45MOL   C21813506   0.441   1.734   4.793 -0.1843 -0.3684  0.4588
   45MOL   N21913507   0.516   1.843   4.768  0.4404  0.0699 -0.2756
   45MOL   H22013508   0.620   2.180   4.521  0.0516  0.3935  0.6814
   45MOL   H22113509   0.520   2.059   4.455 -0.1192 -1.5338  0.1831
   45MOL   H22213510   0.684   2.031   4.707  1.2643  1.0374 -1.4173
   45MOL   H22313511   0.576   1.786   4.439  1.9367  1.5979  1.4421
   45MOL   H22413512   0.430   1.600   4.481  0.9997 -0.2226 -0.1216
   45MOL   H22513513   0.335   1.558   4.703  1.9950 -1.4142  0.3233
   45MOL   H22613514   0.409   1.715   4.894 -3.1021 -2.9086 -0.8488
   45MOL   C22713515   0.778   1.964   4.554 -0.1169 -0.2359  0.2211
   45MOL   C22813516   0.863   1.862   4.635 -0.2116 -0.2411  0.2431
   45MOL   C22913517   0.874   1.734   4.560 -0.3561 -0.1132 -0.0844
   45MOL   C23013518   0.822   1.619   4.618 -0.0574 -0.8554 -0.3708
   45MOL   C23113519   0.844   1.501   4.548 -0.2932 -0.1464  0.2988
   45MOL   C23213520   0.909   1.497   4.418  0.3001 -0.6705  0.2082
   45MOL   C23313521   0.958   1.621   4.366 -0.5546 -0.1842  0.2780
   45MOL   N23413522   0.943   1.737   4.438 -0.2230 -0.1911 -0.1116
   45MOL   H23513523   0.830   2.060   4.554  0.3586 -0.4489  3.0018
   45MOL   H23613524   0.776   1.938   4.449  0.9952 -1.4117  0.4841
   45MOL   H23713525   0.811   1.829   4.724 -1.9195 -1.8812 -1.3187
   45MOL   H23813526   0.767   1.621   4.710  0.8981 -0.4413  0.2045
   45MOL   H23913527   0.808   1.413   4.599  0.9574 -0.0894  1.3045
   45MOL   H24013528   0.913   1.406   4.359  2.4436 -1.2660  1.2172
   45MOL   H24113529   1.006   1.623   4.269 -0.0430 -1.0059  0.5105
   45MOL   C24213530   1.001   1.920   4.669  0.1259  0.3136  0.7158
   45MOL   C24313531   1.007   2.027   4.788  0.2849 -0.4460  0.4516
   45MOL   C24413532   0.914   1.986   4.900  0.2953  0.2635 -0.5931
   45MOL   C24513533   0.797   2.058   4.940  0.3540  0.0291  0.3787
   45MOL   C24613534   0.718   2.009   5.041 -0.0952 -0.1366 -0.3449
   45MOL   C24713535   0.754   1.887   5.101  0.7949  0.1892  0.0196
   45MOL   C24813536   0.879   1.825   5.071  0.5262 -0.7803  0.2332
   45MOL   N24913537   0.954   1.870   4.969 -0.5884 -0.4533  0.2591
   45MOL   H25013538   1.046   1.968   4.583 -0.3048  0.4387  0.5616
   45MOL   H25113539   1.066   1.835   4.689  2.5693  1.7988 -0.6991
   45MOL   H25213540   0.966   2.114   4.738  0.2719 -1.0432 -0.5922
   45MOL   H25313541   0.773   2.153   4.894 -0.9474 -0.8958 -0.8852
   45MOL   H25413542   0.630   2.062   5.074  0.0529  0.5482 -1.0369
   45MOL   H25513543   0.685   1.841   5.171  0.1705 -1.0267 -1.3740
   45MOL   H25613544   0.893   1.735   5.128 -0.9546  0.3573  2.4506
   45MOL   C25713545   1.144   2.065   4.845 -0.3210  0.0564 -0.0705
   45MOL   C25813546   1.242   2.163   4.772 -0.6182 -0.0948 -0.5068
   45MOL   C25913547   1.354   2.199   4.873 -0.6011 -0.0025  0.8737
   45MOL   C26013548   1.381   2.336   4.907 -0.6978 -0.1801  0.5406
   45MOL   C26113549   1.499   2.359   4.981 -0.0351  0.3474  0.0518
   45MOL   C26213550   1.580   2.253   5.024  0.1205  0.4108  0.1116
   45MOL   C26313551   1.552   2.122   4.977 -0.5792  0.2748  0.5615
   45MOL   N26413552   1.443   2.098   4.895 -0.5527  0.1112  0.7992
   45MOL   H26513553   1.199   1.972   4.858  0.3489 -0.2209 -4.1849
   45MOL   H26613554   1.127   2.106   4.945  0.3278  0.0905  0.0235
   45MOL   H26713555   1.183   2.253   4.757  0.2653  0.5707  0.0212
   45MOL   H26813556   1.329   2.418   4.862  0.9702  0.9059  0.5407
   45MOL   H26913557   1.529   2.461   5.003  0.7510  0.0564  0.3157
   45MOL   H27013558   1.666   2.277   5.085 -0.0275 -0.1067  0.5312
   45MOL   H27113559   1.628   2.049   5.000 -0.2874  0.3564 -0.1415
   45MOL   C27213560   1.297   2.109   4.643 -0.4079 -0.2491  0.3146
   45MOL   C27313561   1.218   2.157   4.517 -0.4710 -0.0013  0.1785
   45MOL   C27413562   1.263   2.304   4.493 -0.4872  0.4558  0.1909
   45MOL   C27513563   1.163   2.404   4.500 -0.2255  0.1221 -0.5397
   45MOL   C27613564   1.190   2.538   4.472 -0.4705 -0.2303  0.6242
   45MOL   C27713565   1.323   2.568   4.433 -0.6109 -0.6764 -0.1897
   45MOL   C27813566   1.414   2.458   4.428  0.2170  0.6935 -0.1571
   45MOL   N27913567   1.382   2.331   4.448  0.4909  0.5399  0.2017
   45MOL   H28013568   1.298   2.000   4.652 -0.3429 -0.1207  1.9085
   45MOL   H28113569   1.405   2.118   4.628 -0.1224 -1.4446  1.5167
   45MOL   H28213570   1.110   2.160   4.527 -0.6822 -1.6049 -1.5451
   45MOL   H28313571   1.067   2.369   4.534 -0.7484  0.2913 -1.8234
   45MOL   H28413572   1.116   2.617   4.471 -0.6714 -0.3731  2.2151
   45MOL   H28513573   1.351   2.668   4.404 -2.3336  0.2738  1.3320
   45MOL   H28613574   1.513   2.476   4.388  0.1922 -1.8337 -1.4777
   45MOL   C28713575   1.235   2.066   4.388  0.0933 -1.1204 -0.4651
   45MOL   C28813576   1.177   2.127   4.257 -0.0729 -0.3176  0.2427
   45MOL   C28913577   1.262   2.075   4.144 -0.5513  0.5093  0.9818
   45MOL   C29013578   1.356   2.152   4.079  0.0493  0.6631 -0.4743
   45MOL   C29113579   1.432   2.100   3.970  0.0512 -0.2490  0.1483
   45MOL   C29213580   1.407   1.964   3.934 -1.0174  0.7211 -0.1143
   45MOL   C29313581   1.313   1.889   4.009 -0.2926  0.7361 -0.4579
   45MOL   N29413582   1.242   1.947   4.106  0.0424  0.0348  1.0527
   45MOL   H29513583   1.188   1.967   4.384  0.1605 -1.1541 -0.4063
   45MOL   H29613584   1.342   2.046   4.382  0.4755  1.3128 -2.2217
   45MOL   H29713585   1.170   2.235   4.250  2.9566 -0.1988 -1.4238
   45MOL   H29813586   1.364   2.255   4.110  0.6389  0.0610  1.3933
   45MOL   H29913587   1.508   2.149   3.911 -0.0229 -0.9251 -0.5093
   45MOL   H30013588   1.464   1.914   3.857 -0.9472  1.0002 -0.2448
   45MOL   H30113589   1.287   1.787   3.984  0.0477  0.5071  0.1150
   45MOL   H30213590   1.072   2.099   4.247 -0.0512 -0.1255 -0.5634
   46MOL     C113591   1.166   1.662   6.246  0.3768 -0.0656  0.0099
   46MOL     C213592   1.076   1.554   6.321 -1.0121 -0.0134 -0.0743
   46MOL     C313593   1.155   1.480   6.432 -0.1822  0.1686  0.2306
   46MOL     C413594   1.153   1.340   6.434  1.0484  0.2788  0.2001
   46MOL     C513595   1.230   1.282   6.535  0.5226 -0.1592  0.6041
   46MOL     C613596   1.290   1.362   6.633  0.2325  0.4820 -0.2919
   46MOL     C713597   1.279   1.502   6.624  0.1424  0.2467 -0.0680
   46MOL     N813598   1.212   1.556   6.522 -0.2581  0.1514 -0.3475
   46MOL     H913599   1.109   1.705   6.164  0.5259 -2.3498 -1.3323
   46MOL    H1013600   1.186   1.745   6.314  2.6642  0.1337 -0.9004
   46MOL    H1113601   1.043   1.483   6.245 -0.5608 -1.5617  1.1598
   46MOL    H1213602   1.116   1.270   6.360  2.2537  0.0688 -0.2165
   46MOL    H1313603   1.241   1.175   6.546 -0.6413 -0.2738  0.8181
   46MOL    H1413604   1.349   1.316   6.711  0.9787 -1.2830 -1.8589
   46MOL    H1513605   1.307   1.573   6.700  3.4186 -0.8204 -0.1947
   46MOL    H1613606   1.266   1.632   6.216  0.8904  2.6398 -1.1060
   46MOL    C1713607   0.943   1.615   6.375 -0.2443 -1.2466 -0.3469
   46MOL    C1813608   0.833   1.640   6.275  0.0021 -0.2216  0.8061
   46MOL    C1913609   0.797   1.520   6.191 -0.2153  0.6818  0.5528
   46MOL    C2013610   0.816   1.510   6.047 -0.0937 -0.6739  0.2095
   46MOL    C2113611   0.769   1.393   5.980 -0.6085  0.0223 -0.9430
   46MOL    C2213612   0.702   1.291   6.046 -0.3093  0.1393  0.5445
   46MOL    C2313613   0.682   1.311   6.185 -0.0657 -0.0581 -0.7451
   46MOL    N2413614   0.727   1.423   6.254 -0.3586  0.1041 -0.4144
   46MOL    H2513615   0.984   1.705   6.421  1.2880 -1.6196 -0.9624
   46MOL    H2613616   0.903   1.552   6.455 -2.6094 -0.6535 -1.0269
   46MOL    H2713617   0.890   1.707   6.211  0.9092 -0.2225  1.6050
   46MOL    H2813618   0.867   1.590   5.995 -2.1282  0.7762  0.3704
   46MOL    H2913619   0.785   1.378   5.874 -2.3065 -0.2259 -1.1652
   46MOL    H3013620   0.667   1.206   5.989  0.2762 -0.2920  0.8259
   46MOL    H3113621   0.630   1.234   6.241 -2.6178  0.8900 -1.7077
   46MOL    C3213622   0.715   1.724   6.340  0.0023  0.6063 -0.2540
   46MOL    C3313623   0.592   1.745   6.254  0.5396  0.1493  0.3201
   46MOL    C3413624   0.462   1.707   6.323  0.2177  0.8346 -0.7772
   46MOL    C3513625   0.369   1.619   6.272  0.3014 -0.0704  1.0125
   46MOL    C3613626   0.251   1.584   6.336 -0.1779 -0.1616  0.2048
   46MOL    C3713627   0.229   1.656   6.463 -0.0784  0.7447 -0.4367
   46MOL    C3813628   0.329   1.747   6.506  0.4513 -1.1205 -0.1333
   46MOL    N3913629   0.441   1.768   6.435 -0.4557  0.1823 -0.1614
   46MOL    H4013630   0.751   1.813   6.390  0.7681 -1.9385  3.9492
   46MOL    H4113631   0.699   1.663   6.429  0.7671  0.9344  0.1133
   46MOL    H4213632   0.596   1.664   6.182 -2.1431 -0.9333  1.3147
   46MOL    H4313633   0.386   1.579   6.173 -0.2059  1.5542  0.2409
   46MOL    H4413634   0.184   1.511   6.292 -0.8981  1.7302 -1.9485
   46MOL    H4513635   0.136   1.633   6.512  0.3193  0.1958  0.0658
   46MOL    H4613636   0.315   1.790   6.604  0.1227 -0.0564 -0.6391
   46MOL    C4713637   0.588   1.872   6.170 -0.2147  0.5421 -0.2958
   46MOL    C4813638   0.490   1.884   6.049 -0.1178 -0.0652 -0.1326
   46MOL    C4913639   0.497   2.027   5.998  0.5169 -0.0662  0.7632
   46MOL    C5013640   0.395   2.116   6.015  0.4834 -1.2193  0.7036
   46MOL    C5113641   0.415   2.251   5.980 -0.5582  0.1331 -0.7292
   46MOL    C5213642   0.543   2.283   5.932 -0.4324 -0.0084  0.0629
   46MOL    C5313643   0.642   2.193   5.908 -0.1434  0.0346 -0.3007
   46MOL    N5413644   0.620   2.065   5.949 -0.3345  0.0048  0.1725
   46MOL    H5513645   0.691   1.901   6.146 -0.5573  1.9110 -0.1911
   46MOL    H5613646   0.553   1.956   6.230  0.7088 -0.2800  1.4309
   46MOL    H5713647   0.387   1.880   6.085  0.7091 -3.2561  2.1094
   46MOL    H5813648   0.305   2.088   6.069 -0.2080  0.0931  0.2600
   46MOL    H5913649   0.347   2.332   6.001 -1.4411 -0.6531 -0.5226
   46MOL    H6013650   0.550   2.388   5.908 -2.2595  0.1066 -0.0593
   46MOL    H6113651   0.744   2.218   5.881 -0.0132 -1.6528 -1.4450
   46MOL    C6213652   0.534   1.779   5.941  0.8718  0.5387 -0.4785
   46MOL    C6313653   0.435   1.754   5.829 -0.3815 -0.0239  0.8644
   46MOL    C6413654   0.507   1.696   5.705 -0.2898  0.5302 -0.1091
   46MOL    C6513655   0.506   1.760   5.582  0.1053  0.3270  0.1408
   46MOL    C6613656   0.577   1.710   5.468 -0.5606 -0.0823 -0.0691
   46MOL    C6713657   0.656   1.596   5.489  0.5229  0.3581 -0.0007
   46MOL    C6813658   0.652   1.534   5.619 -0.3109  0.7887  1.1140
   46MOL    N6913659   0.576   1.581   5.722  0.2325  0.3449  0.4506
   46MOL    H7013660   0.569   1.682   5.977 -0.9703  0.5760  1.4918
   46MOL    H7113661   0.625   1.818   5.894 -0.6150  2.5417 -1.7973
   46MOL    H7213662   0.393   1.851   5.803  1.1606  0.3410 -0.3693
   46MOL    H7313663   0.449   1.851   5.574  1.8399  1.4416  0.1946
   46MOL    H7413664   0.562   1.762   5.374 -0.5174  0.1670  0.0614
   46MOL    H7513665   0.720   1.554   5.412  0.7905  0.9965 -0.1385
   46MOL    H7613666   0.715   1.447   5.633 -1.1173 -0.4659 -2.5981
   46MOL    C7713667   0.312   1.668   5.851  0.2189 -0.6143  0.3878
   46MOL    C7813668   0.188   1.739   5.912 -0.5577  0.1692  0.1277
   46MOL    C7913669   0.143   1.858   5.838 -0.5037 -0.2192  0.3494
   46MOL    C8013670   0.112   1.851   5.700 -0.7072 -0.4933 -0.3782
   46MOL    C8113671   0.063   1.963   5.633  0.2417  0.4931  0.4553
   46MOL    C8213672   0.060   2.081   5.706 -0.1085  0.0205  0.1497
   46MOL    C8313673   0.093   2.081   5.843  0.2022  0.2325  0.2350
   46MOL    N8413674   0.144   1.973   5.909  0.4020  0.5752  0.6967
   46MOL    H8513675   0.345   1.577   5.901  1.6810 -0.1711  0.2614
   46MOL    H8613676   0.269   1.623   5.761 -0.2589 -1.3207  0.9604
   46MOL    H8713677   0.213   1.770   6.013  0.8975  0.5472 -0.3268
   46MOL    H8813678   0.113   1.756   5.649 -1.6030  0.2838 -1.8764
   46MOL    H8913679   0.039   1.965   5.527  1.0905  0.8107  0.2670
   46MOL    H9013680   0.020   2.166   5.654  0.5508 -0.6555 -1.4965
   46MOL    H9113681   0.090   2.168   5.906  1.8550  0.2111  0.3635
   46MOL    C9213682   0.064   1.645   5.924 -0.1331  0.3071 -0.4527
   46MOL    C9313683   8.098   1.708   5.997  0.5007  0.1854  0.4383
   46MOL    C9413684   7.972   1.656   5.920 -0.0977  0.9671 -0.3693
   46MOL    C9513685   7.920   1.731   5.812  0.3535 -0.3348 -0.5410
   46MOL    C9613686   7.829   1.667   5.728 -0.4468 -0.0282 -0.5862
   46MOL    C9713687   7.788   1.533   5.757 -0.3139 -0.0704  0.1032
   46MOL    C9813688   7.855   1.466   5.856 -0.0595 -0.0825 -0.0804
   46MOL    N9913689   7.944   1.524   5.942  0.0818  0.5685 -0.2666
   46MOL   H10013690   0.089   1.560   5.987 -0.4295 -0.1567 -0.9584
   46MOL   H10113691   0.030   1.618   5.824  1.5685  1.4279 -1.3648
   46MOL   H10213692   8.102   1.815   5.976  1.9718  0.2644  1.0571
   46MOL   H10313693   7.939   1.837   5.800 -0.1975 -0.3103 -1.2214
   46MOL   H10413694   7.793   1.717   5.639 -0.9822  1.0334  0.2229
   46MOL   H10513695   7.714   1.486   5.694  0.1812 -1.6062  0.6514
   46MOL   H10613696   7.823   1.365   5.874 -1.5055  0.2314 -0.8172
   46MOL   C10713697   8.087   1.695   6.152  0.1377 -0.5372  0.4970
   46MOL   C10813698   8.001   1.801   6.225  0.3012  0.6659  0.2461
   46MOL   C10913699   7.940   1.746   6.355 -0.2065  0.0935 -0.1372
   46MOL   C11013700   7.800   1.739   6.371 -0.3193 -0.0866  0.4718
   46MOL   C11113701   7.749   1.691   6.488  0.2519 -0.5662  0.4569
   46MOL   C11213702   7.839   1.642   6.586 -0.1683  0.2044 -0.0712
   46MOL   C11313703   7.975   1.647   6.568  0.3869 -0.2407 -0.2990
   46MOL   N11413704   8.024   1.689   6.448 -0.0548 -0.3109  0.2640
   46MOL   H11513705   0.038   1.694   6.188 -0.3146  1.7194  1.9422
   46MOL   H11613706   8.052   1.593   6.170  0.0520 -0.5664  0.1829
   46MOL   H11713707   7.929   1.823   6.146  0.7366 -4.0777 -1.6301
   46MOL   H11813708   7.734   1.780   6.295  0.6353  0.7410  0.0732
   46MOL   H11913709   7.642   1.686   6.500  0.0262  0.6682 -0.9905
   46MOL   H12013710   7.805   1.587   6.672  1.6322 -2.8265 -1.2535
   46MOL   H12113711   8.049   1.617   6.640 -0.2313  0.4138  0.6265
   46MOL   C12213712   8.091   1.919   6.258  0.1901 -0.2339 -0.2176
   46MOL   C12313713   8.014   2.028   6.337 -0.0579 -0.0355  0.4218
   46MOL   C12413714   8.075   2.055   6.479  0.2123 -0.8135  0.7585
   46MOL   C12513715   7.992   2.056   6.600 -0.6096 -0.2853 -0.1167
   46MOL   C12613716   8.055   2.096   6.719  0.1850  0.5392  0.0146
   46MOL   C12713717   0.038   2.142   6.716 -0.0703  0.5071  0.6037
   46MOL   C12813718   0.112   2.141   6.595 -0.1468 -0.4052  0.0739
   46MOL   N12913719   0.055   2.087   6.486  0.0341  0.7788 -0.3525
   46MOL   H13013720   8.144   1.968   6.177 -1.5881  1.8360 -0.1857
   46MOL   H13113721   0.020   1.873   6.316 -0.3555  0.3526  1.0379
   46MOL   H13213722   7.908   2.010   6.351 -0.2121  0.8899  0.4823
   46MOL   H13313723   7.887   2.030   6.604 -1.2268  2.0721 -0.2766
   46MOL   H13413724   7.998   2.100   6.811 -1.0339 -0.3906 -0.6816
   46MOL   H13513725   0.094   2.163   6.806  0.1673 -0.0858  0.6029
   46MOL   H13613726   0.212   2.181   6.592 -0.1352 -0.5179 -3.3336
   46MOL   C13713727   8.008   2.163   6.259 -0.1589  0.0229  0.5745
   46MOL   C13813728   7.927   2.162   6.126 -0.0869  0.5751 -0.3064
   46MOL   C13913729   7.798   2.079   6.143  0.1306 -0.0735 -0.1282
   46MOL   C14013730   7.763   1.978   6.050 -0.3789 -0.4385 -0.6815
   46MOL   C14113731   7.638   1.918   6.062 -0.2578 -0.1448  0.5615
   46MOL   C14213732   7.550   1.960   6.165  0.1023  0.4478  0.7978
   46MOL   C14313733   7.599   2.055   6.256 -0.3979 -0.9772 -0.1042
   46MOL   N14413734   7.721   2.115   6.248  0.1416  0.9089 -0.1199
   46MOL   H14513735   8.105   2.207   6.237  0.3309 -2.1644 -1.8646
   46MOL   H14613736   7.953   2.232   6.324 -0.1657 -3.1641  4.0918
   46MOL   H14713737   7.992   2.113   6.054  1.8226  0.0968  1.6992
   46MOL   H14813738   7.818   1.969   5.957  2.2696 -0.4493  0.8430
   46MOL   H14913739   7.604   1.856   5.981  1.0059  0.2675 -0.2875
   46MOL   H15013740   7.450   1.919   6.168 -1.3475  3.4218 -2.7188
   46MOL   H15113741   7.542   2.101   6.335  2.1040  1.6919  0.2236
   46MOL   C15213742   7.894   2.309   6.086 -0.6593  0.0554  0.4496
   46MOL   C15313743   7.893   2.333   5.936 -0.8215  0.3819  0.0806
   46MOL   C15413744   7.804   2.233   5.861  1.1054 -0.1631 -0.0176
   46MOL   C15513745   7.857   2.145   5.767  0.2225 -0.2734 -0.5356
   46MOL   C15613746   7.773   2.066   5.680 -0.3097 -0.0697 -0.3592
   46MOL   C15713747   7.632   2.078   5.702 -0.0354  0.0673  0.7291
   46MOL   C15813748   7.589   2.159   5.809  0.2004 -0.1372 -0.4789
   46MOL   N15913749   7.671   2.237   5.884 -0.0289  0.5494  0.4247
   46MOL   H16013750   7.962   2.380   6.133 -0.6186  2.0279 -2.4472
   46MOL   H16113751   7.792   2.331   6.116 -0.2457  1.0495  1.1501
   46MOL   H16213752   7.991   2.324   5.890 -1.2130 -0.7228 -0.5648
   46MOL   H16313753   7.962   2.121   5.761 -0.1469 -2.5555  1.1608
   46MOL   H16413754   7.802   1.997   5.603 -0.1845 -2.2437  1.5656
   46MOL   H16513755   7.569   2.019   5.637  1.0738  0.3318 -0.6203
   46MOL   H16613756   7.485   2.154   5.836 -0.3787 -0.9733 -2.7799
   46MOL   C16713757   7.869   2.480   5.902  0.3555  0.2119 -0.9587
   46MOL   C16813758   7.850   2.524   5.760  0.3529  0.0279 -0.1137
   46MOL   C16913759   7.846   2.685   5.759  0.2348  0.9471 -0.3519
   46MOL   C17013760   7.731   2.756   5.737  0.8575  0.1905  0.4361
   46MOL   C17113761   7.738   2.891   5.701  0.0478 -0.3847 -0.0291
   46MOL   C17213762   7.862   2.952   5.708  0.1399  0.0263 -0.7064
   46MOL   C17313763   7.977   2.876   5.742 -0.0132  0.4510 -0.3043
   46MOL   N17413764   7.970   2.746   5.772  0.9498  0.4061  0.4145
   46MOL   H17513765   7.946   2.543   5.945 -1.8660  1.0348  1.9668
   46MOL   H17613766   7.781   2.507   5.961  1.2990 -1.9143  1.5329
   46MOL   H17713767   7.756   2.483   5.724  0.1185  1.3099 -0.9644
   46MOL   H17813768   7.636   2.705   5.727  0.4421  0.9013  0.7642
   46MOL   H17913769   7.644   2.937   5.672  0.6361  0.8725  0.0340
   46MOL   H18013770   7.878   3.055   5.679  0.5431 -0.7549 -3.4692
   46MOL   H18113771   8.073   2.926   5.751  0.8241 -1.0715 -0.4870
   46MOL   C18213772   7.959   2.473   5.673  0.4071 -0.6386 -0.2907
   46MOL   C18313773   7.968   2.533   5.533  0.3804  0.0938  0.3809
   46MOL   C18413774   8.074   2.458   5.453 -0.3705 -0.3299 -0.5588
   46MOL   C18513775   0.021   2.535   5.387 -0.1627  0.0603 -0.2974
   46MOL   C18613776   0.126   2.478   5.321 -0.2174 -0.0624 -0.5514
   46MOL   C18713777   0.119   2.340   5.302  0.1252  0.0129 -0.3213
   46MOL   C18813778   0.012   2.266   5.361  0.3313 -0.1116 -0.6271
   46MOL   N18913779   8.065   2.327   5.430  0.2803 -0.0838  0.8264
   46MOL   H19013780   7.947   2.365   5.670  0.8525 -0.7891  1.9977
   46MOL   H19113781   8.050   2.498   5.728 -0.2715  1.1391  0.0693
   46MOL   H19213782   8.015   2.630   5.547 -1.1332  0.4931  2.9909
   46MOL   H19313783   0.023   2.642   5.403 -1.1205 -0.1845  1.5644
   46MOL   H19413784   0.213   2.532   5.286 -0.6032 -0.7226 -2.5990
   46MOL   H19513785   0.191   2.300   5.232  3.0348 -0.9951  3.1096
   46MOL   H19613786   8.144   2.169   5.318 -1.3593 -1.5857  3.2426
   46MOL   C19713787   7.840   2.558   5.447 -0.1162 -0.7251 -0.2437
   46MOL   C19813788   7.869   2.640   5.319  0.0035  0.6483 -0.2079
   46MOL   C19913789   7.747   2.634   5.229 -0.2973 -0.0617  0.0975
   46MOL   C20013790   7.757   2.578   5.103  0.1517 -0.4899 -0.0540
   46MOL   C20113791   7.636   2.575   5.030 -0.3545 -0.0528  0.0315
   46MOL   C20213792   7.517   2.627   5.086  0.2153  0.5974  0.2620
   46MOL   C20313793   7.522   2.674   5.211  0.7129  0.0726 -0.1682
   46MOL   N20413794   7.637   2.690   5.281  0.0344 -0.2956  0.6239
   46MOL   H20513795   7.787   2.630   5.510  0.7273 -0.6453  0.3902
   46MOL   H20613796   7.786   2.464   5.438 -0.2854 -0.6279 -0.2402
   46MOL   H20713797   7.942   2.578   5.267  0.2567 -0.9258  1.9836
   46MOL   H20813798   7.851   2.540   5.065 -0.2540 -3.2329  1.5421
   46MOL   H20913799   7.647   2.530   4.932  1.8368 -1.3620  0.8373
   46MOL   H21013800   7.428   2.629   5.025  0.0952  1.2708  0.4506
   46MOL   H21113801   7.439   2.716   5.266  0.0927 -1.5829  0.1945
   46MOL   C21213802   7.928   2.779   5.342  0.5247  1.0451  0.3589
   46MOL   C21313803   7.943   2.863   5.208 -0.2792  0.8761 -0.1474
   46MOL   C21413804   7.846   2.974   5.210  0.7694  0.3469  0.3517
   46MOL   C21513805   7.742   2.986   5.110 -0.4383  0.6578 -0.0144
   46MOL   C21613806   7.671   3.101   5.113 -0.0298  0.3127 -0.0538
   46MOL   C21713807   7.683   3.200   5.211  0.2765 -0.3401 -0.1597
   46MOL   C21813808   7.775   3.175   5.310 -0.4613  0.2040  0.1549
   46MOL   N21913809   7.863   3.071   5.311  0.6199  0.3771  0.3507
   46MOL   H22013810   8.020   2.779   5.401  0.5075 -0.8723  0.4115
   46MOL   H22113811   7.859   2.830   5.409  0.5958  1.2426  0.2807
   46MOL   H22213812   7.927   2.806   5.116 -0.3793  0.3271  0.2050
   46MOL   H22313813   7.722   2.912   5.034  1.1758 -2.3489  2.3549
   46MOL   H22413814   7.601   3.104   5.031 -4.3307  0.4125  3.4464
   46MOL   H22513815   7.614   3.284   5.209 -0.4896 -0.9819 -0.9560
   46MOL   H22613816   7.775   3.246   5.392  4.1866 -0.6135  1.0258
   46MOL   C22713817   8.086   2.903   5.186 -0.0057  0.1735  0.7055
   46MOL   C22813818   8.136   2.950   5.040  0.2463 -0.3544 -0.5283
   46MOL   C22913819   8.065   3.077   4.996 -0.4777 -0.0539  0.0218
   46MOL   C23013820   8.062   3.200   5.072  0.3193 -0.1904 -0.3387
   46MOL   C23113821   7.990   3.312   5.028 -0.1948  0.2126  0.3389
   46MOL   C23213822   7.916   3.294   4.909  0.1530  0.7008  0.6475
   46MOL   C23313823   7.937   3.177   4.831  0.3921  0.5809  0.1677
   46MOL   N23413824   8.012   3.067   4.872 -0.6132  0.0782  0.3679
   46MOL   H23513825   8.146   2.819   5.221  0.0295  0.1465  0.5834
   46MOL   H23613826   8.120   2.980   5.256  2.3016 -1.6595  1.6569
   46MOL   H23713827   8.107   2.871   4.970 -0.0184 -0.6607 -0.0817
   46MOL   H23813828   8.095   3.206   5.175  0.0624  0.7756 -0.3115
   46MOL   H23913829   7.977   3.394   5.097 -0.5103  0.1160  0.3990
   46MOL   H24013830   7.849   3.375   4.880 -2.9401 -2.1460 -0.4566
   46MOL   H24113831   7.897   3.182   4.730  0.6104  0.8300  0.0920
   46MOL   C24213832   0.133   2.950   5.022  0.0898  0.7187  0.5936
   46MOL   C24313833   0.204   2.989   4.888  0.0602 -0.0139  0.3561
   46MOL   C24413834   0.357   2.985   4.900 -0.0358 -0.0276  0.7407
   46MOL   C24513835   0.436   3.103   4.886  0.6132  0.3031 -0.6353
   46MOL   C24613836   0.573   3.094   4.906  1.0583 -0.3386 -0.9490
   46MOL   C24713837   0.629   2.972   4.942 -0.3678 -0.2798  0.5003
   46MOL   C24813838   0.543   2.859   4.956 -0.2423  0.5190 -0.0839
   46MOL   N24913839   0.409   2.866   4.931  0.0100  0.3213  0.1473
   46MOL   H25013840   0.169   2.852   5.053  0.1347  0.7526  0.6507
   46MOL   H25113841   0.174   3.020   5.095 -1.2021  0.5214  1.5278
   46MOL   H25213842   0.188   3.096   4.870 -1.8176 -0.5356 -1.2528
   46MOL   H25313843   0.389   3.200   4.871  0.3640  0.7344  2.6768
   46MOL   H25413844   0.626   3.189   4.901  0.2253  0.2056  0.4390
   46MOL   H25513845   0.736   2.971   4.954  0.1147  0.8134 -3.0377
   46MOL   H25613846   0.587   2.763   4.977  1.4147  1.0131 -1.1786
   46MOL   C25713847   0.165   2.920   4.753 -0.0142  0.0633 -0.4471
   46MOL   C25813848   0.188   3.010   4.624  0.3494  0.0694  0.0273
   46MOL   C25913849   0.192   2.920   4.499  0.1386 -0.8228  0.0279
   46MOL   C26013850   0.303   2.908   4.421  0.2102 -0.3211 -0.3400
   46MOL   C26113851   0.301   2.836   4.304  0.0341  0.2233 -0.2595
   46MOL   C26213852   0.178   2.775   4.267 -0.7201 -0.1279  0.1509
   46MOL   C26313853   0.077   2.782   4.362  0.4588 -0.2362  0.0328
   46MOL   N26413854   0.082   2.853   4.475  0.5216  0.7573 -0.0589
   46MOL   H26513855   0.062   2.888   4.768  0.0612 -0.3789 -0.8328
   46MOL   H26613856   0.220   2.826   4.744 -1.0027 -0.8046  2.2344
   46MOL   H26713857   0.285   3.059   4.631 -0.8185  2.1226  2.4790
   46MOL   H26813858   0.395   2.956   4.452 -0.1217 -0.7244  1.3318
   46MOL   H26913859   0.386   2.841   4.238  1.3778 -0.5341  1.3595
   46MOL   H27013860   0.180   2.708   4.183  1.4022  0.3578 -0.2164
   46MOL   H27113861   8.143   2.718   4.353 -0.3259  0.8868 -0.5833
   46MOL   C27213862   0.088   3.128   4.609  0.7826  1.1806 -0.9151
   46MOL   C27313863   0.067   3.210   4.481 -0.1547 -0.3090 -0.7429
   46MOL   C27413864   8.090   3.290   4.485 -0.6365  0.1003 -1.1307
   46MOL   C27513865   7.995   3.274   4.386  0.7092  0.1060 -0.3553
   46MOL   C27613866   7.868   3.330   4.400 -0.0842  0.4743 -0.3814
   46MOL   C27713867   7.845   3.427   4.501 -0.9283 -0.6277 -0.1186
   46MOL   C27813868   7.951   3.440   4.593  0.4098  0.3450 -0.2122
   46MOL   N27913869   8.064   3.369   4.593 -0.4700  0.3260  0.0880
   46MOL   H28013870   0.099   3.191   4.697  2.3385 -1.1369  0.6207
   46MOL   H28113871   8.143   3.084   4.632  0.8394  0.6456 -1.6858
   46MOL   H28213872   0.056   3.143   4.396 -0.1105 -0.6085 -0.5117
   46MOL   H28313873   8.016   3.205   4.305 -0.5071 -2.3950  1.4026
   46MOL   H28413874   7.795   3.304   4.325 -0.1925  1.7022 -0.7034
   46MOL   H28513875   7.750   3.478   4.509 -0.0466  1.2874 -1.4750
   46MOL   H28613876   7.957   3.504   4.680 -0.2531 -0.7705  0.6606
   46MOL   C28713877   0.188   3.312   4.473  1.1447  1.0365 -0.0069
   46MOL   C28813878   0.177   3.426   4.370  0.1546  0.0805 -0.6604
   46MOL   C28913879   0.200   3.378   4.228 -0.1948  0.4344 -0.1973
   46MOL   C29013880   0.333   3.386   4.170  0.1639  0.1816  0.5502
   46MOL   C29113881   0.346   3.348   4.039  0.3616  0.7903 -0.1323
   46MOL   C29213882   0.235   3.296   3.970 -0.4598  0.0649  0.0507
   46MOL   C29313883   0.107   3.294   4.040 -0.6418  0.1350 -0.8850
   46MOL   N29413884   0.091   3.330   4.165 -0.3109 -0.3778 -0.3097
   46MOL   H29513885   0.284   3.263   4.461  0.0018 -0.3156 -4.8209
   46MOL   H29613886   0.196   3.369   4.566 -0.1408  1.1628  0.0373
   46MOL   H29713887   0.255   3.501   4.387 -0.4483  0.6337 -0.3352
   46MOL   H29813888   0.420   3.409   4.228  1.2338  0.9499 -1.3211
   46MOL   H29913889   0.439   3.348   3.985  1.0180  0.1400  0.9802
   46MOL   H30013890   0.253   3.267   3.868 -1.1591 -0.8444  0.1798
   46MOL   H30113891   0.015   3.264   3.993 -0.4813 -1.1908 -0.3590
   46MOL   H30213892   0.089   3.490   4.377 -0.2742 -0.6585  0.8368
   47MOL     C113893   3.430   5.961   2.022 -0.2597 -0.7493  0.2835
   47MOL     C213894   3.343   5.841   2.051 -0.3958  0.7923  0.7844
   47MOL     C313895   3.240   5.861   2.158 -0.0354 -0.0171  0.6470
   47MOL     C413896   3.232   5.770   2.266  0.2310  0.0786  0.4050
   47MOL     C513897   3.139   5.798   2.367  0.2360 -0.1344 -0.6717
   47MOL     C613898   3.069   5.923   2.361  0.2672 -0.5525  0.4349
   47MOL     C713899   3.086   6.005   2.249  0.5877 -0.2145 -0.1169
   47MOL     N813900   3.161   5.973   2.142  0.7687  0.7784  0.0699
   47MOL     H913901   3.498   5.942   1.938 -0.8089  1.5725 -0.7274
   47MOL    H1013902   3.369   6.047   1.996 -0.7490 -1.3574 -0.6347
   47MOL    H1113903   3.417   5.767   2.080 -0.6608  0.7682  1.4054
   47MOL    H1213904   3.281   5.675   2.254  1.2883  0.5714  0.6952
   47MOL    H1313905   3.131   5.731   2.451 -0.5923 -0.8058 -1.2878
   47MOL    H1413906   2.999   5.941   2.441  1.6755 -0.9506  1.7846
   47MOL    H1513907   3.025   6.093   2.237 -2.0597 -2.0624 -0.7226
   47MOL    H1613908   3.485   5.989   2.112  1.3004 -0.2582 -0.8006
   47MOL    C1713909   3.278   5.784   1.919 -0.0592  0.2632  0.3520
   47MOL    C1813910   3.371   5.699   1.821  0.0203 -0.0434 -0.1154
   47MOL    C1913911   3.435   5.583   1.904  0.1765 -0.4954 -0.3280
   47MOL    C2013912   3.574   5.563   1.898 -0.0070  0.6909  0.3780
   47MOL    C2113913   3.620   5.445   1.958 -0.0121 -0.0690 -0.8722
   47MOL    C2213914   3.535   5.354   2.024 -0.5436 -0.3267  0.2097
   47MOL    C2313915   3.401   5.387   2.031 -0.3785 -0.4236 -0.2772
   47MOL    N2413916   3.353   5.504   1.976  0.2459  0.6840  0.3644
   47MOL    H2513917   3.236   5.868   1.863  0.4043  0.9076  0.9589
   47MOL    H2613918   3.196   5.721   1.954  1.9850 -1.5383  1.9874
   47MOL    H2713919   3.444   5.771   1.784 -1.6986  1.1706 -1.2120
   47MOL    H2813920   3.638   5.631   1.844  1.0860 -0.2376  0.4795
   47MOL    H2913921   3.726   5.426   1.950 -0.2849 -1.7570 -0.5807
   47MOL    H3013922   3.573   5.279   2.092 -2.3422 -0.7345  0.8086
   47MOL    H3113923   3.332   5.319   2.079 -0.5403 -0.6335 -0.8061
   47MOL    C3213924   3.300   5.623   1.701  0.0877  0.9097 -0.5777
   47MOL    C3313925   3.250   5.715   1.588 -0.3330 -0.5721  0.6312
   47MOL    C3413926   3.359   5.763   1.493 -0.1036  1.2093  0.6875
   47MOL    C3513927   3.398   5.898   1.480  0.2313  0.5327 -0.2834
   47MOL    C3613928   3.498   5.928   1.390  0.6566 -0.0634  0.7523
   47MOL    C3713929   3.555   5.827   1.322  0.4589 -0.0559  0.2487
   47MOL    C3813930   3.513   5.696   1.342 -0.9504 -0.2973 -0.5953
   47MOL    N3913931   3.413   5.663   1.426 -0.3737  0.5212  0.0930
   47MOL    H4013932   3.219   5.563   1.743  1.5003 -0.4083  0.3341
   47MOL    H4113933   3.350   5.541   1.649 -2.8804 -1.2546 -0.1704
   47MOL    H4213934   3.199   5.807   1.616 -1.4133 -0.4973 -1.4542
   47MOL    H4313935   3.355   5.977   1.538  0.5397  0.6092 -0.1565
   47MOL    H4413936   3.525   6.031   1.369 -0.1352  0.0118  0.0909
   47MOL    H4513937   3.617   5.852   1.237  0.7626 -1.2277  0.1145
   47MOL    H4613938   3.560   5.618   1.284  1.3235  0.3104  0.3373
   47MOL    C4713939   3.133   5.644   1.510 -0.5375  1.3996 -0.0800
   47MOL    C4813940   3.007   5.597   1.591  0.2025  0.0252 -0.4311
   47MOL    C4913941   2.932   5.713   1.666 -0.5576 -0.2954 -0.0231
   47MOL    C5013942   2.832   5.780   1.601  0.4349 -0.4246  0.2673
   47MOL    C5113943   2.776   5.895   1.660 -0.3818 -0.6004 -0.8999
   47MOL    C5213944   2.828   5.936   1.783  0.5757  0.0625 -0.4789
   47MOL    C5313945   2.937   5.865   1.840 -0.3553 -0.7011 -0.0247
   47MOL    N5413946   2.989   5.760   1.784 -0.0419  0.5078  0.4915
   47MOL    H5513947   3.177   5.554   1.465 -0.9831  0.8430  0.5791
   47MOL    H5613948   3.105   5.720   1.437  0.5641  1.0762 -0.8570
   47MOL    H5713949   3.027   5.525   1.670  1.3784  1.8371  0.9642
   47MOL    H5813950   2.787   5.747   1.508  1.5784  1.2067 -0.8879
   47MOL    H5913951   2.697   5.955   1.617 -1.3814 -0.5611  0.9472
   47MOL    H6013952   2.780   6.018   1.834  1.6979 -0.2660  1.1613
   47MOL    H6113953   2.983   5.909   1.927 -0.7093  0.9353 -0.6460
   47MOL    C6213954   2.918   5.509   1.500  0.6669 -0.2526  0.6024
   47MOL    C6313955   2.775   5.467   1.553 -0.1993  0.5634 -0.3026
   47MOL    C6413956   2.666   5.501   1.456 -0.4132 -0.2387 -0.0626
   47MOL    C6513957   2.550   5.561   1.510 -0.2645  0.7879  0.2298
   47MOL    C6613958   2.443   5.573   1.420 -0.5270  0.0367 -0.0204
   47MOL    C6713959   2.453   5.533   1.284 -0.1708 -0.3939 -1.3660
   47MOL    C6813960   2.572   5.476   1.247  0.1707  0.2886  0.5304
   47MOL    N6913961   2.678   5.457   1.331 -0.1194  0.7523 -1.1304
   47MOL    H7013962   2.963   5.422   1.452  1.3391  1.9132 -2.8370
   47MOL    H7113963   2.904   5.575   1.415 -0.9763 -1.1437  0.1530
   47MOL    H7213964   2.753   5.529   1.640 -1.4727 -1.1087  0.5999
   47MOL    H7313965   2.548   5.582   1.616  1.1520 -1.5890  0.7522
   47MOL    H7413966   2.351   5.623   1.448  0.2329  2.1227 -1.1635
   47MOL    H7513967   2.366   5.537   1.220 -0.9650 -1.1124 -0.3608
   47MOL    H7613968   2.588   5.445   1.144  1.2839 -3.5012  1.7624
   47MOL    C7713969   2.752   5.319   1.601  0.2546  0.4323 -0.6707
   47MOL    C7813970   2.853   5.284   1.712  0.1405 -0.2614  0.3004
   47MOL    C7913971   2.845   5.371   1.838 -0.8877 -0.1086  1.0914
   47MOL    C8013972   2.967   5.410   1.900 -0.0895  0.5924  0.4673
   47MOL    C8113973   2.961   5.496   2.010  0.2000  0.1002 -0.0819
   47MOL    C8213974   2.836   5.539   2.056 -0.2753  0.5359  0.2713
   47MOL    C8313975   2.721   5.494   1.987 -0.2077 -0.4531  0.2103
   47MOL    N8413976   2.726   5.406   1.887  1.0367  0.4213  0.3072
   47MOL    H8513977   2.754   5.247   1.519  0.8234 -3.5000  2.6460
   47MOL    H8613978   2.649   5.312   1.635  0.5917 -1.0343  0.0831
   47MOL    H8713979   2.946   5.320   1.669  0.6853 -3.2586 -1.1780
   47MOL    H8813980   3.062   5.382   1.856 -0.4996 -0.3037  0.1382
   47MOL    H8913981   3.051   5.533   2.055  0.8170 -3.0754  1.4051
   47MOL    H9013982   2.836   5.606   2.141  0.6277  1.7217 -0.6431
   47MOL    H9113983   2.627   5.538   2.017 -0.8746 -1.4767 -0.3252
   47MOL    C9213984   2.866   5.135   1.746 -0.0514  0.9175  0.5806
   47MOL    C9313985   2.959   5.046   1.661  0.4404 -0.2199  0.6617
   47MOL    C9413986   3.085   5.124   1.620  0.4500 -0.7082 -0.1405
   47MOL    C9513987   3.101   5.154   1.487  0.2057  0.4424 -0.2039
   47MOL    C9613988   3.199   5.250   1.449  0.3402  0.6889  0.0811
   47MOL    C9713989   3.284   5.302   1.551 -0.0977  0.0154  0.6684
   47MOL    C9813990   3.263   5.254   1.683  1.1319 -0.2594 -0.5831
   47MOL    N9913991   3.162   5.170   1.719  0.3538  0.2126 -0.4879
   47MOL   H10013992   2.769   5.097   1.777 -1.2210  1.7720 -1.8851
   47MOL   H10113993   2.932   5.142   1.833 -0.6824  0.7319  1.0750
   47MOL   H10213994   2.917   5.013   1.566  0.4854 -1.2904  1.0084
   47MOL   H10313995   3.043   5.100   1.414  1.2054  2.0083 -2.1959
   47MOL   H10413996   3.212   5.272   1.344  1.2714 -3.3226 -0.7432
   47MOL   H10513997   3.367   5.363   1.518 -0.2109 -0.1663  0.0290
   47MOL   H10613998   3.325   5.295   1.762 -0.3362 -0.0718  0.4880
   47MOL   C10713999   3.010   4.920   1.729 -0.1494  0.0117 -0.4249
   47MOL   C10814000   2.902   4.805   1.743  0.0572  0.4469  0.3053
   47MOL   C10914001   2.886   4.728   1.616 -0.3138 -0.3920  0.4987
   47MOL   C11014002   2.763   4.716   1.558  1.0610 -0.6282  0.1819
   47MOL   C11114003   2.752   4.646   1.443  0.7772  0.4963 -0.7466
   47MOL   C11214004   2.866   4.584   1.398  0.1970 -0.1534  0.0576
   47MOL   C11314005   2.987   4.608   1.455 -0.4036 -0.2072  0.0606
   47MOL   N11414006   3.001   4.680   1.567 -0.1428  0.0877 -0.9154
   47MOL   H11514007   3.036   4.942   1.832  0.0988 -0.5010 -0.3729
   47MOL   H11614008   3.099   4.881   1.681  0.0030  0.6392 -0.6582
   47MOL   H11714009   2.807   4.857   1.755 -1.2857 -1.6508 -0.9595
   47MOL   H11814010   2.672   4.757   1.599  1.3865 -0.3434  0.6310
   47MOL   H11914011   2.669   4.646   1.374 -0.2466  0.6631  0.4591
   47MOL   H12014012   2.871   4.525   1.308  4.1610  1.1369 -0.6584
   47MOL   H12114013   3.073   4.570   1.403  1.4972  4.0451 -0.1758
   47MOL   C12214014   2.927   4.700   1.859  0.0417 -0.0059  0.1940
   47MOL   C12314015   2.865   4.741   1.991 -0.4689  0.0257 -0.2598
   47MOL   C12414016   2.716   4.775   1.989 -0.2831 -0.3241 -0.1229
   47MOL   C12514017   2.668   4.909   1.978  0.7971  0.3342  0.2649
   47MOL   C12614018   2.526   4.931   1.957 -0.1880 -0.0763  0.1310
   47MOL   C12714019   2.441   4.815   1.951 -0.4666 -0.2410  0.2827
   47MOL   C12814020   2.496   4.689   1.968  0.1559  0.2709  0.1707
   47MOL   N12914021   2.628   4.671   1.990 -0.3122 -0.0996  0.4715
   47MOL   H13014022   3.034   4.681   1.867 -0.0693 -0.4440  0.5914
   47MOL   H13114023   2.896   4.599   1.834 -0.1582  0.2732 -0.7438
   47MOL   H13214024   2.921   4.829   2.023  0.4787 -0.1486 -1.3849
   47MOL   H13314025   2.738   4.991   1.974  0.1656  0.9740  1.9683
   47MOL   H13414026   2.487   5.031   1.942  0.0320 -0.1534 -1.0113
   47MOL   H13514027   2.334   4.820   1.937 -0.1728  2.1718 -1.2962
   47MOL   H13614028   2.430   4.603   1.963  0.7219 -0.1878  0.5153
   47MOL   C13714029   2.915   4.653   2.101  0.3060 -0.7158 -0.1004
   47MOL   C13814030   2.849   4.663   2.237  0.1109 -0.3989  0.3268
   47MOL   C13914031   2.891   4.544   2.319  0.1373 -0.6049  0.4825
   47MOL   C14014032   2.814   4.427   2.308 -0.1435  0.0983  0.0525
   47MOL   C14114033   2.859   4.308   2.364  0.5437 -0.7705  0.8150
   47MOL   C14214034   2.981   4.300   2.425 -1.0715  0.7779 -1.4884
   47MOL   C14314035   3.055   4.420   2.432  0.7340 -0.0862  0.1886
   47MOL   N14414036   3.013   4.540   2.374  0.3009  0.2989  0.0816
   47MOL   H14514037   3.022   4.664   2.119 -0.2174  1.0217  2.2720
   47MOL   H14614038   2.891   4.549   2.078 -1.4661 -0.1693 -0.8479
   47MOL   H14714039   2.743   4.651   2.215 -0.1634  0.3796  1.1975
   47MOL   H14814040   2.713   4.434   2.269 -0.6049  0.9442  1.3442
   47MOL   H14914041   2.804   4.215   2.364 -2.6033  1.0204 -0.2025
   47MOL   H15014042   3.020   4.205   2.457 -0.1020  2.1251  1.5219
   47MOL   H15114043   3.155   4.421   2.474  0.5226  1.1852  0.6822
   47MOL   C15214044   2.860   4.801   2.295  0.1970  0.0950  0.1666
   47MOL   C15314045   2.993   4.865   2.356 -0.2104 -0.2336 -0.4346
   47MOL   C15414046   3.077   4.923   2.240  0.4004 -0.0999  0.0256
   47MOL   C15514047   3.195   4.855   2.188 -0.3959  0.4578  0.6214
   47MOL   C15614048   3.266   4.908   2.079 -0.1756 -0.2459  0.3139
   47MOL   C15714049   3.222   5.028   2.025  0.5237 -0.2897  0.1627
   47MOL   C15814050   3.107   5.096   2.083 -1.3028 -0.2846  0.6559
   47MOL   N15914051   3.036   5.037   2.185  0.5643  0.5047 -0.0303
   47MOL   H16014052   2.788   4.805   2.377  2.9141 -1.3136  2.7117
   47MOL   H16114053   2.813   4.876   2.231  1.3216 -0.7681 -1.7014
   47MOL   H16214054   3.056   4.780   2.385 -1.4988 -0.9028  0.4874
   47MOL   H16314055   3.232   4.769   2.241 -1.1159  0.7992  1.6893
   47MOL   H16414056   3.345   4.850   2.033 -1.3366  0.3818 -2.5928
   47MOL   H16514057   3.281   5.088   1.958 -0.3523  1.1789  0.6969
   47MOL   H16614058   3.096   5.197   2.047 -0.1954 -0.4128 -0.0754
   47MOL   C16714059   2.965   4.969   2.468 -0.3241  0.3106 -0.1769
   47MOL   C16814060   2.900   4.900   2.597 -0.1846  0.6378  0.1131
   47MOL   C16914061   2.999   4.810   2.679 -0.2069  0.1396 -0.5298
   47MOL   C17014062   3.143   4.821   2.666 -0.4493 -0.0780 -0.2100
   47MOL   C17114063   3.220   4.735   2.746 -0.1043  0.2446  0.7132
   47MOL   C17214064   3.153   4.643   2.824 -0.5239 -0.1370  0.6690
   47MOL   C17314065   3.015   4.640   2.830  0.5598  0.6696  0.2552
   47MOL   N17414066   2.937   4.718   2.751  0.3213 -0.2717  0.3458
   47MOL   H17514067   2.901   5.044   2.422 -2.3841 -0.2258  1.7304
   47MOL   H17614068   3.057   5.023   2.490 -0.1391 -0.1703  0.2377
   47MOL   H17714069   2.819   4.831   2.574  0.6002  0.2024 -1.4430
   47MOL   H17814070   3.189   4.881   2.589  0.4140 -2.5613 -1.6777
   47MOL   H17914071   3.327   4.750   2.740 -0.2985  0.8849 -1.4614
   47MOL   H18014072   3.212   4.575   2.883  1.5124  2.5273  1.7880
   47MOL   H18114073   2.960   4.568   2.890 -2.5870  0.2585 -2.9639
   47MOL   C18214074   2.855   4.997   2.702  1.5488 -0.7758 -0.1594
   47MOL   C18314075   2.728   5.080   2.666  0.1677 -0.3328  0.0370
   47MOL   C18414076   2.623   4.992   2.601 -0.4808  0.3049  0.6181
   47MOL   C18514077   2.608   4.996   2.466 -0.1425  0.6973 -0.2415
   47MOL   C18614078   2.519   4.912   2.393  0.0807  0.1870 -0.1629
   47MOL   C18714079   2.477   4.803   2.465 -0.1583 -0.6258 -0.2960
   47MOL   C18814080   2.492   4.801   2.606  0.0726  0.4469 -0.1206
   47MOL   N18914081   2.564   4.893   2.673 -0.0948 -0.0919  0.0590
   47MOL   H19014082   2.940   5.061   2.726  0.7079 -0.1267  1.2040
   47MOL   H19114083   2.828   4.942   2.792  1.7321  0.2346  0.5203
   47MOL   H19214084   2.765   5.146   2.588  1.0288  0.3022  0.9797
   47MOL   H19314085   2.662   5.078   2.419  1.8934 -0.1036  0.6572
   47MOL   H19414086   2.507   4.931   2.287 -0.4616  1.2904  0.0845
   47MOL   H19514087   2.433   4.712   2.428 -0.2163 -0.9061  0.4623
   47MOL   H19614088   2.455   4.713   2.656 -1.3336  1.5577  0.8255
   47MOL   C19714089   2.675   5.172   2.782  0.7784  0.4340  0.0057
   47MOL   C19814090   2.770   5.278   2.847  0.2616 -0.5356  0.9156
   47MOL   C19914091   2.797   5.400   2.758 -0.2429 -0.0659  0.0269
   47MOL   C20014092   2.925   5.418   2.693 -0.8071 -0.2385 -0.2535
   47MOL   C20114093   2.940   5.532   2.613  0.1599  0.0751 -0.3145
   47MOL   C20214094   2.838   5.620   2.595  0.5261 -0.0577  0.4497
   47MOL   C20314095   2.716   5.597   2.661  0.0179  0.3998  0.2776
   47MOL   N20414096   2.693   5.485   2.742  0.7099  0.2650  0.2089
   47MOL   H20514097   2.641   5.103   2.859 -0.2265  1.7205  0.7168
   47MOL   H20614098   2.583   5.223   2.756 -0.3340 -1.4653  0.1021
   47MOL   H20714099   2.871   5.238   2.855  1.5607  2.4555  0.0986
   47MOL   H20814100   3.010   5.352   2.698 -1.1691 -0.8090 -1.4562
   47MOL   H20914101   3.037   5.551   2.570  0.9229  0.2346  1.4324
   47MOL   H21014102   2.847   5.712   2.538  0.7429  0.1995  0.8995
   47MOL   H21114103   2.629   5.661   2.659  0.0861  0.4791 -0.4274
   47MOL   C21214104   2.726   5.322   2.987  0.7209 -0.2062 -0.0420
   47MOL   C21314105   2.751   5.222   3.101 -0.2952 -0.4507  0.3404
   47MOL   C21414106   2.896   5.173   3.096  0.2351  0.2849  0.3532
   47MOL   C21514107   2.923   5.046   3.039  0.6139  0.1318  0.1974
   47MOL   C21614108   3.057   5.018   3.008  0.4842 -0.6619  0.0236
   47MOL   C21714109   3.158   5.107   3.048  0.1311  0.3912  0.1702
   47MOL   C21814110   3.121   5.231   3.103  0.6365 -0.1130  0.3322
   47MOL   N21914111   2.992   5.269   3.124 -0.7025 -0.8808  0.9949
   47MOL   H22014112   2.620   5.343   2.975  0.9507 -0.0265 -1.9554
   47MOL   H22114113   2.772   5.413   3.027  0.5472 -0.2034  0.1564
   47MOL   H22214114   2.683   5.140   3.081 -1.3524  0.0179  1.8652
   47MOL   H22314115   2.849   4.968   3.032 -1.4359  2.0894 -0.6310
   47MOL   H22414116   3.089   4.922   2.970  0.8958  0.0608 -1.4847
   47MOL   H22514117   3.259   5.074   3.033 -0.4754 -0.8035 -1.5615
   47MOL   H22614118   3.198   5.293   3.147  0.6642  1.3850 -1.7688
   47MOL   C22714119   2.714   5.277   3.233 -0.1863 -0.7485 -0.3113
   47MOL   C22814120   2.714   5.173   3.347  0.1365 -0.2573 -0.1845
   47MOL   C22914121   2.733   5.247   3.478  0.4659  0.3727  0.2378
   47MOL   C23014122   2.857   5.247   3.548  0.1060 -0.3776 -0.5202
   47MOL   C23114123   2.861   5.311   3.675 -0.7354 -0.4503  0.0722
   47MOL   C23214124   2.752   5.390   3.712 -0.7064 -0.1381 -0.2147
   47MOL   C23314125   2.635   5.381   3.635 -0.4516  0.0634 -0.6905
   47MOL   N23414126   2.619   5.309   3.521 -0.2326 -0.5694  0.4268
   47MOL   H23514127   2.618   5.329   3.230  1.5853  2.6310 -0.2354
   47MOL   H23614128   2.786   5.352   3.265 -2.3283  0.8882  0.7880
   47MOL   H23714129   2.804   5.114   3.329 -0.6906 -0.3709 -4.5465
   47MOL   H23814130   2.944   5.195   3.511  0.1473 -0.1895 -0.6906
   47MOL   H23914131   2.944   5.300   3.742 -0.0463  0.7615 -0.5659
   47MOL   H24014132   2.753   5.450   3.801 -0.7236 -2.6420  1.5435
   47MOL   H24114133   2.548   5.441   3.659 -0.1592 -0.1236  0.9207
   47MOL   C24214134   2.595   5.077   3.336 -0.8264  0.6500  0.2256
   47MOL   C24314135   2.563   4.977   3.452  0.0586  0.2425  0.2048
   47MOL   C24414136   2.408   4.973   3.457  0.7849 -0.0006 -1.3370
   47MOL   C24514137   2.324   5.068   3.526 -0.4687  0.3928 -0.2512
   47MOL   C24614138   2.186   5.049   3.522  0.9734 -0.2876 -0.1619
   47MOL   C24714139   2.132   4.945   3.447  0.2720  0.0755 -0.5682
   47MOL   C24814140   2.221   4.861   3.380  0.5106  0.3205  0.0570
   47MOL   N24914141   2.357   4.871   3.388 -0.1875  0.2544  0.3394
   47MOL   H25014142   2.585   5.029   3.238 -0.6828 -0.1206  0.5813
   47MOL   H25114143   2.509   5.143   3.342 -0.8166  0.5458  1.5878
   47MOL   H25214144   2.600   5.026   3.542 -1.4083 -2.4679  2.3345
   47MOL   H25314145   2.359   5.157   3.577 -1.3768 -0.4617  1.9292
   47MOL   H25414146   2.120   5.120   3.570  2.3455  1.1918 -0.4136
   47MOL   H25514147   2.025   4.927   3.442  0.2749  0.2321 -1.1919
   47MOL   H25614148   2.182   4.772   3.332  0.3344  0.0213  0.7427
   47MOL   C25714149   2.637   4.837   3.430  0.5169 -0.8841  1.2187
   47MOL   C25814150   2.778   4.820   3.489  0.1256 -0.1524  0.1697
   47MOL   C25914151   2.791   4.860   3.635 -0.3302 -0.2239  0.1982
   47MOL   C26014152   2.716   4.794   3.735  0.2826 -1.2510  0.6853
   47MOL   C26114153   2.750   4.828   3.868  0.2172  0.0400 -0.9776
   47MOL   C26214154   2.860   4.911   3.898  0.0391 -0.3660  0.0105
   47MOL   C26314155   2.928   4.964   3.791  0.3514 -0.4934  0.4522
   47MOL   N26414156   2.895   4.942   3.663 -0.4488  0.1924  0.5232
   47MOL   H26514157   2.647   4.822   3.323 -1.1056 -0.2902  0.9852
   47MOL   H26614158   2.578   4.756   3.472 -2.0998  0.5986  0.4730
   47MOL   H26714159   2.846   4.886   3.435  2.0290 -0.0531  2.5875
   47MOL   H26814160   2.634   4.730   3.705  0.5403 -0.5850 -1.5403
   47MOL   H26914161   2.688   4.778   3.942 -1.4518  2.0417 -0.9804
   47MOL   H27014162   2.892   4.930   3.999 -3.2606  0.3750  0.9752
   47MOL   H27114163   3.017   5.024   3.804 -0.9780  1.3195  1.5148
   47MOL   C27214164   2.833   4.674   3.473  0.1491 -0.3891 -0.2231
   47MOL   C27314165   2.888   4.643   3.331  0.2366  0.1142  0.5043
   47MOL   C27414166   3.036   4.675   3.333  0.3961  0.0076  0.8230
   47MOL   C27514167   3.088   4.784   3.258  0.0663  0.3530 -0.3707
   47MOL   C27614168   3.227   4.805   3.267  0.2729  0.0125 -0.5384
   47MOL   C27714169   3.306   4.716   3.347  0.4177  0.3350  0.1806
   47MOL   C27814170   3.241   4.622   3.429 -0.1354  0.0835  0.6401
   47MOL   N27914171   3.109   4.598   3.416  0.3085  0.1897  0.5341
   47MOL   H28014172   2.748   4.609   3.492  0.1148 -0.2710  0.0322
   47MOL   H28114173   2.907   4.645   3.547 -1.3395 -0.1462  1.4008
   47MOL   H28214174   2.850   4.712   3.255  0.5614 -0.3882 -0.1165
   47MOL   H28314175   3.021   4.858   3.216  0.2835  1.0112  0.4381
   47MOL   H28414176   3.257   4.890   3.206 -0.0034  0.4397 -0.0870
   47MOL   H28514177   3.413   4.730   3.349  0.5976 -0.2199 -2.9487
   47MOL   H28614178   3.294   4.568   3.506  0.0943 -1.1431 -0.3632
   47MOL   C28714179   2.868   4.494   3.291  0.2738  0.2591 -0.2166
   47MOL   C28814180   2.729   4.452   3.260  0.9697 -0.0535  0.3073
   47MOL   C28914181   2.655   4.550   3.167 -0.2511 -0.1730  0.6136
   47MOL   C29014182   2.528   4.595   3.199  0.7644  0.2960  0.5406
   47MOL   C29114183   2.453   4.671   3.106 -0.1808 -0.3543  0.8821
   47MOL   C29214184   2.515   4.698   2.983 -0.1511  0.4725  0.5893
   47MOL   C29314185   2.641   4.643   2.954  0.3640 -0.0644  0.0198
   47MOL   N29414186   2.711   4.576   3.048  0.2975 -0.5996 -0.7680
   47MOL   H29514187   2.908   4.417   3.357 -0.1457 -0.5161 -0.8490
   47MOL   H29614188   2.924   4.482   3.199  1.6611 -0.9320  0.7592
   47MOL   H29714189   2.674   4.436   3.353  1.0461  1.2862  0.6020
   47MOL   H29814190   2.478   4.570   3.291 -2.0553 -0.4780 -1.1704
   47MOL   H29914191   2.362   4.726   3.128  1.3223  1.7270  2.0259
   47MOL   H30014192   2.465   4.768   2.918  2.4504  1.8436  0.0073
   47MOL   H30114193   2.686   4.664   2.859  0.8197  0.9277  0.4477
   47MOL   H30214194   2.733   4.358   3.205  0.9223 -0.6305  1.2958
   48MOL     C114195   3.607   7.148   7.444 -0.3668 -0.2994  0.0368
   48MOL     C214196   3.678   7.046   7.530 -0.0595  0.1245 -0.2726
   48MOL     C314197   3.781   6.963   7.457  0.1710  0.3422  0.6941
   48MOL     C414198   3.902   7.021   7.425 -0.2346 -0.6757  0.1979
   48MOL     C514199   4.008   6.950   7.372 -0.4120 -0.3118 -0.5111
   48MOL     C614200   3.984   6.813   7.361 -0.8030 -0.3004 -0.4721
   48MOL     C714201   3.857   6.763   7.392  0.1177  0.8522 -0.3078
   48MOL     N814202   3.754   6.834   7.446  0.1385  0.1361  0.1900
   48MOL     H914203   3.518   7.182   7.498  0.7011  0.7637  1.1521
   48MOL    H1014204   3.667   7.236   7.424  1.3905 -1.6593 -0.7765
   48MOL    H1114205   3.603   6.968   7.545  0.8129 -0.8251 -0.8589
   48MOL    H1214206   3.911   7.128   7.430 -1.6934 -0.5428  0.1767
   48MOL    H1314207   4.097   6.996   7.329 -0.4942 -0.7768 -1.1944
   48MOL    H1414208   4.050   6.740   7.316 -0.2202 -0.1671  0.1715
   48MOL    H1514209   3.835   6.658   7.376  3.8594  0.3100 -2.5017
   48MOL    H1614210   3.580   7.094   7.354 -0.8488  1.3082 -0.8067
   48MOL    C1714211   3.729   7.104   7.670  0.4698 -0.3028 -0.4057
   48MOL    C1814212   3.634   7.159   7.783 -0.2685 -0.7601 -0.0580
   48MOL    C1914213   3.517   7.068   7.806 -0.3863  0.7112 -0.1604
   48MOL    C2014214   3.391   7.128   7.834 -0.0482 -0.0730  0.3266
   48MOL    C2114215   3.286   7.034   7.860 -0.0690  0.3922 -0.3915
   48MOL    C2214216   3.316   6.897   7.860 -0.2733 -0.1181  0.2785
   48MOL    C2314217   3.447   6.853   7.835  0.1443  0.7531 -0.1081
   48MOL    N2414218   3.547   6.937   7.801  0.1092  0.3503 -0.3878
   48MOL    H2514219   3.798   7.187   7.652  0.1544  0.0268 -0.1175
   48MOL    H2614220   3.775   7.017   7.716  0.4471  0.3482  0.8838
   48MOL    H2714221   3.590   7.250   7.742 -1.9501 -1.5840 -0.1204
   48MOL    H2814222   3.375   7.234   7.830 -1.2207 -0.2886 -1.3126
   48MOL    H2914223   3.182   7.057   7.877 -0.7749 -2.6690 -0.3067
   48MOL    H3014224   3.238   6.830   7.893  1.1679 -1.9755 -0.0062
   48MOL    H3114225   3.476   6.749   7.832 -0.6044  0.5235  0.7086
   48MOL    C3214226   3.701   7.200   7.921  0.1169 -0.4450 -0.7782
   48MOL    C3314227   3.776   7.329   7.933 -0.8024  0.4206 -0.2192
   48MOL    C3414228   3.714   7.454   7.873  0.4361 -0.2805 -0.3714
   48MOL    C3514229   3.793   7.544   7.803 -0.0036  0.3005  0.5076
   48MOL    C3614230   3.746   7.665   7.755 -0.1915 -0.4307  0.0013
   48MOL    C3714231   3.613   7.702   7.792 -0.1458 -0.3524 -0.3357
   48MOL    C3814232   3.543   7.609   7.865  0.4759 -0.3828 -0.3880
   48MOL    N3914233   3.585   7.489   7.909 -0.4489 -0.3482  0.2154
   48MOL    H4014234   3.771   7.118   7.937 -0.6838 -1.1399 -0.7652
   48MOL    H4114235   3.623   7.196   7.997 -2.3603  3.1241 -2.9922
   48MOL    H4214236   3.864   7.304   7.874 -0.2686 -1.0181  1.1474
   48MOL    H4314237   3.899   7.527   7.790  0.2624 -0.1302  2.9466
   48MOL    H4414238   3.806   7.720   7.684  0.7109  0.5126  1.4452
   48MOL    H4514239   3.569   7.795   7.758  2.5677  1.2006  0.2174
   48MOL    H4614240   3.440   7.626   7.893 -0.0262 -0.1713 -2.3149
   48MOL    C4714241   3.819   7.354   8.080 -0.2516  0.2357 -1.0940
   48MOL    C4814242   3.941   7.265   8.119  0.5209 -0.3610 -0.1849
   48MOL    C4914243   4.071   7.321   8.055  0.0251  0.2628  0.2077
   48MOL    C5014244   4.154   7.236   7.981  0.4874  0.0623  0.4357
   48MOL    C5114245   4.272   7.284   7.929 -0.0533  0.1585  0.1824
   48MOL    C5214246   4.306   7.418   7.966  0.6210  0.8577  0.0500
   48MOL    C5314247   4.220   7.505   8.043  0.4941 -0.2001  0.2260
   48MOL    N5414248   4.104   7.448   8.089 -0.0639 -0.7803  0.1269
   48MOL    H5514249   3.738   7.337   8.151  0.4681 -1.0165 -0.5435
   48MOL    H5614250   3.853   7.457   8.085 -0.9680  0.3759  2.1090
   48MOL    H5714251   3.922   7.165   8.080 -0.0005  0.0079 -0.8956
   48MOL    H5814252   4.128   7.134   7.955  2.9515  0.1339 -2.5438
   48MOL    H5914253   4.339   7.222   7.872 -1.3747 -1.7758  0.6738
   48MOL    H6014254   4.392   7.471   7.928 -0.3334  2.0667 -0.4745
   48MOL    H6114255   4.250   7.607   8.062 -1.2520  0.7029 -1.6736
   48MOL    C6214256   3.973   7.246   0.116 -0.1267 -0.5464  0.5111
   48MOL    C6314257   3.872   7.156   0.189 -0.5196  0.0236 -0.1057
   48MOL    C6414258   3.842   7.024   0.109  0.2471 -0.4777  0.7832
   48MOL    C6514259   3.724   7.000   0.037  0.4554  0.8928 -0.3876
   48MOL    C6614260   3.712   6.884   8.102  0.1166  0.4049 -0.2967
   48MOL    C6714261   3.829   6.814   8.079  0.1743 -0.2118  0.0574
   48MOL    C6814262   3.943   6.843   0.002 -0.0422 -0.1246  0.6534
   48MOL    N6914263   3.950   6.942   0.094 -0.0620 -0.3078  0.1123
   48MOL    H7014264   3.976   7.345   0.162  0.0676  1.0404 -2.7533
   48MOL    H7114265   4.074   7.204   0.120 -0.3471 -1.2168 -0.5656
   48MOL    H7214266   3.773   7.201   0.201  0.6399  2.1205  2.0822
   48MOL    H7314267   3.641   7.070   0.034  1.5479  2.1534 -2.4256
   48MOL    H7414268   3.621   6.868   8.046  0.6748  1.6799 -1.5968
   48MOL    H7514269   3.827   6.730   8.010 -1.7201  0.0954 -0.2959
   48MOL    H7614270   4.031   6.782   8.139  0.6492  1.2361 -0.9560
   48MOL    C7714271   3.920   7.129   0.331  0.9492  0.0121 -0.6615
   48MOL    C7814272   3.932   7.241   0.435  0.0436  0.1487  0.3267
   48MOL    C7914273   3.793   7.305   0.450 -0.3429 -0.6586  0.0235
   48MOL    C8014274   3.757   7.428   0.380 -0.2296  0.8806 -0.9850
   48MOL    C8114275   3.628   7.484   0.402 -0.1217  0.4634  1.0792
   48MOL    C8214276   3.548   7.416   0.486 -0.4452 -0.3670 -0.2091
   48MOL    C8314277   3.589   7.290   0.539 -0.2952  0.0368 -0.5045
   48MOL    N8414278   3.708   7.235   0.528 -0.2591  0.1688  0.3061
   48MOL    H8514279   4.013   7.073   0.315  1.6386  0.9070  0.1649
   48MOL    H8614280   3.848   7.058   0.372  1.2895  0.8979  1.5489
   48MOL    H8714281   3.980   7.326   0.388 -0.4900  0.4541  0.3321
   48MOL    H8814282   3.828   7.479   0.317  0.2333  0.0318 -1.1569
   48MOL    H8914283   3.600   7.571   0.343  1.3349 -1.3534 -2.4135
   48MOL    H9014284   3.456   7.463   0.517 -0.4207  0.4950 -1.3992
   48MOL    H9114285   3.511   7.242   0.597 -1.1302 -1.1017 -2.5158
   48MOL    C9214286   4.005   7.200   0.567 -0.1353 -0.1376  0.2651
   48MOL    C9314287   4.156   7.170   0.547  0.1922 -0.0659  0.4133
   48MOL    C9414288   4.226   7.247   0.433 -0.7611 -0.8321 -0.3343
   48MOL    C9514289   4.283   7.171   0.327  0.3999  0.1695  0.4701
   48MOL    C9614290   4.359   7.232   0.229  0.2629  0.1109 -0.1227
   48MOL    C9714291   4.366   7.377   0.230  0.0085  0.2353 -0.3996
   48MOL    C9814292   4.303   7.440   0.336  0.7003  0.6660  0.1302
   48MOL    N9914293   4.239   7.378   0.438  0.8278 -0.1505 -0.3853
   48MOL   H10014294   3.946   7.116   0.603  0.5680 -0.4408  0.7221
   48MOL   H10114295   3.985   7.285   0.632  0.8954  0.7170 -0.4970
   48MOL   H10214296   4.153   7.068   0.509  2.1625  0.3093 -0.8080
   48MOL   H10314297   4.283   7.064   0.320 -0.5792  0.0939  1.4474
   48MOL   H10414298   4.402   7.177   0.147  1.4807  0.4035  0.2940
   48MOL   H10514299   4.422   7.442   0.165  0.2710 -0.0852 -0.4950
   48MOL   H10614300   4.306   7.547   0.342 -1.3517  0.7675 -0.1542
   48MOL   C10714301   4.236   7.177   0.682 -0.2025 -0.4666 -0.1410
   48MOL   C10814302   4.387   7.143   0.683 -0.2909 -0.0337  0.1107
   48MOL   C10914303   4.450   7.221   0.794 -0.2128  0.3995  0.2934
   48MOL   C11014304   4.530   7.335   0.775  0.4771  0.0386 -0.1902
   48MOL   C11114305   4.598   7.389   0.880 -0.3696 -1.0470 -0.0233
   48MOL   C11214306   4.575   7.336   1.001 -0.4181  0.2874 -0.4343
   48MOL   C11314307   4.478   7.239   1.024 -0.5025  0.2755  0.2700
   48MOL   N11414308   4.414   7.181   0.921  0.3544 -0.0549 -0.1395
   48MOL   H11514309   4.177   7.119   0.754  0.1062  0.4734  0.8781
   48MOL   H11614310   4.227   7.278   0.723 -1.5705 -0.3018 -0.8227
   48MOL   H11714311   4.435   7.184   0.594 -0.8644 -1.1713 -0.7378
   48MOL   H11814312   4.544   7.373   0.675  1.3614  0.3875  0.0646
   48MOL   H11914313   4.656   7.478   0.862 -2.3282  0.4388  0.7742
   48MOL   H12014314   4.631   7.376   1.084 -0.5720 -0.0515 -0.1678
   48MOL   H12114315   4.459   7.210   1.126  0.8921  0.0585  0.4676
   48MOL   C12214316   4.432   6.997   0.696  0.7826 -0.0706  1.2708
   48MOL   C12314317   4.442   6.919   0.562 -0.4235 -0.6187 -0.7819
   48MOL   C12414318   4.561   6.965   0.473  0.5353  0.0021  0.0279
   48MOL   C12514319   4.544   6.940   0.331 -0.3058 -0.2594  0.2420
   48MOL   C12614320   4.656   6.948   0.250  0.0211 -0.0357 -0.2324
   48MOL   C12714321   4.780   6.966   0.323  0.2655 -0.2543  0.4596
   48MOL   C12814322   4.785   6.997   0.459 -0.1961  0.0506  0.1891
   48MOL   N12914323   4.674   7.001   0.533 -0.1095 -0.5405 -0.9477
   48MOL   H13014324   4.362   6.952   0.766 -0.0142  0.2816  0.6978
   48MOL   H13114325   4.531   6.992   0.741  2.4214  1.7551 -1.9291
   48MOL   H13214326   4.356   6.946   0.502  0.3584  1.0763 -1.1802
   48MOL   H13314327   4.449   6.916   0.285 -0.1845  0.1880 -0.2536
   48MOL   H13414328   4.659   6.930   0.143 -1.1906 -1.0356 -0.1103
   48MOL   H13514329   4.872   6.949   0.269 -0.0150  2.2256 -0.8258
   48MOL   H13614330   4.882   7.013   0.504 -0.4380 -0.3086  0.8375
   48MOL   C13714331   4.444   6.768   0.580  1.0202  0.0715 -0.8066
   48MOL   C13814332   4.310   6.707   0.626  1.0589 -0.2242 -0.6607
   48MOL   C13914333   4.185   6.738   0.543 -0.1586  0.2184  0.9021
   48MOL   C14014334   4.071   6.801   0.605 -0.2836 -0.1237 -0.1540
   48MOL   C14114335   3.957   6.822   0.528  0.1021  0.5433  0.6625
   48MOL   C14214336   3.954   6.764   0.397  0.7280 -0.5270 -1.0274
   48MOL   C14314337   4.068   6.694   0.350  0.5449 -0.5273  0.0276
   48MOL   N14414338   4.177   6.680   0.422  0.9799  0.6010 -0.3516
   48MOL   H14514339   4.519   6.747   0.656 -0.9532 -1.2785  0.8026
   48MOL   H14614340   4.485   6.721   0.491 -0.5632  0.8585 -1.9707
   48MOL   H14714341   4.287   6.749   0.724  2.2239  1.0987 -0.9385
   48MOL   H14814342   4.076   6.847   0.703 -0.9353 -1.8468  0.6970
   48MOL   H14914343   3.877   6.882   0.568 -0.5324 -0.8026  1.4600
   48MOL   H15014344   3.871   6.785   0.332 -0.1988  0.8771  0.5572
   48MOL   H15114345   4.067   6.654   0.249  0.1887  1.1625 -0.6659
   48MOL   C15214346   4.318   6.556   0.660  0.0214  0.6230 -0.0420
   48MOL   C15314347   4.371   6.514   0.794  0.2343 -0.2234  0.0425
   48MOL   C15414348   4.269   6.553   0.902  0.6287 -0.5125  0.7315
   48MOL   C15514349   4.313   6.612   1.017 -0.5922  0.2254 -0.3401
   48MOL   C15614350   4.216   6.639   1.120 -0.1638  0.0356  0.1721
   48MOL   C15714351   4.083   6.598   1.095 -0.4730 -0.2648 -0.3898
   48MOL   C15814352   4.053   6.525   0.981  0.2470  0.5261 -0.7400
   48MOL   N15914353   4.141   6.512   0.883 -0.5444 -0.3215  0.6338
   48MOL   H16014354   4.382   6.513   0.583 -1.5264 -1.0881 -0.4035
   48MOL   H16114355   4.233   6.499   0.622 -0.3207  0.0359  1.5799
   48MOL   H16214356   4.463   6.567   0.818 -0.3123  0.8913 -0.2844
   48MOL   H16314357   4.418   6.623   1.039 -1.0464 -0.3507  2.3702
   48MOL   H16414358   4.244   6.685   1.213 -0.5558  2.1403 -0.7083
   48MOL   H16514359   4.012   6.591   1.176 -2.1151 -0.2549 -1.7851
   48MOL   H16614360   3.954   6.484   0.973  0.5928 -0.0980 -1.9202
   48MOL   C16714361   4.409   6.369   0.793 -0.7307  0.3850  0.9211
   48MOL   C16814362   4.563   6.346   0.782 -0.4451 -0.6137 -0.5268
   48MOL   C16914363   4.640   6.402   0.903 -0.4112 -0.1843 -0.4146
   48MOL   C17014364   4.743   6.495   0.885 -0.6978 -0.3784  0.0352
   48MOL   C17114365   4.791   6.560   0.996 -0.4470  0.5545 -0.0434
   48MOL   C17214366   4.751   6.510   1.124 -0.0022  0.4119 -0.6683
   48MOL   C17314367   4.659   6.409   1.130  0.3200  0.4337 -0.2376
   48MOL   N17414368   4.601   6.358   1.022  0.5395  0.4926 -0.0687
   48MOL   H17514369   4.350   6.312   0.722  1.5663 -1.5092  0.4933
   48MOL   H17614370   4.376   6.336   0.892  0.6393 -1.2782  0.8289
   48MOL   H17714371   4.587   6.408   0.695 -0.2280 -1.3665 -1.0050
   48MOL   H17814372   4.770   6.517   0.783 -0.5133 -2.4866 -0.3926
   48MOL   H17914373   4.873   6.629   0.982 -0.1743  0.3251  0.4010
   48MOL   H18014374   4.800   6.545   1.214  2.6160 -1.2612 -1.3807
   48MOL   H18114375   4.628   6.402   1.233 -2.5105 -0.2287 -1.0942
   48MOL   C18214376   4.596   6.190   0.772  0.6097  0.3800 -0.1213
   48MOL   C18314377   4.545   6.121   0.646 -0.0172  0.0785 -0.4678
   48MOL   C18414378   4.582   6.193   0.516 -0.1256 -0.1965 -0.1708
   48MOL   C18514379   4.483   6.273   0.460 -0.6474  0.5147 -0.8074
   48MOL   C18614380   4.529   6.338   0.340  0.5011  0.4957  0.0811
   48MOL   C18714381   4.660   6.326   0.290 -0.2077  0.6707  0.4053
   48MOL   C18814382   4.744   6.246   0.362  0.0129  0.4466  0.1208
   48MOL   N18914383   4.713   6.182   0.480  0.7293  0.1844  0.3349
   48MOL   H19014384   4.562   6.145   0.865  1.2848 -0.2791 -0.1888
   48MOL   H19114385   4.704   6.179   0.779  0.5351  0.8909  2.0251
   48MOL   H19214386   4.436   6.122   0.654 -0.3236 -1.4963 -3.5754
   48MOL   H19314387   4.387   6.287   0.506  0.2409  1.0786  0.9375
   48MOL   H19414388   4.459   6.389   0.275  0.7931 -1.6360 -1.9774
   48MOL   H19514389   4.690   6.361   0.193  0.6470  0.4461  0.5847
   48MOL   H19614390   4.847   6.235   0.330 -0.1805  0.8492 -0.6394
   48MOL   C19714391   4.558   5.973   0.635 -0.2384 -0.2120 -0.1667
   48MOL   C19814392   4.426   5.895   0.609  0.1569 -0.2616  0.0818
   48MOL   C19914393   4.371   5.921   0.467  1.0792  0.5505 -0.2635
   48MOL   C20014394   4.249   5.993   0.457 -0.1566  0.0509  0.0519
   48MOL   C20114395   4.199   6.014   0.324  0.3761  0.0843  0.4286
   48MOL   C20214396   4.268   5.957   0.218 -0.1014  0.4608  0.4205
   48MOL   C20314397   4.386   5.884   0.242  0.1421  0.0669 -0.7247
   48MOL   N20414398   4.439   5.869   0.364 -0.3377 -0.2996  0.5106
   48MOL   H20514399   4.621   5.941   0.718 -0.3889 -0.5425 -0.1775
   48MOL   H20614400   4.626   5.949   0.553 -0.0491  0.8071 -0.3135
   48MOL   H20714401   4.355   5.950   0.671  0.4157  1.3390 -1.0116
   48MOL   H20814402   4.194   6.021   0.546  0.5261  0.5122  0.3402
   48MOL   H20914403   4.108   6.071   0.310  0.2532 -0.3436 -0.5801
   48MOL   H21014404   4.222   5.972   0.122  0.8199  0.6738  0.0098
   48MOL   H21114405   4.424   5.820   0.163  0.3569  3.1684 -3.2560
   48MOL   C21214406   4.428   5.740   0.644 -0.5534 -0.0661  0.7453
   48MOL   C21314407   4.431   5.705   0.794 -0.1445  0.2157 -0.2152
   48MOL   C21414408   4.308   5.764   0.861 -0.0042 -0.0496  0.3405
   48MOL   C21514409   4.312   5.810   0.996 -0.0014  0.2745 -0.2032
   48MOL   C21614410   4.196   5.854   1.056 -0.5154 -0.4109 -0.3855
   48MOL   C21714411   4.083   5.869   0.978  0.0382 -0.4038  0.5370
   48MOL   C21814412   4.083   5.818   0.850  0.0048  0.3369 -0.0350
   48MOL   N21914413   4.187   5.759   0.790 -0.0015 -0.4613  0.0439
   48MOL   H22014414   4.513   5.697   0.591 -0.9494  0.5421 -0.3905
   48MOL   H22114415   4.340   5.693   0.601 -0.3084  0.2155 -0.0704
   48MOL   H22214416   4.512   5.761   0.840  0.3290  0.2578 -1.0800
   48MOL   H22314417   4.395   5.798   1.064 -0.1765  3.4683  0.6206
   48MOL   H22414418   4.208   5.890   1.157  1.3811 -2.6371  0.2306
   48MOL   H22514419   3.998   5.915   1.025 -0.6096 -1.8140  0.7576
   48MOL   H22614420   3.985   5.821   0.805  0.4726  2.3742 -1.0122
   48MOL   C22714421   4.449   5.558   0.826  0.4933 -0.3176 -0.3613
   48MOL   C22814422   4.582   5.497   0.778 -0.7258  0.1237  0.4205
   48MOL   C22914423   4.707   5.590   0.796  1.2355 -0.1524 -0.1045
   48MOL   C23014424   4.758   5.656   0.684  0.5888 -0.4904  0.2750
   48MOL   C23114425   4.863   5.752   0.699 -0.3314 -0.2295  0.2631
   48MOL   C23214426   4.902   5.784   0.831  0.0592  0.0409  0.0804
   48MOL   C23314427   4.838   5.709   0.933  0.5074  0.0694 -0.7149
   48MOL   N23414428   4.746   5.614   0.917 -0.2484  0.4969 -0.2202
   48MOL   H23514429   4.363   5.502   0.790  0.8737 -2.3982  1.8600
   48MOL   H23614430   4.449   5.549   0.935 -0.8540  1.5493 -0.1762
   48MOL   H23714431   4.574   5.486   0.670  1.1141  0.5807  0.2261
   48MOL   H23814432   4.730   5.635   0.582 -1.9204  0.0546  0.8227
   48MOL   H23914433   4.897   5.793   0.606 -0.7751  2.1069  1.1053
   48MOL   H24014434   4.971   5.861   0.860  1.5244 -1.1297 -0.2203
   48MOL   H24114435   4.878   5.725   1.032  1.8805 -1.4919 -0.9946
   48MOL   C24214436   4.602   5.359   0.829 -0.2240 -0.3778 -0.2303
   48MOL   C24314437   4.510   5.251   0.775 -0.6455  0.1989 -0.0691
   48MOL   C24414438   4.525   5.233   0.627 -0.6183  0.8251 -0.9003
   48MOL   C24514439   4.415   5.232   0.539  0.8810  0.7159  0.0497
   48MOL   C24614440   4.430   5.192   0.405 -1.2779  0.3815 -0.2270
   48MOL   C24714441   4.562   5.149   0.370 -1.2648 -0.4819  0.0030
   48MOL   C24814442   4.668   5.163   0.464 -0.0510 -0.2910 -0.0118
   48MOL   N24914443   4.653   5.204   0.590  0.5387  0.1839  0.1093
   48MOL   H25014444   4.597   5.366   0.938 -0.8783 -0.6649 -0.2440
   48MOL   H25114445   4.706   5.335   0.807  0.2038  2.4516 -1.5323
   48MOL   H25214446   4.405   5.270   0.800 -0.7031 -1.1193  0.7207
   48MOL   H25314447   4.320   5.257   0.584 -0.3856  0.0418 -2.1970
   48MOL   H25414448   4.348   5.191   0.335 -0.3564 -4.4278 -1.4394
   48MOL   H25514449   4.580   5.107   0.272 -1.3018 -2.9568  1.0017
   48MOL   H25614450   4.771   5.144   0.440 -0.4140 -0.4607 -1.5317
   48MOL   C25714451   4.528   5.109   0.839 -0.3829  0.0653 -0.1949
   48MOL   C25814452   4.500   5.105   0.989  0.0368 -0.0118  0.0649
   48MOL   C25914453   4.358   5.149   1.023 -0.2799  0.4373  0.0270
   48MOL   C26014454   4.334   5.279   1.080 -0.2878 -0.2867 -0.4077
   48MOL   C26114455   4.207   5.323   1.117 -0.1873 -0.2971  0.3934
   48MOL   C26214456   4.103   5.233   1.087  0.1022 -0.1687  0.8550
   48MOL   C26314457   4.130   5.107   1.028  0.7264 -0.3538 -0.0770
   48MOL   N26414458   4.256   5.067   0.993 -0.0306 -0.0723 -0.2088
   48MOL   H26514459   4.630   5.071   0.831 -0.2790  0.0711  1.0291
   48MOL   H26614460   4.465   5.037   0.789  0.7309  0.0908 -1.6566
   48MOL   H26714461   4.563   5.177   1.042  1.6919 -1.0284 -0.4856
   48MOL   H26814462   4.406   5.358   1.094  0.7882 -0.9795 -1.9363
   48MOL   H26914463   4.182   5.414   1.169  0.3536  0.2469 -0.2903
   48MOL   H27014464   4.001   5.259   1.111 -0.5401 -2.2787  0.4320
   48MOL   H27114465   4.055   5.030   1.018 -1.6040  1.9771 -1.3276
   48MOL   C27214466   4.550   4.970   1.047  0.5102  0.2391 -0.2791
   48MOL   C27314467   4.480   4.932   1.183 -0.3836 -0.1445  0.0612
   48MOL   C27414468   4.506   4.784   1.223 -0.0933 -0.3723  0.1798
   48MOL   C27514469   4.407   4.689   1.227 -0.1762  0.3406 -0.2873
   48MOL   C27614470   4.447   4.559   1.258  0.2607 -0.1517  0.6233
   48MOL   C27714471   4.581   4.530   1.279 -0.2825 -0.3819 -0.1268
   48MOL   C27814472   4.676   4.633   1.266  0.9063 -0.1489  0.2028
   48MOL   N27914473   4.637   4.760   1.243 -0.2352 -0.2386  0.4737
   48MOL   H28014474   4.657   4.951   1.053  0.9268  2.4463 -0.3535
   48MOL   H28114475   4.516   4.901   0.970  1.5321  0.0850 -0.5946
   48MOL   H28214476   4.373   4.926   1.162 -0.3122 -1.7360  0.0716
   48MOL   H28314477   4.305   4.709   1.198 -0.6533 -0.9510  0.4465
   48MOL   H28414478   4.374   4.479   1.257  0.1151 -0.0427 -2.3743
   48MOL   H28514479   4.612   4.429   1.306 -0.4051 -0.3864 -0.0004
   48MOL   H28614480   4.777   4.614   1.300  1.6191 -2.4670 -3.0091
   48MOL   C28714481   4.482   5.033   1.302  0.1437  0.0411 -0.1706
   48MOL   C28814482   4.611   5.118   1.312  0.3115 -0.1491 -0.4267
   48MOL   C28914483   4.589   5.267   1.309  0.1056 -0.2032  0.0164
   48MOL   C29014484   4.668   5.354   1.231  0.2304 -0.4362 -0.3565
   48MOL   C29114485   4.648   5.493   1.245 -0.3509 -0.4330  0.5285
   48MOL   C29214486   4.558   5.544   1.340  0.0427  0.1717  0.2715
   48MOL   C29314487   4.480   5.450   1.408  0.0987  0.3596 -0.3183
   48MOL   N29414488   4.504   5.315   1.399  0.0919 -0.9291 -0.9838
   48MOL   H29514489   4.474   4.983   1.399 -0.0102  2.2655  0.9952
   48MOL   H29614490   4.395   5.098   1.301 -1.4607 -2.0519 -1.6608
   48MOL   H29714491   4.688   5.092   1.239  0.2196 -0.8386 -0.2874
   48MOL   H29814492   4.730   5.309   1.155  0.9596  0.4144 -0.2767
   48MOL   H29914493   4.709   5.554   1.181 -0.6047  1.8924  2.4066
   48MOL   H30014494   4.547   5.651   1.346  0.2566  0.0735  3.0538
   48MOL   H30114495   4.402   5.489   1.473 -0.5469  4.0122 -3.0759
   48MOL   H30214496   4.644   5.096   1.414  2.9591 -0.5912 -1.3329
   49MOL     C114497   3.345   7.923   7.261  0.0796  0.0276  0.6829
   49MOL     C214498   3.422   8.057   7.243  0.1376 -0.0253  0.5096
   49MOL     C314499   3.432   8.118   7.384  0.1650 -0.3842  0.1046
   49MOL     C414500   3.370   0.092   7.411  0.2026 -0.8576 -0.0883
   49MOL     C514501   3.393   0.163   7.534  0.0409  0.4892  0.1223
   49MOL     C614502   3.482   0.102   7.618  0.0377 -0.2689 -0.0302
   49MOL     C714503   3.536   8.133   7.587 -0.0352 -0.3751  0.4627
   49MOL     N814504   3.507   8.062   7.477  0.2520  0.2125 -0.3135
   49MOL     H914505   3.242   7.936   7.296 -0.1891 -1.1840  0.3745
   49MOL    H1014506   3.332   7.869   7.167  1.4967 -1.6337  1.4217
   49MOL    H1114507   3.358   8.120   7.181  1.4174  1.2431  0.4418
   49MOL    H1214508   3.329   0.140   7.323  0.4764 -0.7116 -0.1373
   49MOL    H1314509   3.367   0.268   7.542 -0.1005  0.4994 -0.4096
   49MOL    H1414510   3.519   0.153   7.707 -1.1103 -2.7354  1.9088
   49MOL    H1514511   3.595   8.084   7.662  0.5103 -0.7252 -0.1947
   49MOL    H1614512   3.385   7.847   7.328 -0.6264  0.6220  1.7838
   49MOL    C1714513   3.552   8.056   7.158  0.3508  0.4482 -0.0827
   49MOL    C1814514   3.553   7.990   7.015  0.8798  0.6650 -0.4098
   49MOL    C1914515   3.444   8.050   6.920 -0.2614 -0.7480 -0.0724
   49MOL    C2014516   3.347   7.971   6.849 -0.3896  0.1626 -0.6988
   49MOL    C2114517   3.244   8.041   6.777  0.2621 -0.5745 -0.1088
   49MOL    C2214518   3.250   0.028   6.768 -0.0532  0.2716 -0.5254
   49MOL    C2314519   3.349   0.091   6.841  0.4229  0.3135  0.9461
   49MOL    N2414520   3.442   0.032   6.916  0.1030  1.0640  0.1863
   49MOL    H2514521   3.632   8.010   7.216  0.3281 -0.8649 -1.0735
   49MOL    H2614522   3.585   0.008   7.154  1.2556  0.2224  1.5000
   49MOL    H2714523   3.533   7.883   7.030  1.4096  0.4822 -0.9930
   49MOL    H2814524   3.339   7.863   6.858  2.6384 -0.1674 -1.4928
   49MOL    H2914525   3.158   7.988   6.738  0.1778  0.0498 -0.7787
   49MOL    H3014526   3.168   0.085   6.726 -0.4522  0.0618 -0.0399
   49MOL    H3114527   3.353   0.198   6.855 -1.0525  0.6154 -0.7050
   49MOL    C3214528   3.694   7.988   6.949  0.5866  0.0650 -0.0873
   49MOL    C3314529   3.797   7.884   7.006  0.0392 -1.2136 -0.3141
   49MOL    C3414530   3.749   7.742   6.982  0.8259 -0.4328 -0.3357
   49MOL    C3514531   3.779   7.675   6.862  0.9034 -0.6514 -0.6379
   49MOL    C3614532   3.735   7.542   6.847  0.0140 -0.2706  0.4932
   49MOL    C3714533   3.675   7.482   6.958  0.1371 -0.1745 -0.6057
   49MOL    C3814534   3.655   7.557   7.077  0.0533  0.0493  0.3629
   49MOL    N3914535   3.678   7.690   7.085  0.3629  0.4914 -0.1843
   49MOL    H4014536   3.725   8.092   6.952  0.1577  0.1706  0.9024
   49MOL    H4114537   3.685   7.957   6.845 -2.8550 -0.7984  0.3998
   49MOL    H4214538   3.800   7.899   7.114 -1.4983  0.1203 -0.4322
   49MOL    H4314539   3.820   7.734   6.782  0.0223  1.1610  0.1978
   49MOL    H4414540   3.736   7.490   6.753  1.8796 -1.2509  1.0228
   49MOL    H4514541   3.659   7.376   6.950 -1.0967 -0.2447  2.0623
   49MOL    H4614542   3.605   7.522   7.166  0.2981  0.1011  0.5238
   49MOL    C4714543   3.941   7.901   6.948  0.9395  0.8382 -0.5903
   49MOL    C4814544   4.009   8.031   7.000 -0.2191 -0.2930 -0.2127
   49MOL    C4914545   4.071   8.011   7.141 -0.2181 -0.0934  0.4442
   49MOL    C5014546   4.066   8.116   7.235 -0.7309 -0.1647  0.1550
   49MOL    C5114547   4.142   8.109   7.353  0.1975  0.0989 -0.2688
   49MOL    C5214548   4.224   7.997   7.365 -0.2097 -0.1333 -0.7969
   49MOL    C5314549   4.223   7.899   7.268 -0.0649  0.5555 -0.2686
   49MOL    N5414550   4.150   7.906   7.162  0.0593 -0.6138 -0.1032
   49MOL    H5514551   3.933   7.910   6.839  2.3833  1.4928 -0.6632
   49MOL    H5614552   4.003   7.814   6.970 -1.2784 -1.0984 -1.7622
   49MOL    H5714553   3.940   8.113   7.020  2.6866  1.9060  1.2200
   49MOL    H5814554   4.006   0.051   7.217  0.0450  0.3464  0.0028
   49MOL    H5914555   4.142   0.033   7.429  2.6696 -1.0954  0.9958
   49MOL    H6014556   4.276   7.988   7.460 -3.4634 -0.5142  1.0253
   49MOL    H6114557   4.287   7.812   7.277  0.9232  1.4368  1.3854
   49MOL    C6214558   4.100   8.077   6.884  0.0092 -0.4570  0.1008
   49MOL    C6314559   4.044   0.032   6.786 -0.0006  0.0762  0.1807
   49MOL    C6414560   3.976   0.161   6.825  0.0333 -0.1886 -0.3145
   49MOL    C6514561   3.999   0.217   6.951  0.2128  0.1056  0.3593
   49MOL    C6614562   3.928   0.337   6.987 -0.0538 -0.0515 -0.7854
   49MOL    C6714563   3.837   0.389   6.892 -0.1432  0.8215 -0.0276
   49MOL    C6814564   3.819   0.328   6.766 -0.1234  0.6532 -0.2978
   49MOL    N6914565   3.890   0.218   6.735 -0.2845  0.0515 -0.1069
   49MOL    H7014566   4.156   7.992   6.844  1.0022  0.6586 -0.9202
   49MOL    H7114567   4.170   8.143   6.935 -1.0483  0.6602  0.1186
   49MOL    H7214568   3.969   8.147   6.716  2.2619  1.9131 -3.3970
   49MOL    H7314569   4.068   0.175   7.023  2.9456  0.4680 -1.9735
   49MOL    H7414570   3.944   0.384   7.083 -1.5929 -1.6622  0.2958
   49MOL    H7514571   3.788   0.485   6.906  2.1117  1.7479  1.8731
   49MOL    H7614572   3.736   0.356   6.703 -2.1522 -0.3053  1.8744
   49MOL    C7714573   4.153   0.067   6.673  0.0414  0.2143 -0.4059
   49MOL    C7814574   4.275   0.161   6.701  0.0703  0.4074  0.3927
   49MOL    C7914575   4.367   0.094   6.797 -0.0347  0.9927  0.1010
   49MOL    C8014576   4.385   0.150   6.922  0.8155 -0.2962 -0.5347
   49MOL    C8114577   4.466   0.083   7.014  0.4466 -0.1429 -0.7068
   49MOL    C8214578   4.516   8.107   6.995  0.0591  0.2319 -0.3485
   49MOL    C8314579   4.490   8.057   6.864  0.1994  0.4399  0.2111
   49MOL    N8414580   4.418   8.120   6.766  0.0088  0.0951 -0.4031
   49MOL    H8514581   4.089   0.123   6.605 -2.1823 -0.5717  0.9918
   49MOL    H8614582   4.184   8.127   6.624  0.0854 -0.1937  0.3791
   49MOL    H8714583   4.230   0.250   6.746 -0.3474  0.9218 -0.9933
   49MOL    H8814584   4.348   0.249   6.944 -0.1194 -0.9426  0.9206
   49MOL    H8914585   4.488   0.133   7.107 -0.3135  0.1982 -0.7099
   49MOL    H9014586   4.571   8.050   7.069 -0.0459 -1.4790 -1.5594
   49MOL    H9114587   4.531   7.966   6.823 -0.0630  0.8278 -0.9142
   49MOL    C9214588   4.343   0.206   6.566  0.5549 -0.1170  0.3012
   49MOL    C9314589   4.466   0.308   6.578 -0.0559  0.1216  0.3922
   49MOL    C9414590   4.424   0.438   6.647 -0.4075  0.3652  0.4191
   49MOL    C9514591   4.412   0.558   6.573 -0.8622  0.4494 -0.4267
   49MOL    C9614592   4.381   0.675   6.639 -0.3164  0.0711  0.3341
   49MOL    C9714593   4.349   0.667   6.776 -0.7727  0.1146 -0.4325
   49MOL    C9814594   4.355   0.537   6.838  0.4440  0.0900 -0.0650
   49MOL    N9914595   4.402   0.429   6.777 -0.2548  0.0974 -0.1978
   49MOL   H10014596   4.264   0.259   6.511 -0.8425  1.5246  3.7643
   49MOL   H10114597   4.364   0.117   6.507  0.2834  1.5114 -2.3317
   49MOL   H10214598   4.477   0.337   6.474  2.0452 -1.1501  0.2200
   49MOL   H10314599   4.426   0.548   6.466  0.9065 -0.1136 -0.1646
   49MOL   H10414600   4.375   0.774   6.598 -0.7445  0.8281  2.2003
   49MOL   H10514601   4.318   0.749   6.839  1.8181  1.3937 -0.7439
   49MOL   H10614602   4.327   0.521   6.941 -0.0932 -2.4995 -0.5837
   49MOL   C10714603   4.600   0.255   6.632 -0.9269 -0.7478  0.8520
   49MOL   C10814604   4.665   0.130   6.555  0.1853  0.1131 -0.2239
   49MOL   C10914605   4.645   0.133   6.409 -0.5311 -0.0778  0.1197
   49MOL   C11014606   4.574   0.026   6.344 -0.3879  0.4609  0.2912
   49MOL   C11114607   4.574   0.039   6.200 -0.3207 -0.2501 -0.2623
   49MOL   C11214608   4.657   0.138   6.137  0.3778 -0.1855  0.1710
   49MOL   C11314609   4.721   0.230   6.221  0.2800 -0.0702  0.0269
   49MOL   N11414610   4.715   0.231   6.353 -0.1133  0.1585  0.3415
   49MOL   H11514611   4.594   0.236   6.739  2.3892 -0.2219  1.2025
   49MOL   H11614612   4.667   0.341   6.631 -1.5374 -0.2369 -1.8069
   49MOL   H11714613   4.592   0.058   6.591  0.9752 -0.4572  0.2491
   49MOL   H11814614   4.534   8.092   6.397  1.5451  0.8854  2.5191
   49MOL   H11914615   4.538   8.104   6.146  2.2330 -0.5553 -1.5230
   49MOL   H12014616   4.656   0.156   6.031  0.9614  1.0576  0.3599
   49MOL   H12114617   4.789   0.305   6.182  2.9526 -1.8930  1.0565
   49MOL   C12214618   4.811   0.095   6.592 -0.5937 -0.1772 -0.2479
   49MOL   C12314619   4.850   8.102   6.610  0.9146  0.0789 -0.4279
   49MOL   C12414620   4.899   8.043   6.478  0.1240  0.2489  0.5237
   49MOL   C12514621   5.007   8.094   6.404 -0.2435  0.0236 -0.1942
   49MOL   C12614622   5.063   8.015   6.293  0.2078 -0.5981  0.3731
   49MOL   C12714623   4.986   7.905   6.251  0.2487  0.1447  0.0923
   49MOL   C12814624   4.873   7.871   6.326  0.6947  0.1233 -0.1254
   49MOL   N12914625   4.832   7.932   6.441  0.0241 -0.2330 -0.0178
   49MOL   H13014626   4.836   0.136   6.690 -0.6410 -0.1097 -0.2652
   49MOL   H13114627   4.880   0.141   6.521  0.2405  0.7036  1.1008
   49MOL   H13214628   4.769   8.042   6.651  0.8846 -0.2189 -0.9253
   49MOL   H13314629   5.066   0.027   6.434 -1.2578  0.2463  1.1770
   49MOL   H13414630   5.154   8.044   6.243 -0.4642  1.4024  0.2202
   49MOL   H13514631   5.028   7.848   6.170 -1.4159 -0.9989  0.0020
   49MOL   H13614632   4.804   7.791   6.302  0.3634  0.4185 -0.1678
   49MOL   C13714633   4.963   8.088   6.715 -0.5799  0.0849  0.0003
   49MOL   C13814634   4.994   7.948   6.772  0.3671  0.3719  0.3074
   49MOL   C13914635   5.130   7.936   6.836 -0.7796 -0.4235 -0.0519
   49MOL   C14014636   5.222   7.837   6.800 -0.1074  0.3332 -0.3955
   49MOL   C14114637   5.352   7.834   6.861 -0.3372  0.4360 -0.0461
   49MOL   C14214638   5.368   7.930   6.963 -0.2512  0.2422 -0.0713
   49MOL   C14314639   5.277   8.026   6.997 -0.6363 -0.0345  0.0472
   49MOL   N14414640   5.161   8.028   6.930  0.3534 -0.2438  0.0198
   49MOL   H14514641   4.944   8.138   6.810 -0.4144 -2.5045  1.4443
   49MOL   H14614642   5.053   8.136   6.677  0.6416  0.0793  2.7893
   49MOL   H14714643   4.993   7.871   6.695 -0.6488  0.6645  0.0165
   49MOL   H14814644   5.198   7.770   6.718 -1.9666 -0.1274  0.5005
   49MOL   H14914645   5.432   7.763   6.849  0.3257  1.4266 -1.5818
   49MOL   H15014646   5.457   7.933   7.023 -0.3168  0.3252  0.0229
   49MOL   H15114647   5.297   8.099   7.074  1.2508 -0.7807  0.2737
   49MOL   C15214648   4.885   7.900   6.880 -0.6420 -0.0675 -0.8934
   49MOL   C15314649   4.888   7.755   6.929  0.6048 -0.0067 -0.2199
   49MOL   C15414650   4.798   7.751   7.057  0.6875  0.2554 -0.3055
   49MOL   C15514651   4.849   7.690   7.176  0.1214 -0.1297  0.5288
   49MOL   C15614652   4.765   7.681   7.286  0.1482  0.7679 -1.2484
   49MOL   C15714653   4.632   7.724   7.273 -0.7529 -0.4685  0.7101
   49MOL   C15814654   4.587   7.792   7.156 -0.2532  0.5176  0.3005
   49MOL   N15914655   4.670   7.793   7.048  0.5350 -0.5716  0.3147
   49MOL   H16014656   4.788   7.920   6.834 -0.5031  1.4088 -0.5576
   49MOL   H16114657   4.894   7.968   6.964 -1.1204  1.1190 -1.7896
   49MOL   H16214658   4.992   7.738   6.956 -0.0764  0.1379  2.6276
   49MOL   H16314659   4.950   7.655   7.167  0.2620  0.8799 -2.3265
   49MOL   H16414660   4.797   7.634   7.377  0.4286 -2.3383 -2.9056
   49MOL   H16514661   4.568   7.722   7.360 -1.0559  0.7902  0.5196
   49MOL   H16614662   4.487   7.825   7.136 -0.2450 -0.9533 -2.3917
   49MOL   C16714663   4.849   7.655   6.825 -0.2713  0.7270 -0.4316
   49MOL   C16814664   4.890   7.503   6.850  0.3078 -0.8360  0.4345
   49MOL   C16914665   4.785   7.400   6.819  0.5983  0.1826 -0.2957
   49MOL   C17014666   4.731   7.325   6.922  0.3102 -0.1874 -0.1174
   49MOL   C17114667   4.628   7.235   6.889 -0.1118 -0.2513 -0.6336
   49MOL   C17214668   4.568   7.240   6.762  0.3849 -0.6482  0.3741
   49MOL   C17314669   4.631   7.321   6.663  0.0101 -0.2231  0.8497
   49MOL   N17414670   4.742   7.397   6.692  0.4878  0.4412 -0.9845
   49MOL   H17514671   4.884   7.695   6.730 -1.1273  0.1064 -1.0219
   49MOL   H17614672   4.740   7.648   6.820 -0.2435  0.8072 -1.2263
   49MOL   H17714673   4.908   7.487   6.957  3.0362 -0.8765  0.0091
   49MOL   H17814674   4.768   7.325   7.023  2.2331  1.8249 -0.7831
   49MOL   H17914675   4.593   7.169   6.966  1.9055  0.0357  0.5759
   49MOL   H18014676   4.491   7.168   6.742 -0.9362  0.3262  1.8236
   49MOL   H18114677   4.599   7.321   6.560 -1.7762  0.1232  1.3821
   49MOL   C18214678   5.016   7.487   6.768  0.4871  0.7602 -0.2041
   49MOL   C18314679   5.083   7.349   6.782  0.4406  0.4433 -0.4392
   49MOL   C18414680   5.201   7.337   6.684  0.0938 -0.2593  0.6758
   49MOL   C18514681   5.221   7.231   6.605  0.2252 -0.1880 -0.0066
   49MOL   C18614682   5.330   7.234   6.522 -0.3365 -0.8775  0.1953
   49MOL   C18714683   5.421   7.344   6.522 -0.4002 -0.0173 -0.1383
   49MOL   C18814684   5.400   7.441   6.618  0.1005  0.1761  0.4445
   49MOL   N18914685   5.291   7.444   6.692 -0.1293  0.7629 -0.5455
   49MOL   H19014686   5.086   7.562   6.804  1.3464 -0.3715  0.5003
   49MOL   H19114687   4.995   7.508   6.663  0.4364  0.0708 -0.3342
   49MOL   H19214688   5.020   7.277   6.730  1.2601 -0.1562 -0.6055
   49MOL   H19314689   5.145   7.154   6.603  0.3098 -0.3040  1.1417
   49MOL   H19414690   5.348   7.157   6.448 -0.3569  0.4266 -1.1963
   49MOL   H19514691   5.506   7.337   6.456  0.2767 -2.8285  0.9514
   49MOL   H19614692   5.473   7.519   6.627 -0.0575  0.3974 -0.1789
   49MOL   C19714693   5.111   7.315   6.930 -0.1450  0.4381 -0.2056
   49MOL   C19814694   5.224   7.390   6.995  0.4148 -0.5522 -0.0476
   49MOL   C19914695   5.191   7.427   7.140  0.3613 -0.3713  0.0556
   49MOL   C20014696   5.209   7.557   7.192  0.4437  0.1013 -0.1647
   49MOL   C20114697   5.202   7.580   7.330 -0.2989  0.1192 -0.0630
   49MOL   C20214698   5.196   7.462   7.416 -0.0049 -0.7002  0.6052
   49MOL   C20314699   5.176   7.336   7.355 -0.1238 -0.4682 -0.1895
   49MOL   N20414700   5.171   7.318   7.221  0.0889  0.1586  0.1260
   49MOL   H20514701   5.135   7.210   6.943  0.2463  0.2624 -2.1694
   49MOL   H20614702   5.018   7.323   6.986 -2.1146  1.1829 -3.3942
   49MOL   H20714703   5.240   7.482   6.939  0.8949  0.4578  1.7264
   49MOL   H20814704   5.236   7.633   7.120  0.5314 -1.6885 -2.0996
   49MOL   H20914705   5.213   7.680   7.369 -1.9547 -0.2690  1.4517
   49MOL   H21014706   5.193   7.465   7.524  0.0628 -0.8520  0.6110
   49MOL   H21114707   5.166   7.248   7.417 -0.2260 -0.5570 -0.3322
   49MOL   C21214708   5.361   7.316   6.989  0.7341 -0.3957 -0.3001
   49MOL   C21314709   5.494   7.378   7.031  0.7145  0.5037  0.2508
   49MOL   C21414710   5.611   7.280   7.002 -0.8735  0.0409 -0.2779
   49MOL   C21514711   5.653   7.258   6.870  0.2616 -0.0663 -0.0944
   49MOL   C21614712   5.763   7.174   6.848  0.2830  0.2376 -0.3966
   49MOL   C21714713   5.827   7.116   6.962  0.3386 -0.9051  0.1394
   49MOL   C21814714   5.781   7.143   7.090  0.2704 -0.2588  0.0191
   49MOL   N21914715   5.682   7.229   7.109  0.0626  0.3438  0.8215
   49MOL   H22014716   5.380   7.292   6.885 -0.1589 -0.1652 -0.5193
   49MOL   H22114717   5.345   7.221   7.040 -0.1798  0.6326  1.3964
   49MOL   H22214718   5.484   7.387   7.139 -0.5860 -1.4631  0.3141
   49MOL   H22314719   5.598   7.297   6.785  0.0189  1.8474  0.9176
   49MOL   H22414720   5.793   7.157   6.746  0.0651  0.2907 -0.4697
   49MOL   H22514721   5.916   7.055   6.952  1.2912  0.2197  1.4607
   49MOL   H22614722   5.837   7.096   7.170 -0.3758 -1.3602 -0.1614
   49MOL   C22714723   5.532   7.521   6.979 -0.2934 -0.0749 -0.3998
   49MOL   C22814724   5.650   7.585   7.067 -0.0673  0.6532  0.0677
   49MOL   C22914725   5.766   7.623   6.971  0.6136 -0.1170 -0.7567
   49MOL   C23014726   5.744   7.723   6.880  0.6977 -0.6747  0.5907
   49MOL   C23114727   5.854   7.763   6.798  0.1148  0.0265 -0.1702
   49MOL   C23214728   5.977   7.700   6.811 -0.2684 -0.0034  0.6813
   49MOL   C23314729   5.987   7.595   6.909 -0.5601  0.2005  0.3699
   49MOL   N23414730   5.882   7.564   6.983  0.1480 -0.5628  0.0902
   49MOL   H23514731   5.442   7.582   6.968 -0.4543 -0.2863 -0.2598
   49MOL   H23614732   5.567   7.514   6.876 -0.4476 -1.3982 -0.3659
   49MOL   H23714733   5.689   7.505   7.129  1.0056  0.9835 -0.1691
   49MOL   H23814734   5.648   7.771   6.868  0.9053 -0.1913  0.8591
   49MOL   H23914735   5.849   7.838   6.721  0.4715 -0.2083 -0.4228
   49MOL   H24014736   6.062   7.732   6.752 -1.5681 -0.0741 -1.2728
   49MOL   H24114737   6.084   7.548   6.917  0.6165  2.2300 -1.4578
   49MOL   C24214738   5.605   7.699   7.160  0.9185  0.1313  0.3396
   49MOL   C24314739   5.714   7.801   7.209  0.5113  0.2877  0.2518
   49MOL   C24414740   5.641   7.926   7.256  0.3127 -0.0485  0.1210
   49MOL   C24514741   5.656   8.041   7.171  0.5547 -0.1121  0.0244
   49MOL   C24614742   5.569   8.152   7.191 -0.6551 -0.9109  0.5020
   49MOL   C24714743   5.494   8.149   7.309  0.0156  0.2177  0.4461
   49MOL   C24814744   5.489   8.031   7.387 -0.1148  0.0092  0.1676
   49MOL   N24914745   5.561   7.921   7.360  0.2254  0.1413  0.0845
   49MOL   H25014746   5.546   7.651   7.238  0.3899  2.3991  1.3629
   49MOL   H25114747   5.543   7.757   7.091  0.2971  0.3777  1.0971
   49MOL   H25214748   5.777   7.835   7.128 -1.4038 -0.2308 -1.5095
   49MOL   H25314749   5.726   8.041   7.088  0.6846 -0.5709  0.1377
   49MOL   H25414750   5.583   0.085   7.126  0.7648 -0.6094  1.1776
   49MOL   H25514751   5.439   0.085   7.341  0.7671 -0.0311  2.4906
   49MOL   H25614752   5.428   8.031   7.477  0.7159 -0.6476  0.7420
   49MOL   C25714753   5.789   7.734   7.322  0.4062  0.1329  0.3531
   49MOL   C25814754   5.914   7.802   7.381 -0.9438  0.2248  0.0455
   49MOL   C25914755   6.033   7.816   7.283 -0.1760 -0.2026 -0.7876
   49MOL   C26014756   6.129   7.716   7.276  0.4309  0.2344 -0.4175
   49MOL   C26114757   6.218   7.718   7.166 -0.3469 -0.2429  0.0350
   49MOL   C26214758   6.215   7.823   7.082 -0.3512  0.0486 -0.0891
   49MOL   C26314759   6.118   7.925   7.105  0.0512  0.3843  1.3075
   49MOL   N26414760   6.022   7.918   7.194  0.7438  0.6595 -0.2800
   49MOL   H26514761   5.824   7.638   7.285  0.0135  0.3205 -0.5160
   49MOL   H26614762   5.727   7.707   7.407 -0.4021  0.6781 -0.0561
   49MOL   H26714763   5.956   7.730   7.452  2.4597 -0.4937 -2.5937
   49MOL   H26814764   6.135   7.635   7.347 -0.6171 -0.9335 -1.6388
   49MOL   H26914765   6.284   7.633   7.159  0.2430  0.0803  1.4522
   49MOL   H27014766   6.282   7.823   6.997  0.6743  0.7150  0.7079
   49MOL   H27114767   6.114   8.005   7.032  0.2576  2.3241  3.3688
   49MOL   C27214768   5.888   7.926   7.460 -0.2763 -0.2664 -0.2599
   49MOL   C27314769   5.817   7.904   7.597  0.0105  0.4777  0.4146
   49MOL   C27414770   5.887   7.817   7.699  0.1352 -0.1569  0.3431
   49MOL   C27514771   5.831   7.691   7.728  0.1093  0.4046  1.1196
   49MOL   C27614772   5.911   7.606   7.809  0.9198 -0.6989  0.5937
   49MOL   C27714773   6.033   7.649   7.862 -0.4984  0.2914  0.2221
   49MOL   C27814774   6.073   7.784   7.826 -0.0210  0.1500  0.4477
   49MOL   N27914775   6.005   7.867   7.744  0.0855  0.3754  0.4353
   49MOL   H28014776   5.842   7.994   7.388  1.5700  0.7532 -0.5162
   49MOL   H28114777   5.986   7.972   7.477 -1.4963  1.8715  1.3353
   49MOL   H28214778   5.726   7.847   7.576  0.8518 -1.5812  2.1658
   49MOL   H28314779   5.734   7.655   7.697  0.5753  0.9843 -1.1421
   49MOL   H28414780   5.856   7.517   7.835  1.0904 -0.5347  1.5544
   49MOL   H28514781   6.089   7.583   7.927 -2.6383  0.8130  2.6857
   49MOL   H28614782   6.163   7.833   7.860  0.3453 -0.7500  0.8168
   49MOL   C28714783   5.762   8.030   7.663  0.3186 -0.1768  0.2647
   49MOL   C28814784   5.649   7.998   7.769 -0.5876 -0.6924  0.3173
   49MOL   C28914785   5.578   8.124   7.815  0.3479 -0.1087 -0.4987
   49MOL   C29014786   5.604   0.040   7.938  1.2798 -0.1412 -0.6338
   49MOL   C29114787   5.528   0.158   7.966 -0.7224 -0.1839 -0.2744
   49MOL   C29214788   5.432   0.203   7.874 -0.4544  0.3522  0.4817
   49MOL   C29314789   5.406   0.126   7.755  0.9968 -0.1194 -0.1658
   49MOL   N29414790   5.484   0.021   7.723  0.3129  0.3249  0.4698
   49MOL   H29514791   5.721   8.099   7.590 -3.1750 -1.4673  0.9212
   49MOL   H29614792   5.839   8.085   7.717 -0.4428 -0.1101  1.2887
   49MOL   H29714793   5.700   7.956   7.855  0.9922 -1.1442 -0.8267
   49MOL   H29814794   5.677   8.150   8.006  0.0388  0.1425  0.9087
   49MOL   H29914795   5.549   0.214   8.056  0.1077  1.2296 -1.3245
   49MOL   H30014796   5.368   0.286   7.900 -1.1100  0.4003 -1.2182
   49MOL   H30114797   5.319   0.150   7.696 -0.3666 -0.0508  1.8346
   49MOL   H30214798   5.576   7.923   7.739  0.3283 -1.1900 -0.6982
   50MOL     C114799   4.226   3.536   4.240  0.0423  0.3720  0.1648
   50MOL     C214800   4.202   3.401   4.165  0.3014  0.1610  0.2892
   50MOL     C314801   4.089   3.419   4.070  0.3284  0.2658  0.1668
   50MOL     C414802   3.977   3.331   4.073  0.5143  0.1998 -0.4090
   50MOL     C514803   3.881   3.341   3.973  0.4330 -0.0282 -0.6718
   50MOL     C614804   3.882   3.464   3.896 -0.4467 -0.4284  0.0842
   50MOL     C714805   3.992   3.549   3.897  0.5175  0.2542 -0.4212
   50MOL     N814806   4.098   3.519   3.981  0.5204  0.3710  0.4040
   50MOL     H914807   4.140   3.584   4.288 -1.7191 -0.5276 -2.0229
   50MOL    H1014808   4.295   3.514   4.321  1.2931 -0.4242 -1.1062
   50MOL    H1114809   4.174   3.327   4.241 -2.1071 -0.9856 -1.6462
   50MOL    H1214810   3.996   3.241   4.128 -3.9118 -2.0334 -2.2868
   50MOL    H1314811   3.792   3.281   3.963  0.1154  0.1921  0.6449
   50MOL    H1414812   3.800   3.477   3.827 -0.0800  2.9364  0.2394
   50MOL    H1514813   4.004   3.631   3.828  1.9996 -0.7410 -1.3680
   50MOL    H1614814   4.280   3.615   4.189  0.9966 -0.5119 -0.2080
   50MOL    C1714815   4.323   3.344   4.078  0.5410  0.0177  0.4804
   50MOL    C1814816   4.317   3.195   4.028 -0.7967 -0.1513  0.0118
   50MOL    C1914817   4.315   3.090   4.130  0.7030 -0.4929  0.5207
   50MOL    C2014818   4.426   3.014   4.168 -0.4304 -0.8496 -0.5001
   50MOL    C2114819   4.407   2.917   4.263 -0.2074  0.6089 -1.0981
   50MOL    C2214820   4.278   2.890   4.312 -0.3852  0.0501 -0.3265
   50MOL    C2314821   4.179   2.977   4.272 -0.0528 -0.0952  0.1090
   50MOL    N2414822   4.192   3.067   4.175 -0.2859  0.7008 -0.0067
   50MOL    H2514823   4.420   3.348   4.128  0.9630  1.8264 -0.4533
   50MOL    H2614824   4.342   3.416   3.999 -0.3010 -1.1420 -0.7866
   50MOL    H2714825   4.415   3.180   3.983 -0.2459 -0.3298  1.2707
   50MOL    H2814826   4.525   3.027   4.128  0.0365 -4.1454 -0.5328
   50MOL    H2914827   4.486   2.864   4.314 -1.7371  1.8109  2.6852
   50MOL    H3014828   4.278   2.824   4.397 -0.8853 -2.2934 -2.0808
   50MOL    H3114829   4.081   2.973   4.316 -0.4155  0.6910 -0.6220
   50MOL    C3214830   4.212   3.181   3.917  0.6040  0.5021 -0.4226
   50MOL    C3314831   4.255   3.116   3.785  0.3603  0.0384  0.1161
   50MOL    C3414832   4.288   2.970   3.795  0.7936 -0.4736  0.3571
   50MOL    C3514833   4.411   2.919   3.762  0.3957 -0.4124  0.4311
   50MOL    C3614834   4.437   2.782   3.768  0.0364 -0.0835 -0.1783
   50MOL    C3714835   4.339   2.698   3.810  0.4725  0.2867  0.4346
   50MOL    C3814836   4.218   2.751   3.846  0.3895  0.1894  0.3720
   50MOL    N3914837   4.186   2.883   3.827  0.0698 -0.4052  0.2060
   50MOL    H4014838   4.187   3.281   3.884 -0.9638  0.3062  0.1489
   50MOL    H4114839   4.124   3.130   3.957  1.8815  0.3848  2.3611
   50MOL    H4214840   4.352   3.156   3.756  0.8549 -0.8152  0.5570
   50MOL    H4314841   4.486   2.990   3.730 -1.0213  1.1990  0.6736
   50MOL    H4414842   4.534   2.740   3.745 -0.5222 -2.2236  1.2458
   50MOL    H4514843   4.359   2.592   3.817 -0.4149  0.2567  2.7805
   50MOL    H4614844   4.141   2.684   3.880 -1.5174  1.5141 -1.2208
   50MOL    C4714845   4.165   3.146   3.660  0.1001  0.8054 -0.3667
   50MOL    C4814846   4.168   3.291   3.608  0.7092  0.1949 -0.1251
   50MOL    C4914847   4.305   3.352   3.610  0.3774 -0.5124  0.0117
   50MOL    C5014848   4.326   3.459   3.694  1.0705  0.3865  0.1334
   50MOL    C5114849   4.453   3.508   3.704 -0.3382 -0.2096  0.3360
   50MOL    C5214850   4.551   3.460   3.616 -0.8021  0.7477  0.8290
   50MOL    C5314851   4.527   3.345   3.531 -1.1348 -0.3395  0.0167
   50MOL    N5414852   4.401   3.293   3.533  0.9099 -0.0797  0.2780
   50MOL    H5514853   4.063   3.116   3.685  0.8143 -1.8686 -0.4569
   50MOL    H5614854   4.192   3.085   3.573  1.3049  1.2630 -0.3131
   50MOL    H5714855   4.095   3.343   3.670  2.0536  0.5589  1.1676
   50MOL    H5814856   4.245   3.492   3.757 -1.0427 -0.6932 -1.9637
   50MOL    H5914857   4.490   3.583   3.772  2.1535  0.2401 -1.4063
   50MOL    H6014858   4.650   3.504   3.610 -0.2925 -0.4185  0.5193
   50MOL    H6114859   4.603   3.314   3.461 -1.2569  0.2832 -0.3925
   50MOL    C6214860   4.100   3.292   3.468 -0.3224  0.3921 -0.3345
   50MOL    C6314861   4.077   3.435   3.411  0.4944  0.2102  0.4284
   50MOL    C6414862   4.014   3.417   3.276 -0.0718  0.6863 -0.3657
   50MOL    C6514863   4.076   3.460   3.156  0.0045  0.7154  0.3456
   50MOL    C6614864   4.013   3.432   3.035 -0.1939  0.7415  0.0096
   50MOL    C6714865   3.890   3.368   3.042 -0.2544 -0.2751  0.8285
   50MOL    C6814866   3.826   3.334   3.165  0.1646 -0.2579  0.2924
   50MOL    N6914867   3.888   3.370   3.283  0.7318  0.0583 -0.0749
   50MOL    H7014868   4.004   3.241   3.461 -1.3639  2.3510 -0.6750
   50MOL    H7114869   4.169   3.237   3.404 -1.2190 -1.4055  0.2172
   50MOL    H7214870   4.177   3.477   3.399  0.7157 -0.7181 -1.1195
   50MOL    H7314871   4.177   3.499   3.160  0.6158 -0.8152  0.0416
   50MOL    H7414872   4.052   3.460   2.939  0.5346  2.2540  0.7369
   50MOL    H7514873   3.839   3.337   2.952 -1.0362 -1.8782  1.7997
   50MOL    H7614874   3.726   3.292   3.166  0.3875 -0.7853  1.4029
   50MOL    C7714875   3.993   3.541   3.495  0.0625 -0.5471  0.1579
   50MOL    C7814876   3.956   3.672   3.434 -0.4176  0.0039  0.1696
   50MOL    C7914877   3.853   3.749   3.514 -0.4307 -0.1485  0.0454
   50MOL    C8014878   3.735   3.799   3.454 -0.4738 -0.5711  0.0621
   50MOL    C8114879   3.661   3.881   3.533  0.5686 -1.0404  0.9352
   50MOL    C8214880   3.693   3.912   3.667 -1.2196  0.1612  0.0868
   50MOL    C8314881   3.818   3.863   3.714 -0.4532  0.1157 -0.4634
   50MOL    N8414882   3.895   3.779   3.639  0.0224 -0.7902  0.2750
   50MOL    H8514883   4.049   3.555   3.588 -0.6048 -3.6516  1.0764
   50MOL    H8614884   3.901   3.494   3.530 -0.1729 -0.2184 -0.0081
   50MOL    H8714885   3.906   3.659   3.338 -0.2614 -0.9514  0.2201
   50MOL    H8814886   3.708   3.760   3.357  1.0337 -1.0472 -0.1814
   50MOL    H8914887   3.565   3.914   3.496  0.6523 -2.0781 -0.2481
   50MOL    H9014888   3.629   3.978   3.724  0.6346  3.3332 -1.3498
   50MOL    H9114889   3.848   3.897   3.812 -2.9370 -1.5206  0.9228
   50MOL    C9214890   4.084   3.758   3.412  0.6218  0.7396 -0.1425
   50MOL    C9314891   4.064   3.902   3.360 -0.4670  0.8024  0.0640
   50MOL    C9414892   4.194   3.972   3.355  0.4126  0.7909 -0.4483
   50MOL    C9514893   4.214   4.098   3.423 -0.9310  0.3882 -0.6569
   50MOL    C9614894   4.337   4.166   3.407 -0.6571  0.6665  0.1259
   50MOL    C9714895   4.437   4.103   3.327  0.4888  0.1997 -0.3877
   50MOL    C9814896   4.412   3.982   3.271  0.6802 -0.0886  0.1954
   50MOL    N9914897   4.291   3.923   3.278  0.2089  0.3646  1.0378
   50MOL   H10014898   4.148   3.701   3.344  0.8943 -1.7195  2.0834
   50MOL   H10114899   4.146   3.760   3.502 -1.3719 -0.0049  1.2755
   50MOL   H10214900   4.005   3.952   3.437 -0.4366 -0.7192  1.0910
   50MOL   H10314901   4.153   4.138   3.502  0.3646 -1.5316  1.3657
   50MOL   H10414902   4.363   4.253   3.465  3.4388 -1.8101  2.2078
   50MOL   H10514903   4.529   4.155   3.306  0.6172 -0.1098 -0.5887
   50MOL   H10614904   4.486   3.938   3.206  0.6330  0.7988 -0.4693
   50MOL   C10714905   3.988   3.918   3.229 -0.2455  0.4204  0.4189
   50MOL   C10814906   3.951   4.057   3.178  0.6466 -0.4249 -0.5242
   50MOL   C10914907   3.934   4.072   3.029 -0.2005  1.4382 -0.5305
   50MOL   C11014908   3.879   3.959   2.965 -0.9245  1.0849  0.2819
   50MOL   C11114909   3.852   3.967   2.829  0.8140  0.5319 -0.1809
   50MOL   C11214910   3.873   4.085   2.765 -0.4406  0.4331  1.3928
   50MOL   C11314911   3.925   4.196   2.840  0.0217  0.8493 -0.2799
   50MOL   N11414912   3.955   4.187   2.970 -0.1338  0.5367 -0.2165
   50MOL   H11514913   3.903   3.850   3.226  1.0377 -1.1818 -0.1315
   50MOL   H11614914   4.065   3.883   3.159 -0.0340  2.9490 -0.6935
   50MOL   H11714915   4.019   4.137   3.210  1.7166 -0.2937 -3.0339
   50MOL   H11814916   3.854   3.865   3.011  0.7786  0.5722  0.2268
   50MOL   H11914917   3.801   3.894   2.769 -1.4095  0.7396  1.3696
   50MOL   H12014918   3.857   4.100   2.659  1.7106  0.4356  1.0566
   50MOL   H12114919   3.956   4.281   2.781  0.5415  1.2152  0.5247
   50MOL   C12214920   3.817   4.091   3.249 -0.6898  0.3116 -0.2254
   50MOL   C12314921   3.797   4.239   3.295  0.2428  0.0041  0.4132
   50MOL   C12414922   3.650   4.272   3.321 -0.1924  0.2095  0.4311
   50MOL   C12514923   3.587   4.372   3.245  0.1996  0.1004  0.0015
   50MOL   C12614924   3.453   4.396   3.277  0.2405 -0.4352 -0.0748
   50MOL   C12714925   3.394   4.322   3.375 -0.0922  0.6611  0.8695
   50MOL   C12814926   3.462   4.219   3.443 -0.1594  0.7220  0.0441
   50MOL   N12914927   3.593   4.209   3.422 -0.2784 -0.2699 -0.3962
   50MOL   H13014928   3.809   4.032   3.340 -0.6740  1.5064  0.5630
   50MOL   H13114929   3.738   4.067   3.178 -1.7963  1.4731  0.5899
   50MOL   H13214930   3.828   4.311   3.219  0.6849 -0.2113  0.3882
   50MOL   H13314931   3.636   4.424   3.164  1.0385  0.0599  0.4781
   50MOL   H13414932   3.393   4.471   3.227 -1.8615 -1.4616  0.8592
   50MOL   H13514933   3.292   4.335   3.408  0.2365  3.4917  0.9365
   50MOL   H13614934   3.429   4.147   3.516 -0.2037 -0.7298 -1.3702
   50MOL   C13714935   3.876   4.269   3.420  0.4481  0.1241  0.7074
   50MOL   C13814936   3.884   4.420   3.470  0.0882  0.3099 -0.4247
   50MOL   C13914937   3.960   4.443   3.600 -0.1639 -0.4714  0.2686
   50MOL   C14014938   3.900   4.501   3.713  0.0218  0.2188 -0.0924
   50MOL   C14114939   3.977   4.517   3.828 -0.2383  0.3349  0.6234
   50MOL   C14214940   4.098   4.455   3.836  0.1458  0.3237  0.6007
   50MOL   C14314941   4.160   4.421   3.711  0.5866 -0.0505  0.0895
   50MOL   N14414942   4.088   4.411   3.598 -0.6104  0.3328  0.0373
   50MOL   H14514943   3.982   4.254   3.401  0.9091  2.5866  1.1831
   50MOL   H14614944   3.845   4.199   3.497  0.4187  0.1072  0.6800
   50MOL   H14714945   3.782   4.449   3.497  0.3211 -0.5611  1.4585
   50MOL   H14814946   3.795   4.522   3.701 -0.1924 -0.1726  1.0608
   50MOL   H14914947   3.927   4.553   3.917 -1.3323 -3.6336  1.7296
   50MOL   H15014948   4.159   4.469   3.924 -0.0804 -0.6446  0.9123
   50MOL   H15114949   4.265   4.395   3.712  0.5185 -0.3126  0.6101
   50MOL   C15214950   3.935   4.521   3.365  0.2499  0.4354 -0.9437
   50MOL   C15314951   3.920   4.676   3.409 -0.2818  0.7479  0.0423
   50MOL   C15414952   4.019   4.762   3.329  0.0838 -0.1299  0.3183
   50MOL   C15514953   4.130   4.829   3.388  0.2607 -0.3452  0.5372
   50MOL   C15614954   4.222   4.895   3.310  0.3797 -0.0146 -0.1625
   50MOL   C15714955   4.197   4.896   3.171 -0.9971  0.4639 -0.2849
   50MOL   C15814956   4.091   4.810   3.117 -0.4192 -0.0361 -0.2625
   50MOL   N15914957   4.005   4.747   3.193 -0.1947 -0.4313 -0.2943
   50MOL   H16014958   3.881   4.516   3.271  0.2617  2.4461 -1.0929
   50MOL   H16114959   4.042   4.501   3.355  0.5051  0.2917  1.6949
   50MOL   H16214960   3.933   4.674   3.517 -1.3906  0.9593  0.1807
   50MOL   H16314961   4.143   4.818   3.495 -1.2740 -0.2133  0.7527
   50MOL   H16414962   4.302   4.961   3.340  1.5554 -0.9899 -1.1494
   50MOL   H16514963   4.264   4.950   3.106 -1.4814  0.6501 -0.6345
   50MOL   H16614964   4.091   4.792   3.010 -1.4162  1.0809 -0.4662
   50MOL   C16714965   3.770   4.739   3.390  0.8168  0.2840 -0.1842
   50MOL   C16814966   3.735   4.849   3.480  0.3096 -0.5890 -0.1609
   50MOL   C16914967   3.714   4.802   3.624 -0.0380  1.0546 -0.4471
   50MOL   C17014968   3.796   4.850   3.730  0.8405 -0.3013  0.3011
   50MOL   C17114969   3.768   4.800   3.862 -0.3252  0.5209 -0.7615
   50MOL   C17214970   3.663   4.712   3.877 -0.1577 -0.3470 -0.2314
   50MOL   C17314971   3.586   4.673   3.765  0.5710  0.7582 -0.4227
   50MOL   N17414972   3.610   4.718   3.643  0.0063  0.0961 -0.6120
   50MOL   H17514973   3.702   4.655   3.403  1.3062  0.0111  0.6213
   50MOL   H17614974   3.756   4.766   3.285  0.1799  2.6447  0.4906
   50MOL   H17714975   3.636   4.881   3.448 -0.2718 -3.3617 -1.2718
   50MOL   H17814976   3.862   4.935   3.718  0.5112 -0.1090 -0.1286
   50MOL   H17914977   3.820   4.835   3.950  0.4589 -1.6667 -0.3187
   50MOL   H18014978   3.641   4.677   3.976 -0.5779  0.7000  0.0497
   50MOL   H18114979   3.502   4.606   3.775  1.6726 -0.4283  1.2814
   50MOL   C18214980   3.822   4.976   3.458 -0.0388  0.4161 -0.3400
   50MOL   C18314981   3.751   5.103   3.498  0.2120 -0.5775  0.6554
   50MOL   C18414982   3.830   5.186   3.590  0.3173  0.1211  0.2115
   50MOL   C18514983   3.961   5.216   3.560 -0.3307 -0.1903  0.1133
   50MOL   C18614984   4.025   5.315   3.632 -0.4328 -0.2995 -1.1706
   50MOL   C18714985   3.951   5.382   3.734  0.0310  1.0503  0.1665
   50MOL   C18814986   3.831   5.326   3.775  0.5322 -0.3732 -0.3239
   50MOL   N18914987   3.769   5.231   3.703 -0.2462 -0.1313  0.2479
   50MOL   H19014988   3.845   4.988   3.352  1.9481  1.8131  0.2291
   50MOL   H19114989   3.918   4.968   3.510 -0.0623 -0.3660 -0.4049
   50MOL   H19214990   3.666   5.071   3.560 -1.2655  0.2055 -0.9246
   50MOL   H19314991   4.011   5.186   3.469  0.0198 -0.4969  0.4046
   50MOL   H19414992   4.123   5.355   3.609  0.3062 -0.4348  1.4923
   50MOL   H19514993   3.985   5.474   3.777  2.7952 -0.0575  0.4629
   50MOL   H19614994   3.771   5.369   3.855 -0.4635  0.2192 -1.3793
   50MOL   C19714995   3.715   5.192   3.383 -0.6825 -0.5664  0.3786
   50MOL   C19814996   3.597   5.152   3.295  0.3666 -0.1861  0.0511
   50MOL   C19914997   3.464   5.188   3.362  0.4080  0.2804  0.1286
   50MOL   C20014998   3.382   5.078   3.405  0.3209 -0.2183 -0.4598
   50MOL   C20114999   3.278   5.107   3.494 -0.3675 -0.3505 -0.1762
   50MOL   C20215000   3.251   5.244   3.529  0.0120 -0.1791 -0.0872
   50MOL   C20315001   3.326   5.348   3.462 -0.0880  0.4353  0.7764
   50MOL   N20415002   3.443   5.318   3.389  0.5250  0.5329  0.4851
   50MOL   H20515003   3.804   5.208   3.322 -0.4513 -0.0573  0.8481
   50MOL   H20615004   3.689   5.293   3.416 -0.1600 -0.1991 -0.3315
   50MOL   H20715005   3.588   5.044   3.284  0.9587 -0.2973  0.6533
   50MOL   H20815006   3.411   4.977   3.379  1.8978  0.2822 -0.7017
   50MOL   H20915007   3.217   5.024   3.526  0.8215 -1.1012  0.1644
   50MOL   H21015008   3.177   5.263   3.605 -3.2554 -0.9962 -2.9225
   50MOL   H21115009   3.315   5.453   3.488  1.6419  0.2873  2.2155
   50MOL   C21215010   3.595   5.209   3.151  0.0768 -0.2879  0.4625
   50MOL   C21315011   3.673   5.139   3.037 -0.1536  0.7391  0.7636
   50MOL   C21415012   3.632   4.999   3.031 -0.8434  0.6395  0.6640
   50MOL   C21515013   3.724   4.892   3.050  0.6525  0.2253 -0.6380
   50MOL   C21615014   3.680   4.758   3.040 -0.5059 -0.4766 -0.0583
   50MOL   C21715015   3.544   4.738   3.024 -0.9171 -0.1334 -0.0481
   50MOL   C21815016   3.457   4.844   2.994 -0.9834 -0.3051 -0.0728
   50MOL   N21915017   3.500   4.972   2.999  0.4195 -0.2753 -0.5385
   50MOL   H22015018   3.621   5.314   3.159  0.7633 -0.3300 -0.9149
   50MOL   H22115019   3.491   5.208   3.118  0.9534  0.4692 -2.5696
   50MOL   H22215020   3.774   5.139   3.079  0.4900 -1.6729 -0.7026
   50MOL   H22315021   3.831   4.908   3.059  0.6485 -0.7085  1.1612
   50MOL   H22415022   3.743   4.671   3.055  0.2446  0.3717  1.9269
   50MOL   H22515023   3.504   4.638   3.016  3.3870 -1.7546 -2.6726
   50MOL   H22615024   3.354   4.826   2.968 -0.9255 -0.7547  0.0095
   50MOL   C22715025   3.671   5.203   2.891 -0.4928 -0.2760  0.2695
   50MOL   C22815026   3.721   5.347   2.885  0.0117 -0.4528 -0.3297
   50MOL   C22915027   3.855   5.366   2.970  0.3141 -0.3572  0.1575
   50MOL   C23015028   3.862   5.448   3.085 -0.2121 -1.4230 -0.3024
   50MOL   C23115029   3.980   5.463   3.158 -0.3678 -0.2846 -0.1232
   50MOL   C23215030   4.097   5.400   3.104 -0.1466  0.0905 -0.0428
   50MOL   C23315031   4.082   5.325   2.985 -0.0883 -0.3158 -0.1432
   50MOL   N23415032   3.964   5.308   2.918  0.4140 -0.2063 -0.1532
   50MOL   H23515033   3.566   5.211   2.862 -0.0095 -0.5608 -1.5814
   50MOL   H23615034   3.720   5.139   2.818  1.1689  0.6404  0.5695
   50MOL   H23715035   3.655   5.408   2.948  1.9093  0.7554  0.5537
   50MOL   H23815036   3.779   5.507   3.120  1.1151  0.3847 -0.1175
   50MOL   H23915037   3.985   5.524   3.247  2.1760 -1.2807  0.4631
   50MOL   H24015038   4.194   5.413   3.148 -1.2997 -1.3704  3.0512
   50MOL   H24115039   4.174   5.282   2.948 -0.1285 -2.2227  1.8252
   50MOL   C24215040   3.721   5.410   2.746  0.5593  0.2675  0.1187
   50MOL   C24315041   3.583   5.442   2.682  0.3753 -0.6876 -0.0375
   50MOL   C24415042   3.473   5.501   2.778  0.0652  0.5400 -0.7784
   50MOL   C24515043   3.346   5.435   2.790 -0.4008 -0.3983  0.2497
   50MOL   C24615044   3.262   5.485   2.886 -0.5603 -0.4466  0.3804
   50MOL   C24715045   3.307   5.584   2.972  0.1800  0.1531  0.4951
   50MOL   C24815046   3.434   5.643   2.954 -0.2566 -0.3441 -0.8850
   50MOL   N24915047   3.514   5.598   2.854 -0.6681  0.3029 -0.2172
   50MOL   H25015048   3.770   5.345   2.673  2.4733  0.6217  1.0501
   50MOL   H25115049   3.789   5.495   2.744  0.7841  0.0631 -2.8437
   50MOL   H25215050   3.546   5.344   2.653 -0.4309 -0.3427 -0.1713
   50MOL   H25315051   3.331   5.358   2.717  3.8897  0.1491 -1.3023
   50MOL   H25415052   3.165   5.439   2.900 -1.6589  1.6348 -0.1680
   50MOL   H25515053   3.239   5.612   3.051 -1.5459  0.3654 -1.0300
   50MOL   H25615054   3.479   5.709   3.027  1.5261 -1.5604 -0.8545
   50MOL   C25715055   3.594   5.534   2.559  0.0848  0.0983 -0.6914
   50MOL   C25815056   3.607   5.457   2.429  0.2116 -0.2968 -0.4815
   50MOL   C25915057   3.477   5.385   2.401 -0.0259 -0.0652 -0.7087
   50MOL   C26015058   3.470   5.244   2.388 -0.3094 -0.2967  1.0723
   50MOL   C26115059   3.345   5.183   2.378  0.3124 -0.3843 -0.4665
   50MOL   C26215060   3.236   5.270   2.360 -0.3035  0.2710  0.3775
   50MOL   C26315061   3.246   5.408   2.377  0.2121  0.6084 -0.1323
   50MOL   N26415062   3.368   5.467   2.399  0.1142  0.1967 -0.6499
   50MOL   H26515063   3.678   5.602   2.564 -1.8785  2.6248 -1.2127
   50MOL   H26615064   3.499   5.587   2.550 -0.7964 -1.4935 -1.1014
   50MOL   H26715065   3.681   5.378   2.440  1.9569  1.4374  0.3748
   50MOL   H26815066   3.557   5.182   2.398  0.0679  0.1694  0.7343
   50MOL   H26915067   3.347   5.077   2.355 -1.3288 -1.1676  2.8050
   50MOL   H27015068   3.140   5.223   2.344 -0.8492  0.9054  1.6668
   50MOL   H27115069   3.158   5.470   2.370  0.5623  1.3560  1.6972
   50MOL   C27215070   3.645   5.554   2.313 -0.1315  0.4792  0.1707
   50MOL   C27315071   3.797   5.586   2.298  0.3320 -0.1717 -0.1261
   50MOL   C27415072   3.891   5.468   2.288  0.0963 -0.0162  0.4423
   50MOL   C27515073   3.994   5.453   2.378  0.1576  0.2383  0.3502
   50MOL   C27615074   4.078   5.334   2.374  0.6061 -0.4659 -0.1450
   50MOL   C27715075   4.063   5.243   2.270 -0.1062  0.5341 -0.3490
   50MOL   C27815076   3.957   5.269   2.182  0.6175 -0.3025  0.2131
   50MOL   N27915077   3.874   5.378   2.183 -0.4220 -0.1117 -0.9908
   50MOL   H28015078   3.584   5.644   2.314  1.3026  1.4767  0.3253
   50MOL   H28115079   3.612   5.499   2.225  1.1970  0.5064 -0.3633
   50MOL   H28215080   3.813   5.641   2.390 -0.0229  1.4581 -1.0039
   50MOL   H28315081   4.012   5.529   2.452 -0.4705  0.9537 -0.2284
   50MOL   H28415082   4.138   5.310   2.460  1.3640  1.1244 -0.2036
   50MOL   H28515083   4.129   5.158   2.266 -3.1997 -2.0759  1.5907
   50MOL   H28615084   3.940   5.209   2.094 -1.0386  1.1081 -0.4654
   50MOL   C28715085   3.826   5.693   2.190  0.4577 -0.2763  0.2989
   50MOL   C28815086   3.734   5.810   2.184 -0.1009  0.2587  1.1258
   50MOL   C28915087   3.713   5.887   2.315 -0.5221  0.0935  0.1348
   50MOL   C29015088   3.583   5.912   2.360 -0.1498  0.8189  0.3422
   50MOL   C29115089   3.558   5.977   2.475  0.1352 -0.2354 -0.0581
   50MOL   C29215090   3.667   6.006   2.554 -0.1821  0.1906 -0.2313
   50MOL   C29315091   3.797   5.995   2.496  0.1096  0.0932 -0.0746
   50MOL   N29415092   3.823   5.936   2.378  0.2993 -0.3800  0.5191
   50MOL   H29515093   3.819   5.643   2.093  1.2075  1.2352 -0.5438
   50MOL   H29615094   3.930   5.727   2.190  0.0114  1.0758  0.5882
   50MOL   H29715095   3.637   5.773   2.149  1.5441 -0.5909 -2.7888
   50MOL   H29815096   3.506   5.875   2.294  0.8463 -0.5296 -0.0742
   50MOL   H29915097   3.459   6.002   2.511  1.2561  1.7639  1.7108
   50MOL   H30015098   3.654   6.039   2.656 -2.1098  0.1707 -0.4397
   50MOL   H30115099   3.887   6.002   2.555  0.9127 -0.2024 -1.2665
   50MOL   H30215100   3.770   5.877   2.105 -0.3709  0.6357  1.3201
   51MOL     C115101   4.373   4.473   4.154  0.2516  0.1600 -0.8920
   51MOL     C215102   4.417   4.402   4.283 -0.1394 -0.3636  0.3041
   51MOL     C315103   4.380   4.469   4.411  0.5826  0.4513 -1.0202
   51MOL     C415104   4.244   4.473   4.452  0.5369  0.4175 -0.5383
   51MOL     C515105   4.211   4.544   4.569  0.0906 -0.3198 -0.0533
   51MOL     C615106   4.326   4.583   4.648 -0.5251 -0.0885 -0.2672
   51MOL     C715107   4.454   4.571   4.602  0.5142 -0.1579  0.2819
   51MOL     N815108   4.482   4.512   4.483  0.4358 -0.1472  0.3300
   51MOL     H915109   4.396   4.403   4.074 -1.9438 -5.5822  3.2509
   51MOL    H1015110   4.267   4.474   4.130  0.2042  0.4001 -0.6836
   51MOL    H1115111   4.524   4.423   4.278 -0.0234 -0.2394  2.7161
   51MOL    H1215112   4.166   4.431   4.391 -0.3566  0.1786  0.7412
   51MOL    H1315113   4.111   4.552   4.607  0.5897  1.3101  0.9405
   51MOL    H1415114   4.307   4.636   4.740 -0.8637 -1.5414  0.5114
   51MOL    H1515115   4.545   4.610   4.646 -0.6181 -0.5304  3.0679
   51MOL    H1615116   4.418   4.569   4.126 -0.9315  1.1621  0.5415
   51MOL    C1715117   4.403   4.249   4.302 -0.3159 -0.4526 -0.0848
   51MOL    C1815118   4.489   4.156   4.211 -0.5216 -0.9456  0.8017
   51MOL    C1915119   4.641   4.176   4.213  0.2278 -0.3213  0.0531
   51MOL    C2015120   4.707   4.132   4.327 -0.4650 -0.5149 -0.4138
   51MOL    C2115121   4.849   4.147   4.332 -0.0249 -0.0782 -0.0813
   51MOL    C2215122   4.925   4.199   4.222  0.2788 -1.0079  0.1239
   51MOL    C2315123   4.846   4.250   4.115  0.6388  0.2841  0.2183
   51MOL    N2415124   4.710   4.233   4.107  0.3414  0.7661 -0.7479
   51MOL    H2515125   4.296   4.230   4.293 -0.2749  0.1231 -1.9849
   51MOL    H2615126   4.426   4.226   4.406 -0.0053 -0.4686 -0.1551
   51MOL    H2715127   4.466   4.193   4.111 -1.0410  0.1914  1.3387
   51MOL    H2815128   4.662   4.086   4.414 -1.0758 -1.3248 -1.1460
   51MOL    H2915129   4.908   4.133   4.421  0.8814  3.0155 -0.1598
   51MOL    H3015130   5.030   4.219   4.238  0.5575 -1.5381 -0.9826
   51MOL    H3115131   4.893   4.286   4.025  1.4331 -1.3942 -0.0511
   51MOL    C3215132   4.447   4.009   4.234 -0.1100  0.1627  0.1546
   51MOL    C3315133   4.494   3.899   4.139  0.0320 -0.0465 -0.6179
   51MOL    C3415134   4.434   3.914   3.996  0.5608  0.0608  0.4733
   51MOL    C3515135   4.334   3.828   3.938 -1.0546 -0.1371 -0.6341
   51MOL    C3615136   4.284   3.860   3.813 -0.3393  1.1005  0.3300
   51MOL    C3715137   4.328   3.973   3.746 -0.0428 -0.5158 -0.3948
   51MOL    C3815138   4.436   4.048   3.801  0.0729 -0.2463 -0.0917
   51MOL    N3915139   4.484   4.016   3.923  0.2262 -0.2750 -0.0487
   51MOL    H4015140   4.338   4.001   4.227 -0.3726  0.3021  3.2188
   51MOL    H4115141   4.472   3.973   4.334  0.7280  0.0186 -0.1079
   51MOL    H4215142   4.451   3.806   4.176  1.9754 -1.2158 -1.1941
   51MOL    H4315143   4.289   3.750   3.997 -0.5475  0.8182  1.0434
   51MOL    H4415144   4.211   3.807   3.754  1.7832 -0.6281 -0.8311
   51MOL    H4515145   4.278   3.992   3.652 -0.5542  0.9563  0.1643
   51MOL    H4615146   4.469   4.136   3.749 -1.7455 -0.0097 -0.8905
   51MOL    C4715147   4.641   3.875   4.134  0.1654  0.2027 -0.0007
   51MOL    C4815148   4.674   3.735   4.074  0.2590  0.5150 -0.1377
   51MOL    C4915149   4.821   3.734   4.030 -0.4777  0.2227 -0.1923
   51MOL    C5015150   4.924   3.767   4.123 -0.0990  0.1767  0.5281
   51MOL    C5115151   5.061   3.764   4.086  0.5106 -0.1745  0.4878
   51MOL    C5215152   5.087   3.730   3.955  0.2865 -0.6974 -0.7511
   51MOL    C5315153   4.978   3.710   3.865 -0.2933  0.2987 -0.1820
   51MOL    N5415154   4.850   3.712   3.899 -0.4340  0.0760 -0.5154
   51MOL    H5515155   4.691   3.880   4.231  0.9623  0.8456 -0.4429
   51MOL    H5615156   4.698   3.947   4.076  0.1505 -0.5947 -1.0241
   51MOL    H5715157   4.625   3.723   3.978  0.5203  1.9983 -0.4710
   51MOL    H5815158   4.899   3.795   4.224 -1.8862 -0.8543  0.3866
   51MOL    H5915159   5.139   3.790   4.157 -0.4634  0.1740  1.4323
   51MOL    H6015160   5.187   3.715   3.917 -0.5116 -1.5933 -2.5867
   51MOL    H6115161   5.006   3.685   3.764 -1.4962 -0.4075 -0.3571
   51MOL    C6215162   4.637   3.618   4.168  0.0785 -0.0614 -0.0909
   51MOL    C6315163   4.729   3.496   4.167 -0.7264  0.3358  0.0843
   51MOL    C6415164   4.713   3.410   4.287  0.1683 -0.1036 -0.0397
   51MOL    C6515165   4.817   3.396   4.381  0.6095  0.0289 -0.4199
   51MOL    C6615166   4.796   3.322   4.502 -0.4573 -0.2186  0.0876
   51MOL    C6715167   4.670   3.269   4.520  0.8015 -0.3704  0.4406
   51MOL    C6815168   4.570   3.285   4.423  0.0181 -0.4915 -0.0104
   51MOL    N6915169   4.588   3.357   4.311  0.0845  0.2148 -0.5458
   51MOL    H7015170   4.530   3.596   4.160 -0.2071  0.4269  2.1106
   51MOL    H7115171   4.649   3.660   4.268  1.6677 -3.1835  1.0836
   51MOL    H7215172   4.827   3.543   4.179 -1.5318  2.2667 -0.7716
   51MOL    H7315173   4.915   3.438   4.362  0.6808  0.1868  0.2736
   51MOL    H7415174   4.870   3.313   4.579  0.0961  1.3805 -0.2387
   51MOL    H7515175   4.656   3.206   4.606 -1.3804 -0.2838  0.1613
   51MOL    H7615176   4.479   3.232   4.449 -0.6063  1.1268  1.2115
   51MOL    C7715177   4.713   3.413   4.035 -0.0583 -0.0803 -0.1193
   51MOL    C7815178   4.831   3.315   4.022  0.1633  0.0614  1.0156
   51MOL    C7915179   4.807   3.212   3.914  0.2304 -0.0927  0.0342
   51MOL    C8015180   4.778   3.079   3.956 -0.2586  0.5255  0.0738
   51MOL    C8115181   4.755   2.980   3.856 -0.4908  0.6072  0.4483
   51MOL    C8215182   4.750   3.022   3.720 -0.2716 -0.7492  0.5091
   51MOL    C8315183   4.777   3.154   3.684 -0.4612  0.3388  0.0758
   51MOL    N8415184   4.813   3.245   3.779  0.4551 -0.2637 -0.2596
   51MOL    H8515185   4.711   3.475   3.945  1.0223  0.9999  0.5897
   51MOL    H8615186   4.622   3.353   4.035 -0.3385  0.3358  0.8946
   51MOL    H8715187   4.846   3.265   4.118 -1.5920  0.2681  1.4162
   51MOL    H8815188   4.771   3.060   4.062  1.4422 -0.7324 -0.0257
   51MOL    H8915189   4.725   2.879   3.882 -0.3065  0.1059 -1.2240
   51MOL    H9015190   4.727   2.946   3.648  3.6959 -1.1455 -0.4491
   51MOL    H9115191   4.780   3.187   3.581  2.5639  1.4942  0.5061
   51MOL    C9215192   4.962   3.383   3.992 -0.9151 -0.4529 -0.7290
   51MOL    C9315193   5.082   3.331   4.075  0.7310  0.4225 -0.1655
   51MOL    C9415194   5.116   3.180   4.049  0.7933  0.2651  0.3754
   51MOL    C9515195   5.200   3.145   3.943  0.4021 -0.1640  0.3737
   51MOL    C9615196   5.220   3.010   3.921  0.1038 -0.2515  0.2759
   51MOL    C9715197   5.166   2.916   4.011  0.1332 -0.5182 -0.4833
   51MOL    C9815198   5.099   2.962   4.122  0.0798 -0.2228 -0.6042
   51MOL    N9915199   5.068   3.094   4.138  0.4664  0.1109  0.7008
   51MOL   H10015200   4.949   3.490   4.010 -2.0714 -0.5186 -1.1866
   51MOL   H10115201   4.986   3.375   3.886 -2.4702 -2.0285 -0.9737
   51MOL   H10215202   5.056   3.339   4.180 -1.2121  0.5873 -0.6502
   51MOL   H10315203   5.249   3.219   3.882  0.9016 -1.1203 -0.3897
   51MOL   H10415204   5.289   2.989   3.841 -0.7425  0.4949 -0.6663
   51MOL   H10515205   5.193   2.812   4.005  0.5692 -0.3859 -0.8729
   51MOL   H10615206   5.070   2.893   4.200 -2.1741  0.5976 -0.6856
   51MOL   C10715207   5.196   3.428   4.060 -0.1467  0.0174  0.4751
   51MOL   C10815208   5.318   3.391   4.144 -0.6320 -0.3379  0.0298
   51MOL   C10915209   5.437   3.472   4.096  0.1793  0.3466  0.7848
   51MOL   C11015210   5.553   3.407   4.053  0.1234 -0.2332 -0.1505
   51MOL   C11115211   5.668   3.480   4.029  0.3971 -0.0871 -0.5738
   51MOL   C11215212   5.653   3.620   4.016 -0.4676  0.2265  0.4153
   51MOL   C11315213   5.530   3.677   4.050  0.8282  0.5323  0.2882
   51MOL   N11415214   5.422   3.605   4.079 -0.2740  0.2633  0.3859
   51MOL   H11515215   5.169   3.528   4.094  0.4044 -0.1990  1.5637
   51MOL   H11615216   5.229   3.434   3.956  0.5878 -0.3233  0.6857
   51MOL   H11715217   5.350   3.287   4.133 -0.9115 -0.4504  0.2831
   51MOL   H11815218   5.562   3.299   4.062 -0.8890 -0.2658  0.4901
   51MOL   H11915219   5.761   3.437   3.995  0.0824 -3.1786  2.2438
   51MOL   H12015220   5.742   3.675   3.986  0.6948 -2.2316 -0.8438
   51MOL   H12115221   5.502   3.779   4.028 -2.1350 -0.2328  0.2573
   51MOL   C12215222   5.294   3.413   4.295  0.3346 -0.2615  0.2763
   51MOL   C12315223   5.417   3.361   4.376  0.0927 -0.4277 -0.7148
   51MOL   C12415224   5.471   3.484   4.454  0.3041  0.5637  0.0890
   51MOL   C12515225   5.585   3.552   4.405  0.3280  0.1663  0.1256
   51MOL   C12615226   5.618   3.681   4.464 -0.1913  0.3328 -0.4275
   51MOL   C12715227   5.536   3.735   4.565  0.0459 -0.0648 -0.1053
   51MOL   C12815228   5.425   3.658   4.605 -0.0277  0.4320  0.3714
   51MOL   N12915229   5.395   3.539   4.555  0.4132 -0.2069  1.1562
   51MOL   H13015230   5.209   3.353   4.328  1.7697 -2.5320 -0.0553
   51MOL   H13115231   5.266   3.515   4.322  1.5312  0.5490 -1.4703
   51MOL   H13215232   5.503   3.332   4.316 -0.7416 -1.7786 -1.2915
   51MOL   H13315233   5.646   3.509   4.328 -0.3798  0.4484 -0.6026
   51MOL   H13415234   5.704   3.741   4.440 -0.7308  2.5159  2.8025
   51MOL   H13515235   5.550   3.835   4.602  1.5824  0.3680 -1.7789
   51MOL   H13615236   5.360   3.690   4.685 -0.5415 -0.9994  0.5393
   51MOL   C13715237   5.382   3.240   4.465 -0.0606 -0.1236 -0.0311
   51MOL   C13815238   5.348   3.112   4.397  0.0585  0.5785 -0.0642
   51MOL   C13915239   5.464   3.042   4.322  0.6048 -0.5174 -0.2547
   51MOL   C14015240   5.555   2.960   4.393 -0.0025 -0.6565 -0.4900
   51MOL   C14115241   5.656   2.900   4.319  0.1846  0.3536  0.0633
   51MOL   C14215242   5.673   2.940   4.181 -0.0466 -0.0392 -0.1064
   51MOL   C14315243   5.577   3.017   4.123 -0.0222 -0.0435 -0.7348
   51MOL   N14415244   5.475   3.070   4.191 -0.0238  0.1747  0.1800
   51MOL   H14515245   5.310   3.271   4.541  0.3538  0.4767  0.1223
   51MOL   H14615246   5.476   3.219   4.518 -0.5016 -1.7305  0.1322
   51MOL   H14715247   5.266   3.131   4.328 -0.3350 -2.3953 -0.5178
   51MOL   H14815248   5.546   2.945   4.499 -0.4590 -0.0517 -0.4381
   51MOL   H14915249   5.728   2.836   4.368 -1.4030  1.6079  4.2479
   51MOL   H15015250   5.758   2.903   4.126 -0.2651  1.9479 -1.8303
   51MOL   H15115251   5.592   3.043   4.019  0.8852  1.5794 -0.2211
   51MOL   C15215252   5.279   3.010   4.500  0.2382 -0.0652 -0.0134
   51MOL   C15315253   5.145   3.058   4.555 -0.8357 -0.1333 -0.1001
   51MOL   C15415254   5.036   2.974   4.501  0.0721  0.3293 -1.0817
   51MOL   C15515255   4.946   3.025   4.401  0.0467  0.0705 -0.1490
   51MOL   C15615256   4.854   2.935   4.342 -0.1126 -0.3640  0.1840
   51MOL   C15715257   4.863   2.797   4.370 -0.0476 -0.1311  0.4488
   51MOL   C15815258   4.954   2.758   4.463 -0.0103  0.2577 -0.0370
   51MOL   N15915259   5.035   2.842   4.534  0.2132 -0.5081  0.1596
   51MOL   H16015260   5.347   2.990   4.582 -0.2975 -0.4856  0.3339
   51MOL   H16115261   5.266   2.914   4.449 -0.6356  0.3740 -0.6416
   51MOL   H16215262   5.125   3.161   4.524 -1.4626  0.8878  3.4258
   51MOL   H16315263   4.956   3.124   4.359 -1.5056 -0.3267 -1.4796
   51MOL   H16415264   4.790   2.982   4.270  1.7102 -0.2437 -1.4055
   51MOL   H16515265   4.801   2.716   4.333  0.5983 -0.3274 -0.2107
   51MOL   H16615266   4.949   2.655   4.498  5.3888 -1.2329 -3.0432
   51MOL   C16715267   5.135   3.056   4.710 -0.0579 -0.9993 -0.3159
   51MOL   C16815268   5.212   3.152   4.795 -0.0853  0.3690 -0.2825
   51MOL   C16915269   5.118   3.273   4.827 -0.8221  1.1540 -0.0480
   51MOL   C17015270   5.151   3.409   4.796  0.4020 -0.6695  0.6141
   51MOL   C17115271   5.069   3.511   4.843 -0.2181 -0.0811 -0.7212
   51MOL   C17215272   4.958   3.478   4.922 -0.2173 -0.4751 -0.6308
   51MOL   C17315273   4.930   3.343   4.942 -0.8586 -0.2977 -0.4433
   51MOL   N17415274   5.007   3.242   4.903 -0.3161 -0.2800  0.4091
   51MOL   H17515275   5.165   2.960   4.751  1.9157 -0.8479 -1.3444
   51MOL   H17615276   5.029   3.061   4.733  0.5844  0.2376  2.6730
   51MOL   H17715277   5.288   3.209   4.741  0.7097 -0.5335 -0.1267
   51MOL   H17815278   5.244   3.438   4.749  0.0238  3.1167  2.0047
   51MOL   H17915279   5.103   3.612   4.824 -0.8142 -0.5690 -4.7528
   51MOL   H18015280   4.894   3.552   4.968  0.5948 -0.4786  0.5348
   51MOL   H18115281   4.835   3.308   4.980 -1.9142  1.9734 -0.8999
   51MOL   C18215282   5.290   3.098   4.919 -0.2393 -0.1422  0.2268
   51MOL   C18315283   5.447   3.102   4.893  0.2109 -0.6930 -0.6969
   51MOL   C18415284   5.499   3.243   4.888 -0.2477  0.0111 -0.6832
   51MOL   C18515285   5.484   3.338   4.993 -0.1281  0.0992 -0.2307
   51MOL   C18615286   5.533   3.467   4.974  0.5648 -0.1256  0.4286
   51MOL   C18715287   5.602   3.502   4.856  0.1272 -0.3912  0.5883
   51MOL   C18815288   5.609   3.397   4.761 -0.2585  0.9723  0.2093
   51MOL   N18915289   5.564   3.270   4.774 -0.5714 -0.4259  0.2633
   51MOL   H19015290   5.259   3.000   4.954 -1.2476  0.1730  0.2406
   51MOL   H19115291   5.254   3.161   5.001  0.9738  0.3616  0.3843
   51MOL   H19215292   5.457   3.060   4.792  0.5531 -1.4319 -0.3667
   51MOL   H19315293   5.431   3.316   5.084 -0.7603  1.5359 -0.2339
   51MOL   H19415294   5.513   3.539   5.052 -2.4655 -0.6959  0.2305
   51MOL   H19515295   5.633   3.602   4.830  1.6986 -0.8343  0.7118
   51MOL   H19615296   5.667   3.411   4.671 -0.9351 -0.2756 -0.4328
   51MOL   C19715297   5.531   3.013   4.993 -0.1764  0.2366 -0.3443
   51MOL   C19815298   5.478   2.871   5.006 -0.3801 -0.8725 -0.7715
   51MOL   C19915299   5.454   2.799   4.873 -0.0285  0.2258 -0.6900
   51MOL   C20015300   5.328   2.743   4.841 -0.8911  0.1604  0.6747
   51MOL   C20115301   5.321   2.669   4.724  0.1385  0.0722 -0.4600
   51MOL   C20215302   5.436   2.653   4.637  0.4981  0.2272  0.0353
   51MOL   C20315303   5.560   2.706   4.682 -0.2623  0.7427  0.3299
   51MOL   N20415304   5.561   2.791   4.791  0.0792  0.4599  0.3911
   51MOL   H20515305   5.555   3.075   5.079  1.7264 -0.0041 -0.6778
   51MOL   H20615306   5.627   3.016   4.941 -0.8949 -0.0451 -1.7331
   51MOL   H20715307   5.384   2.872   5.062  0.7458  0.1183  1.1832
   51MOL   H20815308   5.236   2.739   4.898 -0.8780 -1.0371  0.6153
   51MOL   H20915309   5.220   2.639   4.701 -0.0297  1.9889 -2.3298
   51MOL   H21015310   5.417   2.611   4.539  0.3195  0.3532  0.0149
   51MOL   H21115311   5.655   2.684   4.635 -0.0920  1.9353  0.1071
   51MOL   C21215312   5.562   2.783   5.103  0.3980 -0.8193  0.1452
   51MOL   C21315313   5.571   2.827   5.250 -0.2150  0.3564 -0.0237
   51MOL   C21415314   5.430   2.827   5.317  0.4061  0.4768  0.6249
   51MOL   C21515315   5.350   2.705   5.324  0.0510  0.1260  0.4996
   51MOL   C21615316   5.220   2.715   5.374  0.4620 -0.5420 -0.0829
   51MOL   C21715317   5.176   2.843   5.418  0.0867  0.2277 -0.4291
   51MOL   C21815318   5.262   2.954   5.405  0.0048 -0.1168 -0.1600
   51MOL   N21915319   5.386   2.945   5.351  0.7805  0.4686  0.3728
   51MOL   H22015320   5.666   2.786   5.071  0.0691  0.0269 -0.8612
   51MOL   H22115321   5.523   2.681   5.102 -1.0210 -0.2910 -0.4416
   51MOL   H22215322   5.623   2.922   5.263  2.0781 -1.1577  2.2719
   51MOL   H22315323   5.399   2.613   5.297 -1.6939 -1.1121  1.4282
   51MOL   H22415324   5.150   2.633   5.382  0.8219 -0.8653 -0.2658
   51MOL   H22515325   5.078   2.867   5.457  0.1771  0.5511 -0.4016
   51MOL   H22615326   5.232   3.052   5.439 -0.3029  0.4835 -2.0894
   51MOL   C22715327   5.665   2.731   5.329  0.3663 -0.7433  0.4990
   51MOL   C22815328   5.692   2.759   5.484  0.2191  0.4536  0.2305
   51MOL   C22915329   5.791   2.650   5.528 -0.6589 -0.7616 -0.1281
   51MOL   C23015330   5.742   2.543   5.605 -0.3833  0.4300 -0.1612
   51MOL   C23115331   5.831   2.443   5.636 -0.1991 -0.2077 -0.3976
   51MOL   C23215332   5.965   2.457   5.600 -0.5260  0.5008  0.1492
   51MOL   C23315333   6.009   2.571   5.535  0.1056  0.5103  0.3730
   51MOL   N23415334   5.920   2.663   5.489 -0.6287 -0.3607  0.0708
   51MOL   H23515335   5.758   2.721   5.272 -0.4818 -3.0876 -0.5553
   51MOL   H23615336   5.625   2.631   5.312  0.1037 -0.3013 -1.7032
   51MOL   H23715337   5.595   2.743   5.531 -0.0910  1.7759  0.0589
   51MOL   H23815338   5.640   2.541   5.638 -0.3861 -0.4825 -0.2112
   51MOL   H23915339   5.794   2.360   5.693 -1.4955 -0.5076 -1.6556
   51MOL   H24015340   6.034   2.381   5.634 -1.8946  0.0917  2.1764
   51MOL   H24115341   6.112   2.574   5.503 -0.8161 -0.6335 -2.9344
   51MOL   C24215342   5.749   2.904   5.523 -0.2237  0.1703  0.4649
   51MOL   C24315343   5.650   2.999   5.599 -0.0569 -0.2384 -0.3487
   51MOL   C24415344   5.605   2.934   5.725 -0.1819  0.5612 -0.3237
   51MOL   C24515345   5.468   2.941   5.746  0.6220  0.3880  0.1231
   51MOL   C24615346   5.421   2.873   5.861  0.1915  0.8646 -0.1139
   51MOL   C24715347   5.516   2.820   5.953 -0.3333 -0.1843  0.2363
   51MOL   C24815348   5.652   2.834   5.927  0.4388  1.3781  0.4948
   51MOL   N24915349   5.698   2.890   5.812  0.3477 -0.1963 -0.1753
   51MOL   H25015350   5.781   2.943   5.427 -2.1685 -1.5631 -0.9540
   51MOL   H25115351   5.837   2.892   5.586 -0.2561 -0.4756  0.3932
   51MOL   H25215352   5.569   3.021   5.529  1.0057 -0.3968 -1.6543
   51MOL   H25315353   5.403   2.987   5.673  0.3635  2.1814  1.4234
   51MOL   H25415354   5.319   2.839   5.869 -0.0767  1.0881 -2.3798
   51MOL   H25515355   5.477   2.768   6.038  3.0327 -1.3698  1.1519
   51MOL   H25615356   5.725   2.805   6.001  2.9961  1.1059 -2.0437
   51MOL   C25715357   5.721   3.133   5.635 -0.4000  0.4348 -0.0144
   51MOL   C25815358   5.721   3.244   5.524 -0.1000 -0.1763  1.2909
   51MOL   C25915359   5.580   3.299   5.500  0.8101  0.4786  0.6796
   51MOL   C26015360   5.502   3.252   5.394  0.9289 -0.2983 -0.2050
   51MOL   C26115361   5.373   3.306   5.373 -0.8810  0.1910 -0.3086
   51MOL   C26215362   5.330   3.408   5.454  0.0019  0.0242 -0.4007
   51MOL   C26315363   5.410   3.445   5.557  0.2270  0.1873  0.0823
   51MOL   N26415364   5.526   3.384   5.586 -0.4462  0.1691  0.0168
   51MOL   H26515365   5.822   3.114   5.673 -1.0512  0.1891  1.6408
   51MOL   H26615366   5.677   3.181   5.722  0.2217  0.1745  0.4483
   51MOL   H26715367   5.754   3.204   5.428 -2.5911 -0.6033  0.5762
   51MOL   H26815368   5.542   3.173   5.333  1.3382 -0.1388 -0.1421
   51MOL   H26915369   5.316   3.261   5.292 -1.2068  0.3339 -0.1546
   51MOL   H27015370   5.231   3.451   5.443  0.6048  1.5740  0.1057
   51MOL   H27115371   5.379   3.523   5.623  0.3574  0.1557  0.1809
   51MOL   C27215372   5.817   3.364   5.561 -0.6069  0.2102  0.2513
   51MOL   C27315373   5.835   3.457   5.433 -0.2491 -0.1850 -0.2173
   51MOL   C27415374   5.738   3.572   5.441  0.3554  0.1144 -0.5028
   51MOL   C27515375   5.643   3.591   5.342  0.1422 -0.1957  0.4543
   51MOL   C27615376   5.545   3.692   5.355 -0.2982 -0.1477  0.0242
   51MOL   C27715377   5.556   3.774   5.471  0.2964  0.7955 -0.2095
   51MOL   C27815378   5.672   3.757   5.558  0.2234  0.6393  0.8620
   51MOL   N27915379   5.754   3.654   5.544 -0.0609 -0.3805  0.0039
   51MOL   H28015380   5.913   3.324   5.591 -0.3223 -0.0303 -0.9502
   51MOL   H28115381   5.773   3.412   5.648  0.6093  1.4309  0.1991
   51MOL   H28215382   5.806   3.397   5.347  1.1464  0.3546 -1.0844
   51MOL   H28315383   5.641   3.527   5.254 -1.1120 -0.5950  0.7631
   51MOL   H28415384   5.479   3.721   5.275 -2.9780  0.9432  2.5766
   51MOL   H28515385   5.489   3.858   5.480  1.2044  1.5743 -0.6543
   51MOL   H28615386   5.698   3.834   5.629  3.0660  0.4422  0.0979
   51MOL   C28715387   5.980   3.507   5.406 -0.0459  0.4838 -0.2198
   51MOL   C28815388   6.085   3.413   5.354 -0.4628  0.8680  0.0157
   51MOL   C28915389   6.020   3.328   5.234  0.2596 -0.1831  0.0833
   51MOL   C29015390   5.986   3.192   5.252 -0.0115  0.0350 -0.1372
   51MOL   C29115391   5.910   3.134   5.153 -0.2128  0.1411  0.5978
   51MOL   C29215392   5.867   3.207   5.040  0.5482  0.0397  0.3984
   51MOL   C29315393   5.905   3.344   5.039 -0.3904 -0.2379 -0.0988
   51MOL   N29415394   5.984   3.401   5.134  0.0368 -0.7472  0.0827
   51MOL   H29515395   6.017   3.554   5.496  0.2531  1.8762 -1.0606
   51MOL   H29615396   5.979   3.593   5.339  1.2374  1.6782  1.2793
   51MOL   H29715397   6.123   3.349   5.433  2.0594 -1.2789 -2.7763
   51MOL   H29815398   6.021   3.133   5.335  0.0958  0.9703  0.4980
   51MOL   H29915399   5.895   3.027   5.155  0.1705  0.1132  2.8317
   51MOL   H30015400   5.799   3.169   4.966 -1.4586  2.2865  1.0049
   51MOL   H30115401   5.868   3.409   4.961 -2.0548 -0.1715  0.7295
   51MOL   H30215402   6.163   3.468   5.301 -0.5263  2.5568  1.6355
   52MOL     C115403   0.012   6.857   5.848 -0.6201  0.3190 -0.4860
   52MOL     C215404   8.149   6.895   5.696 -0.3894 -0.4313  0.0371
   52MOL     C315405   0.127   6.902   5.631 -0.2120  0.3480  0.4358
   52MOL     C415406   0.185   7.022   5.600  0.6588 -0.4897 -0.2710
   52MOL     C515407   0.315   7.019   5.549  0.1703 -0.8586 -0.5569
   52MOL     C615408   0.384   6.898   5.534 -0.2306 -0.1473  0.0890
   52MOL     C715409   0.316   6.779   5.566  0.2402  0.1619 -0.1012
   52MOL     N815410   0.193   6.784   5.624  0.0616  0.2443 -0.3607
   52MOL     H915411   8.082   6.884   5.915 -1.7382 -1.0840 -1.2489
   52MOL    H1015412   0.002   6.750   5.833  0.4591  0.1962 -0.3708
   52MOL    H1115413   8.114   6.998   5.690  1.1637  0.1171 -0.0332
   52MOL    H1215414   0.136   7.118   5.613 -0.2720 -0.7453 -1.8870
   52MOL    H1315415   0.368   7.110   5.524 -2.8099  1.3072  0.6931
   52MOL    H1415416   0.478   6.882   5.484 -1.8979 -1.5472 -2.7214
   52MOL    H1515417   0.354   6.682   5.538 -1.8866 -0.3704 -1.2264
   52MOL    H1615418   0.107   6.891   5.890 -0.6866 -1.8654  1.5806
   52MOL    C1715419   8.043   6.812   5.615  0.0122 -0.0056 -0.0272
   52MOL    C1815420   8.070   6.800   5.458 -0.1118  0.1854  0.3053
   52MOL    C1915421   7.992   6.688   5.387  0.3920  0.1560 -0.1286
   52MOL    C2015422   8.052   6.567   5.345 -0.8524 -0.2965 -0.0639
   52MOL    C2115423   7.981   6.463   5.282  0.1297 -0.4402  0.4893
   52MOL    C2215424   7.839   6.478   5.280 -0.1350 -0.1859  0.5078
   52MOL    C2315425   7.782   6.593   5.339  0.1701  0.0822 -0.3035
   52MOL    N2415426   7.857   6.691   5.389 -0.2271  0.0871  0.3003
   52MOL    H2515427   7.946   6.858   5.638  0.0346  0.2863 -0.4924
   52MOL    H2615428   8.042   6.708   5.645 -1.5812 -0.2037 -0.6962
   52MOL    H2715429   0.021   6.763   5.451 -0.0118  0.3194  1.0914
   52MOL    H2815430   0.006   6.559   5.365 -0.7431  2.0753  0.4456
   52MOL    H2915431   8.027   6.379   5.231 -0.1644 -0.8887  0.9608
   52MOL    H3015432   7.776   6.404   5.233  1.6753 -0.9088 -0.8430
   52MOL    H3115433   7.674   6.603   5.343  0.3348  1.9719 -0.1393
   52MOL    C3215434   8.068   6.933   5.380 -0.9324 -0.2096 -0.5138
   52MOL    C3315435   8.137   6.932   5.238  0.7109 -0.3212 -0.4736
   52MOL    C3415436   0.128   6.879   5.224 -0.1678 -0.0374 -0.2427
   52MOL    C3515437   0.240   6.960   5.238  0.1737 -0.7438 -0.3134
   52MOL    C3615438   0.369   6.917   5.207  0.0812  0.4086 -0.6670
   52MOL    C3715439   0.381   6.778   5.179  0.0617 -0.4244  0.1267
   52MOL    C3815440   0.268   6.698   5.176 -0.4262  0.1610 -0.2156
   52MOL    N3915441   0.142   6.748   5.202  0.8491 -0.0655 -0.1077
   52MOL    H4015442   8.126   7.008   5.433 -3.4689  0.2350  1.7413
   52MOL    H4115443   7.973   6.986   5.380 -0.5145  0.5542 -1.1496
   52MOL    H4215444   8.141   7.041   5.230 -1.3036 -0.0566  1.5309
   52MOL    H4315445   0.241   7.068   5.245  0.9348 -0.7793  0.2058
   52MOL    H4415446   0.451   6.987   5.209  0.8317 -0.4629  1.3964
   52MOL    H4515447   0.475   6.738   5.145  0.0061  0.0183 -0.5459
   52MOL    H4615448   0.270   6.593   5.151  0.4253 -0.0455  0.6892
   52MOL    C4715449   8.050   6.902   5.115 -0.0881 -0.8412  0.1790
   52MOL    C4815450   8.111   6.966   4.985  0.6461 -0.8292 -0.2686
   52MOL    C4915451   8.049   6.893   4.863 -0.6250 -0.1671  0.1705
   52MOL    C5015452   8.131   6.831   4.767  0.3743 -0.6740 -0.3120
   52MOL    C5115453   8.073   6.761   4.663  0.0036  0.2230 -0.6972
   52MOL    C5215454   7.934   6.775   4.645  0.2928  0.5011 -0.0801
   52MOL    C5315455   7.861   6.848   4.743  0.2920  0.1611 -0.4453
   52MOL    N5415456   7.920   6.904   4.845  0.6802  0.8264  0.3591
   52MOL    H5515457   7.948   6.935   5.135  0.7986  1.0720  1.8291
   52MOL    H5615458   8.033   6.796   5.097  0.3110 -0.8050 -0.4509
   52MOL    H5715459   0.067   6.953   4.971  0.6373  0.1234 -1.3080
   52MOL    H5815460   0.086   6.829   4.780  0.5264 -1.5057 -1.6523
   52MOL    H5915461   8.139   6.696   4.608 -1.4858 -1.5432 -0.4555
   52MOL    H6015462   7.884   6.717   4.570 -0.3770 -1.5738  1.9129
   52MOL    H6115463   7.753   6.856   4.735  0.3580  0.4711 -1.0900
   52MOL    C6215464   8.083   7.118   4.979 -0.4488  0.5326  0.1114
   52MOL    C6315465   8.100   7.192   4.843  0.2651 -0.4013 -0.5665
   52MOL    C6415466   7.978   7.194   4.751  0.0598  0.4719  0.2825
   52MOL    C6515467   7.990   7.148   4.619  0.0658 -0.2287  0.3261
   52MOL    C6615468   7.873   7.161   4.536  0.0052  1.0148 -0.4930
   52MOL    C6715469   7.753   7.212   4.591  0.0749 -0.0314  0.2070
   52MOL    C6815470   7.753   7.248   4.726 -0.1133 -0.3824  0.3116
   52MOL    N6915471   7.864   7.246   4.806 -0.1207  0.5710  0.2368
   52MOL    H7015472   8.151   7.154   5.056  2.0203  0.7402 -2.0918
   52MOL    H7115473   7.982   7.139   5.015 -1.4131 -1.4808 -1.3093
   52MOL    H7215474   0.016   7.141   4.775 -0.1304 -1.0335 -0.4892
   52MOL    H7315475   8.086   7.114   4.586  0.0449  0.0674 -0.0472
   52MOL    H7415476   7.886   7.125   4.435  0.4366  1.3608 -0.5643
   52MOL    H7515477   7.669   7.220   4.524 -1.4755  0.4700  2.1778
   52MOL    H7615478   7.675   7.310   4.767 -0.9725 -0.9461 -0.4726
   52MOL    C7715479   8.138   7.339   4.863 -0.1959 -0.0308  0.2477
   52MOL    C7815480   0.133   7.362   4.908  0.0103  0.3994 -0.3223
   52MOL    C7915481   0.237   7.322   4.808 -0.7590  0.2380  0.7010
   52MOL    C8015482   0.324   7.223   4.846 -0.2757  0.2733 -0.1636
   52MOL    C8115483   0.407   7.172   4.746  0.2133  0.0319 -0.3595
   52MOL    C8215484   0.394   7.217   4.614  0.1348  0.5605  0.3430
   52MOL    C8315485   0.312   7.328   4.586  0.7266  0.2617  0.4177
   52MOL    N8415486   0.226   7.380   4.681 -0.1764  0.6689 -0.3887
   52MOL    H8515487   8.063   7.388   4.924 -1.2265  1.2494 -1.9842
   52MOL    H8615488   8.132   7.379   4.762  1.5434  1.0651  0.5550
   52MOL    H8715489   0.144   7.301   4.997 -1.1211 -0.7051 -0.9309
   52MOL    H8815490   0.335   7.188   4.947 -0.3960 -0.8929 -0.5475
   52MOL    H8915491   0.479   7.096   4.771  0.6113  0.8860  1.1396
   52MOL    H9015492   0.446   7.177   4.528  0.5564  1.5721  0.1109
   52MOL    H9115493   0.308   7.373   4.488  1.7779 -2.0536 -0.7314
   52MOL    C9215494   0.165   7.504   4.957 -0.5719 -1.0011 -0.6027
   52MOL    C9315495   0.072   7.573   5.061 -0.2856 -0.0272 -0.1880
   52MOL    C9415496   0.050   7.485   5.182 -0.5468 -0.7236 -1.1653
   52MOL    C9515497   8.073   7.431   5.216  0.1337 -1.0243 -0.0418
   52MOL    C9615498   8.061   7.353   5.332 -0.1552 -0.0464 -0.4254
   52MOL    C9715499   0.017   7.338   5.417  0.1462  0.0410  0.3850
   52MOL    C9815500   0.144   7.403   5.381  0.6144  0.1435  0.2690
   52MOL    N9915501   0.159   7.460   5.259  0.1621 -0.8601  0.0351
   52MOL   H10015502   0.173   7.567   4.869 -1.2258  0.0358  0.0680
   52MOL   H10115503   0.262   7.494   5.007 -0.7302  2.6129  0.5997
   52MOL   H10215504   8.124   7.591   5.022 -0.3913  1.5270  0.7825
   52MOL   H10315505   7.990   7.458   5.153  1.0049 -1.4239 -1.3785
   52MOL   H10415506   7.962   7.320   5.363 -0.2678 -0.1295 -0.8760
   52MOL   H10515507   0.011   7.284   5.510  0.4892  0.0340  0.4023
   52MOL   H10615508   0.235   7.405   5.439 -0.1831  1.7694  1.5193
   52MOL   C10715509   0.132   7.709   5.098 -0.3566 -0.0324 -0.1488
   52MOL   C10815510   0.041   7.807   5.183 -0.3696 -0.1776 -0.1743
   52MOL   C10915511   8.046   7.832   5.129 -1.3413  0.7739  0.2834
   52MOL   C11015512   8.025   7.927   5.025  0.2743  0.6493  0.5280
   52MOL   C11115513   7.905   7.934   4.952 -0.2061  0.4678  0.6643
   52MOL   C11215514   7.811   7.833   4.988 -0.4668 -1.1597  0.6054
   52MOL   C11315515   7.832   7.746   5.097 -0.8901  0.9838  0.0968
   52MOL   N11415516   7.948   7.744   5.169  0.7514 -0.3351  0.0974
   52MOL   H11515517   0.139   7.762   5.003 -0.8960 -0.4565 -0.4256
   52MOL   H11615518   0.232   7.702   5.140 -0.3761 -0.3296 -0.1493
   52MOL   H11715519   0.086   7.904   5.161 -0.7965  0.8069  3.0429
   52MOL   H11815520   8.101   7.998   4.996  1.0048 -0.1506  0.4789
   52MOL   H11915521   7.886   7.995   4.865  1.9285 -0.0455 -0.1720
   52MOL   H12015522   7.721   7.810   4.932 -0.5432  2.0784 -0.7009
   52MOL   H12115523   7.767   7.662   5.115  1.1992 -0.0899  2.9958
   52MOL   C12215524   0.048   7.779   5.333 -0.0933  1.1252 -0.2078
   52MOL   C12315525   8.135   7.886   5.420  0.4850  0.2353 -0.9717
   52MOL   C12415526   8.142   7.845   5.568  0.2030  0.3946  0.2381
   52MOL   C12515527   8.034   7.780   5.631 -0.5663  0.1254 -0.7382
   52MOL   C12615528   8.046   7.750   5.770  0.2832 -0.9192 -0.0850
   52MOL   C12715529   0.003   7.794   5.844  0.3110 -0.4423 -0.3310
   52MOL   C12815530   0.102   7.868   5.771  0.5108 -0.3300 -1.1095
   52MOL   N12915531   0.095   7.890   5.639 -0.1527 -0.2863 -0.5762
   52MOL   H13015532   0.152   7.763   5.361 -0.6289  0.8245  1.6340
   52MOL   H13115533   8.145   7.685   5.345 -1.0454  1.4035 -2.1068
   52MOL   H13215534   8.030   7.876   5.396 -0.1391 -1.6735  2.2789
   52MOL   H13315535   7.952   7.747   5.570 -0.0753 -3.1817  0.2609
   52MOL   H13415536   7.971   7.690   5.820 -1.4141  1.9467  0.9677
   52MOL   H13515537   0.008   7.786   5.952 -0.9353  0.3820 -0.1998
   52MOL   H13615538   0.191   7.909   5.816  0.6456 -0.7936 -0.9506
   52MOL   C13715539   0.034   8.034   5.388  0.7756  0.3411 -0.5028
   52MOL   C13815540   8.102   8.134   5.470 -0.2166 -0.0838 -0.2352
   52MOL   C13915541   0.049   0.082   5.532  0.1784 -0.0367  0.0082
   52MOL   C14015542   0.066   0.081   5.672 -0.1647 -0.1513 -1.4139
   52MOL   C14115543   0.149   0.184   5.727 -0.0410  0.3042 -0.2557
   52MOL   C14215544   0.209   0.280   5.637  0.0258  0.4771 -0.4051
   52MOL   C14315545   0.187   0.267   5.499 -0.1196  0.2133 -0.3626
   52MOL   N14415546   0.103   0.171   5.451 -0.3137 -0.4629  0.1096
   52MOL   H14515547   0.029   8.051   5.281  1.1366 -2.6683 -1.0410
   52MOL   H14615548   0.138   8.054   5.414  1.6395 -2.9990 -1.1498
   52MOL   H14715549   8.046   8.095   5.555  1.2138  1.9656  1.6951
   52MOL   H14815550   0.027   0.010   5.743 -2.9941  0.1970 -2.5163
   52MOL   H14915551   0.176   0.182   5.831 -1.6558 -0.1498  0.1763
   52MOL   H15015552   0.282   0.352   5.671 -1.0409  0.3772  2.2239
   52MOL   H15115553   0.229   0.340   5.431 -0.2585  1.3089  0.7056
   52MOL   C15215554   7.999   0.054   5.391  0.7408 -0.8079 -0.0235
   52MOL   C15315555   7.865   8.136   5.359  0.2049 -0.2110 -0.0689
   52MOL   C15415556   7.790   8.074   5.478 -0.0544  0.5805 -0.4338
   52MOL   C15515557   7.740   7.941   5.481  0.1793 -0.0334  0.1374
   52MOL   C15615558   7.657   7.899   5.587  0.4546 -0.2864 -0.2307
   52MOL   C15715559   7.641   7.988   5.696 -0.1138  0.0182  0.3307
   52MOL   C15815560   7.696   8.113   5.686  0.1434 -0.1961  0.0015
   52MOL   N15915561   7.761   0.010   5.576  0.6365 -0.2447 -0.0310
   52MOL   H16015562   8.047   0.070   5.294 -0.2784  0.4971 -0.3309
   52MOL   H16115563   7.967   0.144   5.442 -2.1109 -1.8582  0.1601
   52MOL   H16215564   7.877   8.061   5.281 -0.9930  2.2813 -2.7272
   52MOL   H16315565   7.752   7.872   5.398 -2.2120 -0.6335  0.2557
   52MOL   H16415566   7.606   7.804   5.591 -0.7849  0.3685 -0.1879
   52MOL   H16515567   7.590   7.959   5.787 -1.0001  0.3020 -0.0650
   52MOL   H16615568   7.682   0.031   5.766 -0.8836 -1.9985  1.4365
   52MOL   C16715569   7.779   0.076   5.269  0.3397  0.7128 -0.2504
   52MOL   C16815570   7.626   0.033   5.247 -0.0186 -0.4718 -0.4574
   52MOL   C16915571   7.544   0.156   5.215  0.1200 -0.1020  0.2733
   52MOL   C17015572   7.432   0.191   5.291  0.0378  0.5552  0.3083
   52MOL   C17115573   7.363   0.304   5.257 -0.1341  0.1666 -0.1959
   52MOL   C17215574   7.400   0.381   5.147  0.0335 -0.5829 -0.4025
   52MOL   C17315575   7.519   0.341   5.077  0.4789 -0.1756  0.0651
   52MOL   N17415576   7.589   0.231   5.110 -0.0826 -0.0224 -0.1239
   52MOL   H17515577   7.827   0.097   5.173  0.3924  0.7349 -0.2200
   52MOL   H17615578   7.783   0.174   5.317  1.6834 -0.0424  1.2228
   52MOL   H17715579   7.584   0.005   5.343 -0.7134 -1.0577 -0.9341
   52MOL   H17815580   7.407   0.137   5.381  2.3747 -1.4961 -0.2164
   52MOL   H17915581   7.272   0.332   5.309 -1.4087  0.8011 -2.6764
   52MOL   H18015582   7.337   0.467   5.128  0.0107 -0.5757 -0.2956
   52MOL   H18115583   7.563   0.397   4.995  0.5010 -0.8060 -0.3550
   52MOL   C18215584   7.595   8.062   5.156 -0.5188  0.5950 -0.3643
   52MOL   C18315585   7.449   8.019   5.152 -0.4982  0.3678 -0.5758
   52MOL   C18415586   7.419   7.934   5.033  0.9026  0.5312 -0.0965
   52MOL   C18515587   7.356   7.984   4.919 -0.3077 -0.3224 -0.0352
   52MOL   C18615588   7.329   7.905   4.808  0.5841 -0.2623  0.4248
   52MOL   C18715589   7.373   7.773   4.805 -0.4662 -0.2442 -0.3570
   52MOL   C18815590   7.440   7.723   4.919  0.5005 -0.9534  0.5243
   52MOL   N18915591   7.460   7.802   5.029 -0.1362  0.6679  0.1934
   52MOL   H19015592   7.664   7.981   5.178 -2.0360 -0.2272  1.6061
   52MOL   H19115593   7.618   8.102   5.057  1.2376  0.2326 -0.1092
   52MOL   H19215594   7.386   8.108   5.151 -1.9266 -0.5923  1.4406
   52MOL   H19315595   7.326   8.087   4.924 -1.0651 -0.5416 -0.0685
   52MOL   H19415596   7.289   7.958   4.723  0.1868  0.4196  1.0336
   52MOL   H19515597   7.352   7.708   4.721 -0.7013 -0.3014 -0.2534
   52MOL   H19615598   7.462   7.618   4.925  2.3033 -0.6569 -0.7722
   52MOL   C19715599   7.416   7.946   5.285  0.3157 -0.0317  0.3990
   52MOL   C19815600   7.280   7.877   5.296  0.4209  0.3845 -0.1838
   52MOL   C19915601   7.293   7.801   5.433  0.3611 -0.2852 -0.1123
   52MOL   C20015602   7.295   7.662   5.425 -0.4567  0.2360 -0.7685
   52MOL   C20115603   7.308   7.591   5.541  0.2905  0.0468 -0.3135
   52MOL   C20215604   7.310   7.662   5.664 -0.0352 -0.5022 -0.3856
   52MOL   C20315605   7.311   7.802   5.657  0.0955  0.7751 -0.8167
   52MOL   N20415606   7.306   7.869   5.546  0.2858  0.1676  0.3038
   52MOL   H20515607   7.408   8.030   5.354 -0.3164  1.5319 -1.5604
   52MOL   H20615608   7.497   7.878   5.314 -0.2705 -0.5978  0.7259
   52MOL   H20715609   7.283   7.793   5.227  0.5303 -0.0848  0.3936
   52MOL   H20815610   7.305   7.603   5.335  0.9086  0.4765 -0.7840
   52MOL   H20915611   7.311   7.483   5.554 -2.6639 -0.0052  0.2613
   52MOL   H21015612   7.319   7.601   5.753 -0.3186  0.1979  0.1241
   52MOL   H21115613   7.310   7.868   5.743 -1.3283  0.7615 -0.8058
   52MOL   C21215614   7.157   7.968   5.279 -0.5780 -0.5264  0.9366
   52MOL   C21315615   7.028   7.886   5.300  0.4543 -0.4946 -0.3535
   52MOL   C21415616   6.913   7.983   5.321  0.9251  0.0202 -0.6698
   52MOL   C21515617   6.838   7.987   5.438 -0.0148  0.2939 -0.0232
   52MOL   C21615618   6.735   8.084   5.449  0.8415  0.4192  0.2181
   52MOL   C21715619   6.708   0.019   5.343 -0.1428  0.6690 -0.1056
   52MOL   C21815620   6.792   8.150   5.231  0.2367  0.1296  0.3169
   52MOL   N21915621   6.884   8.056   5.209 -0.3260  0.6342  0.3540
   52MOL   H22015622   7.164   8.022   5.185  1.5887  0.7779  1.7928
   52MOL   H22115623   7.172   8.045   5.355  0.0978 -1.3134  1.6022
   52MOL   H22215624   7.021   7.833   5.395  3.8900 -0.4575 -0.0389
   52MOL   H22315625   6.865   7.924   5.521  0.1546 -0.9722 -1.0262
   52MOL   H22415626   6.678   8.106   5.539 -0.2070 -1.1779 -0.0233
   52MOL   H22515627   6.620   0.081   5.345 -0.2201  0.5335  3.1595
   52MOL   H22615628   6.760   0.052   5.143 -0.9277 -0.5046  0.3480
   52MOL   C22715629   7.001   7.787   5.177 -0.3856  0.5519 -0.1037
   52MOL   C22815630   6.973   7.639   5.207 -0.3825 -0.5080  0.1117
   52MOL   C22915631   6.869   7.619   5.315  0.1715  0.1112  0.0869
   52MOL   C23015632   6.749   7.686   5.313  0.1423  0.9393 -0.5879
   52MOL   C23115633   6.649   7.658   5.407  0.0804  0.2701 -0.5796
   52MOL   C23215634   6.677   7.555   5.502  0.3131 -0.1755 -0.3507
   52MOL   C23315635   6.804   7.497   5.499 -0.2635 -0.2443  0.0730
   52MOL   N23415636   6.896   7.525   5.409 -0.2497 -0.0861  0.8275
   52MOL   H23515637   7.080   7.789   5.102 -3.1707  0.4681 -3.1187
   52MOL   H23615638   6.916   7.828   5.123  0.6855 -0.0645 -2.3335
   52MOL   H23715639   7.063   7.611   5.261 -0.9674 -0.9724  0.8599
   52MOL   H23815640   6.726   7.760   5.237 -0.7497  1.6434  0.3553
   52MOL   H23915641   6.553   7.705   5.388  0.3815  0.2167 -2.3630
   52MOL   H24015642   6.617   7.535   5.589 -0.2291 -3.3145 -1.4039
   52MOL   H24115643   6.818   7.426   5.579 -1.8502  0.4329  0.9620
   52MOL   C24215644   6.931   7.550   5.085 -0.2550  0.3952  0.4556
   52MOL   C24315645   7.040   7.524   4.980  0.3902  0.7265  0.3426
   52MOL   C24415646   7.130   7.413   5.040  0.3872 -1.0456  0.7507
   52MOL   C24515647   7.087   7.280   5.055 -0.6149 -0.6872 -0.2394
   52MOL   C24615648   7.177   7.184   5.115 -0.2885 -0.1426 -0.2260
   52MOL   C24715649   7.295   7.235   5.165  0.6072 -0.7016  0.0344
   52MOL   C24815650   7.331   7.368   5.143  0.1729 -0.1152 -0.0235
   52MOL   N24915651   7.248   7.454   5.089  0.3999 -0.8921  0.1188
   52MOL   H25015652   6.841   7.591   5.038 -0.8050 -0.5284  0.6741
   52MOL   H25115653   6.897   7.452   5.120  0.8171  0.0578  0.5477
   52MOL   H25215654   7.103   7.613   4.973  0.5526  0.3722 -3.2171
   52MOL   H25315655   6.987   7.240   5.038 -0.2180 -1.6021 -0.4644
   52MOL   H25415656   7.142   7.083   5.135 -3.3092  0.9703  0.3881
   52MOL   H25515657   7.358   7.156   5.203 -0.3199 -0.9317  1.1513
   52MOL   H25615658   7.427   7.408   5.172  0.2002  0.3659 -0.7750
   52MOL   C25715659   6.990   7.484   4.843  0.1509  0.5211 -0.4810
   52MOL   C25815660   7.075   7.401   4.752 -0.0961  0.9197  0.4476
   52MOL   C25915661   7.001   7.387   4.621  0.6195  0.8247  0.6081
   52MOL   C26015662   7.001   7.260   4.555 -0.1847 -0.7328 -0.0153
   52MOL   C26115663   6.948   7.243   4.424  0.5650 -0.6012  0.3467
   52MOL   C26215664   6.898   7.357   4.366  0.2106 -0.4315  0.4830
   52MOL   C26315665   6.902   7.482   4.435  0.4304  0.7329 -0.0899
   52MOL   N26415666   6.953   7.495   4.561 -0.1653 -0.1472 -0.5604
   52MOL   H26515667   6.948   7.573   4.797 -0.8559 -0.0964 -0.7830
   52MOL   H26615668   6.899   7.425   4.857 -0.4760  1.6193  0.0737
   52MOL   H26715669   7.086   7.299   4.788  3.1511 -0.2013 -3.2827
   52MOL   H26815670   7.047   7.171   4.595 -2.0941 -3.0571 -2.7535
   52MOL   H26915671   6.943   7.145   4.380 -2.0075 -0.3955  0.0945
   52MOL   H27015672   6.854   7.355   4.267 -1.0657 -2.5259  1.0512
   52MOL   H27115673   6.873   7.573   4.384  1.6613 -0.0924 -2.3424
   52MOL   C27215674   7.218   7.450   4.716  0.2177 -0.1516 -0.2905
   52MOL   C27315675   7.313   7.346   4.666 -0.2088  0.9434 -0.3311
   52MOL   C27415676   7.433   7.414   4.603 -0.1048 -0.2742  0.0808
   52MOL   C27515677   7.477   7.383   4.473  0.0933  0.3121 -0.6484
   52MOL   C27615678   7.582   7.452   4.412  0.4116 -0.1436 -0.2436
   52MOL   C27715679   7.638   7.554   4.486  0.3304  0.2167 -0.0743
   52MOL   C27815680   7.605   7.568   4.623 -0.0264  0.3464  0.2036
   52MOL   N27915681   7.502   7.499   4.677 -0.2575  0.7200  0.3034
   52MOL   H28015682   7.265   7.496   4.803  0.7626 -0.9033 -0.1711
   52MOL   H28115683   7.209   7.514   4.628 -2.2477 -2.5162 -1.8417
   52MOL   H28215684   7.267   7.285   4.587 -0.1223 -0.8065  0.9389
   52MOL   H28315685   7.408   7.318   4.420 -2.7380  2.4422  0.2833
   52MOL   H28415686   7.610   7.424   4.311 -1.5848  1.9984 -1.4484
   52MOL   H28515687   7.723   7.614   4.456  0.1033  1.1934  1.1782
   52MOL   H28615688   7.658   7.638   4.687 -0.9322  1.7211 -0.5341
   52MOL   C28715689   7.354   7.239   4.767  0.4401 -0.3023  0.1026
   52MOL   C28815690   7.425   7.114   4.707  0.5321 -0.2197  0.1772
   52MOL   C28915691   7.468   7.023   4.816  0.5319  0.0207 -0.7821
   52MOL   C29015692   7.548   7.073   4.925  0.3930  0.0270 -0.1513
   52MOL   C29115693   7.574   6.982   5.031 -0.1451 -0.3300 -0.2965
   52MOL   C29215694   7.548   6.845   5.013 -0.0832  0.8773 -0.3606
   52MOL   C29315695   7.481   6.804   4.894  0.4753 -0.5824 -0.0388
   52MOL   N29415696   7.437   6.896   4.799 -0.1283  0.0159 -0.0871
   52MOL   H29515697   7.270   7.223   4.835  0.8433 -0.4299  0.5713
   52MOL   H29615698   7.436   7.285   4.823 -0.0021  0.5890  0.0326
   52MOL   H29715699   7.511   7.150   4.652  0.3370  0.0229  0.0332
   52MOL   H29815700   7.585   7.173   4.943 -0.4120  0.3691 -0.3331
   52MOL   H29915701   7.641   7.018   5.108 -0.6862 -1.8101  0.8914
   52MOL   H30015702   7.593   6.775   5.082  1.7509  1.0081 -1.4067
   52MOL   H30115703   7.470   6.701   4.864 -2.9597 -0.0651 -0.7553
   52MOL   H30215704   7.355   7.064   4.641 -0.3320  1.2933 -0.0691
   53MOL     C115705   1.967   0.651   7.608 -0.3143  0.3063 -0.1589
   53MOL     C215706   2.023   0.506   7.627 -0.6166 -0.0640 -0.1649
   53MOL     C315707   1.923   0.412   7.567  0.1055 -0.5724  0.3934
   53MOL     C415708   1.880   0.293   7.645 -0.4876 -0.1541 -0.1186
   53MOL     C515709   1.800   0.199   7.585  0.7047 -0.2246  0.3803
   53MOL     C615710   1.765   0.217   7.449  0.4123 -0.5396 -0.5805
   53MOL     C715711   1.819   0.330   7.386 -0.3607 -0.1458  0.4979
   53MOL     N815712   1.896   0.428   7.439  0.4364  0.5141  0.6695
   53MOL     H915713   1.971   0.682   7.503  1.2604 -2.2626 -0.8882
   53MOL    H1015714   1.865   0.662   7.646 -0.3472 -1.2808  0.2451
   53MOL    H1115715   2.014   0.479   7.732  1.2393 -1.4991 -0.3657
   53MOL    H1215716   1.919   0.278   7.744 -0.6459 -0.7621 -0.1443
   53MOL    H1315717   1.765   0.113   7.640 -1.4073 -0.1406 -0.7673
   53MOL    H1415718   1.707   0.143   7.395  0.8361 -1.2002 -0.1460
   53MOL    H1515719   1.795   0.345   7.282 -2.1148 -1.9833  0.6248
   53MOL    H1615720   2.014   0.728   7.669 -0.7003  0.0823  0.4270
   53MOL    C1715721   2.174   0.481   7.599 -0.5895  0.0765 -0.0999
   53MOL    C1815722   2.243   0.523   7.461 -0.1764 -0.4630  0.0421
   53MOL    C1915723   2.241   0.676   7.433  0.0092  1.1509 -0.2487
   53MOL    C2015724   2.164   0.732   7.328  0.4338  0.3246 -0.1396
   53MOL    C2115725   2.168   0.873   7.306  0.5205  0.3279 -0.7185
   53MOL    C2215726   2.266   0.944   7.383  0.1463  0.4389  0.1765
   53MOL    C2315727   2.339   0.879   7.486  0.6783 -0.0266  1.1568
   53MOL    N2415728   2.322   0.747   7.514  0.0766  0.2330  0.3808
   53MOL    H2515729   2.177   0.372   7.610  1.0193  0.1059 -0.1395
   53MOL    H2615730   2.230   0.505   7.690 -2.5335 -1.2052  1.5025
   53MOL    H2715731   2.183   0.476   7.384  0.7269  1.2389 -1.7404
   53MOL    H2815732   2.110   0.659   7.268 -0.3914  1.3424 -0.6508
   53MOL    H2915733   2.103   0.921   7.234 -0.2797  0.9640  0.4195
   53MOL    H3015734   2.268   1.051   7.366  0.8784  0.1737 -1.4311
   53MOL    H3115735   2.411   0.929   7.550  0.5755  0.8578  0.5758
   53MOL    C3215736   2.390   0.459   7.455 -0.0564 -0.0086  0.3199
   53MOL    C3315737   2.393   0.297   7.462  0.4089 -0.2941  0.2382
   53MOL    C3415738   2.284   0.235   7.369 -0.8274 -0.1257 -0.2419
   53MOL    C3515739   2.188   0.151   7.431 -0.0844 -0.0890 -0.5857
   53MOL    C3615740   2.093   0.087   7.347 -0.3408 -0.0446 -0.7193
   53MOL    C3715741   2.104   0.113   7.207  0.5593  0.0721 -0.8497
   53MOL    C3815742   2.209   0.182   7.158 -0.6330  0.0644  0.3462
   53MOL    N3915743   2.296   0.248   7.238  0.3023  0.7647 -0.0964
   53MOL    H4015744   2.452   0.501   7.534 -0.9921  0.8192  0.6241
   53MOL    H4115745   2.437   0.497   7.365 -2.5504  0.8818 -0.6537
   53MOL    H4215746   2.357   0.261   7.558  0.2452  0.8088  0.6039
   53MOL    H4315747   2.175   0.144   7.538 -1.5535 -0.7482 -0.7970
   53MOL    H4415748   1.998   0.047   7.378 -1.2818  1.4805 -1.5284
   53MOL    H4515749   2.038   0.065   7.137 -2.0396  0.4920  1.2308
   53MOL    H4615750   2.222   0.197   7.052 -1.2150  0.8314  0.3783
   53MOL    C4715751   2.535   0.236   7.423  0.5460  0.4726 -0.0725
   53MOL    C4815752   2.643   0.279   7.518  0.1638 -0.5468 -0.1081
   53MOL    C4915753   2.607   0.267   7.663  0.7059  0.2433  0.2136
   53MOL    C5015754   2.647   0.371   7.754 -0.1514  0.3504 -0.3177
   53MOL    C5115755   2.622   0.354   7.889 -0.0332  0.0077  0.0745
   53MOL    C5215756   2.557   0.232   7.927  0.5580  0.0316 -0.5366
   53MOL    C5315757   2.520   0.139   7.828  0.6456 -0.1644  0.0561
   53MOL    N5415758   2.546   0.159   7.696 -0.1049 -0.0693  0.6404
   53MOL    H5515759   2.547   0.260   7.317  0.8698 -1.4175 -0.4860
   53MOL    H5615760   2.529   0.127   7.427  1.5594  0.3492 -1.4641
   53MOL    H5715761   2.637   0.386   7.502  0.0782 -0.7006 -1.1328
   53MOL    H5815762   2.698   0.462   7.728  1.0243  0.0026  0.7488
   53MOL    H5915763   2.643   0.421   7.971 -1.1339 -0.4690  0.7566
   53MOL    H6015764   2.525   0.216   8.028 -2.0138  0.8631 -1.1969
   53MOL    H6115765   2.459   0.055   7.857 -1.5613  0.9056 -1.3139
   53MOL    C6215766   2.774   0.223   7.473 -0.0712  0.4972  0.2815
   53MOL    C6315767   2.830   0.270   7.339  0.4021 -0.3879 -0.1147
   53MOL    C6415768   2.828   0.425   7.329  1.1828 -0.4185  1.0650
   53MOL    C6515769   2.766   0.490   7.221 -0.7673 -0.4825  0.8894
   53MOL    C6615770   2.747   0.629   7.235 -0.4010  0.0376 -0.6458
   53MOL    C6715771   2.800   0.696   7.346  0.2904  0.3731 -0.8174
   53MOL    C6815772   2.879   0.620   7.437 -0.2209 -0.5688  0.6100
   53MOL    N6915773   2.895   0.489   7.426 -0.0422  0.1442 -0.0547
   53MOL    H7015774   2.764   0.115   7.482 -0.6314  0.5483  0.3141
   53MOL    H7115775   2.845   0.256   7.549  0.3298 -0.5777  0.3843
   53MOL    H7215776   2.748   0.252   7.268 -0.0521  2.6172 -0.4401
   53MOL    H7315777   2.732   0.433   7.136  1.0863 -1.6065  0.8777
   53MOL    H7415778   2.700   0.682   7.153  0.3875 -0.0653 -1.1771
   53MOL    H7515779   2.797   0.803   7.357  0.7763  0.3386 -0.2858
   53MOL    H7615780   2.925   0.672   7.519 -1.0621  0.0800  0.6804
   53MOL    C7715781   2.969   0.216   7.305  0.2519  0.5047  0.0063
   53MOL    C7815782   2.996   0.221   7.151 -0.2836 -0.2965  0.0272
   53MOL    C7915783   3.112   0.315   7.116  0.5531 -0.2544 -0.3672
   53MOL    C8015784   3.099   0.433   7.042 -0.1504 -0.4439 -0.5645
   53MOL    C8115785   3.209   0.514   7.008  1.0035  0.2850  0.3972
   53MOL    C8215786   3.336   0.475   7.061 -0.6829  0.0679 -0.3801
   53MOL    C8315787   3.347   0.358   7.142  0.5181  0.5927 -0.0220
   53MOL    N8415788   3.236   0.286   7.167 -0.4143 -0.2200 -0.9165
   53MOL    H8515789   2.963   0.114   7.343 -0.7964 -0.4849 -2.7032
   53MOL    H8615790   3.052   0.265   7.356 -0.8611  0.2116  2.1599
   53MOL    H8715791   2.913   0.255   7.089  1.4412 -1.6611 -3.1682
   53MOL    H8815792   2.998   0.445   7.006  0.3049 -1.4028 -2.2084
   53MOL    H8915793   3.204   0.605   6.949  0.0842  0.2352  0.3925
   53MOL    H9015794   3.418   0.541   7.037 -0.0609 -1.3935 -2.3333
   53MOL    H9115795   3.433   0.313   7.190 -0.6162 -2.5296 -0.7968
   53MOL    C9215796   3.024   0.078   7.089  1.2789 -0.4470  0.7154
   53MOL    C9315797   2.896   8.144   7.071  0.5696 -0.1668 -0.0157
   53MOL    C9415798   2.781   0.066   7.004 -1.4792 -0.0748  0.4185
   53MOL    C9515799   2.675   0.109   7.085 -0.2773 -0.0512 -0.9645
   53MOL    C9615800   2.575   0.186   7.028 -0.0175  0.4442  0.2746
   53MOL    C9715801   2.587   0.227   6.898 -0.2951  0.1436  0.7800
   53MOL    C9815802   2.700   0.171   6.823 -0.0099  0.2908 -0.8024
   53MOL    N9915803   2.805   0.103   6.875  0.1194  0.2731 -1.0427
   53MOL   H10015804   3.105   0.021   7.133  0.2621 -2.0961  0.4628
   53MOL   H10115805   3.069   0.105   6.994 -0.7222  0.9366  0.1140
   53MOL   H10215806   2.858   8.125   7.172 -2.6143  0.3482 -1.0709
   53MOL   H10315807   2.653   0.069   7.183 -0.3357 -1.0160 -1.3575
   53MOL   H10415808   2.493   0.222   7.088 -0.8938 -2.0519  0.6088
   53MOL   H10515809   2.510   0.285   6.850  1.6254  2.0614 -0.0565
   53MOL   H10615810   2.719   0.209   6.724  2.0342 -1.7124 -1.2039
   53MOL   C10715811   2.933   8.014   7.001 -0.2308  0.1515 -0.8830
   53MOL   C10815812   2.832   7.902   6.996  0.5627  0.1399  0.1368
   53MOL   C10915813   2.858   7.814   6.873  0.5100 -0.1539 -0.1143
   53MOL   C11015814   2.760   7.806   6.780  0.5981 -0.8251  0.4098
   53MOL   C11115815   2.796   7.735   6.663 -0.1946 -0.5292 -0.7499
   53MOL   C11215816   2.916   7.662   6.654 -0.1245 -0.3742  0.2628
   53MOL   C11315817   2.996   7.661   6.771 -0.1890 -0.0581  0.0727
   53MOL   N11415818   2.974   7.746   6.871 -0.1868  0.1010 -0.1227
   53MOL   H11515819   3.027   7.973   7.038  0.2144  1.1887 -0.8188
   53MOL   H11615820   2.948   8.043   6.897 -1.5971  0.5931 -0.9642
   53MOL   H11715821   2.730   7.941   6.990  0.6794  0.2260 -1.3293
   53MOL   H11815822   2.662   7.849   6.792  0.9681  0.8979 -2.2524
   53MOL   H11915823   2.721   7.731   6.585 -0.4875  1.2240 -0.5895
   53MOL   H12015824   2.935   7.591   6.574  0.8432 -0.3754  0.4809
   53MOL   H12115825   3.092   7.611   6.775 -0.4749 -0.5053  1.7194
   53MOL   C12215826   2.835   7.818   7.130 -0.2685 -0.4164 -0.4515
   53MOL   C12315827   2.756   7.878   7.250 -0.7999  0.2840  1.2170
   53MOL   C12415828   2.611   7.913   7.212 -0.4737  0.2378 -0.5845
   53MOL   C12515829   2.524   7.833   7.131  0.1496 -0.3642 -0.6773
   53MOL   C12615830   2.394   7.872   7.119  0.3374 -0.1129 -0.3562
   53MOL   C12715831   2.343   7.985   7.184  0.1073  0.3694 -1.2827
   53MOL   C12815832   2.430   8.049   7.266 -0.4025 -0.4695 -0.2546
   53MOL   N12915833   2.564   8.019   7.280 -0.1981  0.5381  0.5986
   53MOL   H13015834   2.938   7.810   7.164  0.1358 -1.0381 -1.7869
   53MOL   H13115835   2.791   7.723   7.101  3.3658 -1.7775 -1.8441
   53MOL   H13215836   2.811   7.966   7.283  2.5185 -0.9385 -0.8616
   53MOL   H13315837   2.557   7.743   7.082  2.2420 -0.3978  0.7356
   53MOL   H13415838   2.331   7.818   7.049  0.6982  2.4576 -2.7402
   53MOL   H13515839   2.240   8.010   7.163 -0.3717 -1.4027 -1.0850
   53MOL   H13615840   2.397   8.136   7.323 -0.1685 -0.1146 -0.6569
   53MOL   C13715841   2.758   7.774   7.365 -0.2029  0.3974  0.5871
   53MOL   C13815842   2.893   7.751   7.439  0.3556 -0.7471  0.0566
   53MOL   C13915843   2.914   7.879   7.518  0.3865  0.1721  0.3379
   53MOL   C14015844   3.019   7.959   7.473 -0.4934 -0.1679  0.2650
   53MOL   C14115845   3.047   8.078   7.538 -0.4002  0.3541 -0.9297
   53MOL   C14215846   2.955   8.121   7.636  0.2502  0.1405 -0.2358
   53MOL   C14315847   2.842   8.036   7.670  0.2166 -0.6180 -0.0563
   53MOL   N14415848   2.826   7.917   7.616 -0.1428  0.0829  0.4987
   53MOL   H14515849   2.712   7.682   7.328  1.4683  0.2882 -1.2940
   53MOL   H14615850   2.688   7.825   7.431  2.0273  0.1354  3.2830
   53MOL   H14715851   2.974   7.742   7.367 -0.2466  2.5699 -1.1592
   53MOL   H14815852   3.068   7.932   7.381  1.1259 -0.9350  1.3163
   53MOL   H14915853   3.140   8.126   7.511 -1.0343  1.4386 -1.2436
   53MOL   H15015854   2.967   0.066   7.683  0.6218  0.3443 -0.7529
   53MOL   H15115855   2.777   8.056   7.754  1.3101 -0.3748  0.7312
   53MOL   C15215856   2.893   7.620   7.531  0.3160  0.1670  0.4985
   53MOL   C15315857   2.875   7.484   7.456 -0.4282  0.6390 -0.2676
   53MOL   C15415858   2.977   7.468   7.346 -0.0888  0.1714  0.1570
   53MOL   C15515859   2.940   7.475   7.207  0.4341  0.3609 -0.8823
   53MOL   C15615860   3.036   7.444   7.112 -0.3539 -0.5309 -0.4196
   53MOL   C15715861   3.165   7.401   7.155 -0.1789  0.1784 -0.0990
   53MOL   C15815862   3.195   7.400   7.294  1.0341  0.3078  0.1685
   53MOL   N15915863   3.102   7.434   7.393 -0.3335  0.0060 -0.3031
   53MOL   H16015864   2.817   7.626   7.609 -1.1038  0.2781 -0.8478
   53MOL   H16115865   2.985   7.623   7.588  0.4450 -0.0994  0.3054
   53MOL   H16215866   2.780   7.491   7.403 -0.2115 -1.2192 -0.9428
   53MOL   H16315867   2.837   7.499   7.190  0.0180 -1.4145 -1.0170
   53MOL   H16415868   3.016   7.457   7.007  0.8719 -1.9543 -0.8454
   53MOL   H16515869   3.229   7.367   7.075  1.1259  0.8257  0.6524
   53MOL   H16615870   3.296   7.387   7.331  0.5553 -1.1853  0.9808
   53MOL   C16715871   2.873   7.365   7.550 -0.4339 -0.2693  0.1351
   53MOL   C16815872   2.747   7.339   7.646  0.2416  0.4200  0.4063
   53MOL   C16915873   2.619   7.390   7.584  0.1446 -0.4365 -0.1258
   53MOL   C17015874   2.534   7.474   7.656 -0.5390  0.1660  0.8194
   53MOL   C17115875   2.411   7.515   7.605  0.1272 -0.1055 -0.7036
   53MOL   C17215876   2.388   7.481   7.469  0.0226  0.3315 -0.0429
   53MOL   C17315877   2.479   7.395   7.399 -0.3749  0.3805 -0.9341
   53MOL   N17415878   2.591   7.350   7.458 -0.5724  0.5570 -0.1959
   53MOL   H17515879   2.964   7.351   7.608  0.8675  2.0385 -1.2808
   53MOL   H17615880   2.880   7.276   7.488 -0.7831 -1.2138  1.4312
   53MOL   H17715881   2.759   7.399   7.736  0.4756  1.4183 -0.2824
   53MOL   H17815882   2.560   7.513   7.754  0.2531 -0.0197  0.6855
   53MOL   H17915883   2.345   7.584   7.655  1.8277  2.1450 -1.5086
   53MOL   H18015884   2.300   7.521   7.419  0.2176  1.0563  0.1920
   53MOL   H18115885   2.452   7.357   7.302 -2.5252  0.3382 -0.3623
   53MOL   C18215886   2.730   7.194   7.699 -0.3840 -0.0726 -0.3989
   53MOL   C18315887   2.855   7.145   7.775 -0.5288  0.2700  0.2327
   53MOL   C18415888   2.910   7.239   7.877 -0.8484 -0.0980  0.9829
   53MOL   C18515889   3.038   7.292   7.868 -0.2692 -0.3910 -0.1968
   53MOL   C18615890   3.086   7.377   7.970 -0.3724 -0.9563  0.3377
   53MOL   C18715891   3.013   7.407   8.084 -0.0518 -0.2937  0.0776
   53MOL   C18815892   2.890   7.337   8.089  0.0642 -0.2154  0.5734
   53MOL   N18915893   2.838   7.257   7.988 -0.5337  0.3654  0.2936
   53MOL   H19015894   2.709   7.137   7.609 -0.9981  0.2378 -0.4511
   53MOL   H19115895   2.639   7.187   7.759 -0.7368  3.4552 -0.3859
   53MOL   H19215896   2.942   7.144   7.710 -0.1040 -4.7988  0.6450
   53MOL   H19315897   3.106   7.271   7.787 -0.0084 -1.1251  0.2046
   53MOL   H19415898   3.183   7.423   7.952 -0.9917  0.6680  1.0488
   53MOL   H19515899   3.042   7.476   0.009 -0.3048  0.2737 -0.3339
   53MOL   H19615900   2.826   7.340   0.024 -0.2773 -1.0108  0.3552
   53MOL   C19715901   2.848   7.005   7.824 -0.2108 -0.0554 -0.3821
   53MOL   C19815902   2.827   6.900   7.705 -0.6747 -0.3557 -0.7528
   53MOL   C19915903   2.924   6.912   7.588  0.2929  0.0489  1.1236
   53MOL   C20015904   3.062   6.889   7.611  0.3667 -0.3801 -0.2946
   53MOL   C20115905   3.153   6.923   7.510  0.2486  0.7349  0.7506
   53MOL   C20215906   3.104   6.963   7.382  0.0340 -0.0775 -0.3339
   53MOL   C20315907   2.966   6.989   7.369  0.4370  0.5239 -0.0581
   53MOL   N20415908   2.878   6.970   7.470  0.5724 -0.1680 -0.1301
   53MOL   H20515909   2.782   6.991   7.909 -1.0089  1.0286 -0.8198
   53MOL   H20615910   2.947   6.978   7.863 -0.5974 -1.0909 -0.0859
   53MOL   H20715911   2.727   6.918   7.667 -1.0620 -2.1969 -0.6573
   53MOL   H20815912   3.088   6.840   7.704 -0.7625  1.2562  0.9294
   53MOL   H20915913   3.258   6.900   7.524  0.4350  0.4346 -0.9815
   53MOL   H21015914   3.174   6.987   7.303 -1.1937  0.7671 -1.1902
   53MOL   H21115915   2.927   7.026   7.276 -0.3527  1.2619  0.5608
   53MOL   C21215916   2.814   6.758   7.748 -0.3673  0.3557  0.2894
   53MOL   C21315917   2.775   6.645   7.644  0.2799  0.1751 -0.2696
   53MOL   C21415918   2.878   6.622   7.535  0.9231  0.3207 -0.1801
   53MOL   C21515919   2.866   6.652   7.396 -0.0107  0.4507 -1.2227
   53MOL   C21615920   2.975   6.625   7.315 -0.8007  0.0576  0.3189
   53MOL   C21715921   3.094   6.567   7.365 -0.0470 -0.9281  0.3333
   53MOL   C21815922   3.091   6.534   7.499 -0.2000  0.6141  0.0717
   53MOL   N21915923   2.988   6.562   7.578 -0.1583  0.8067  0.0479
   53MOL   H22015924   2.736   6.747   7.823 -1.1132  0.0602 -0.5150
   53MOL   H22115925   2.908   6.715   7.783 -0.5511 -2.1074 -2.1008
   53MOL   H22215926   2.687   6.683   7.594 -1.2605  1.9315  3.5287
   53MOL   H22315927   2.777   6.702   7.360 -1.2971  0.2008  1.4461
   53MOL   H22415928   2.977   6.667   7.215  0.8906 -1.0164 -0.1123
   53MOL   H22515929   3.176   6.554   7.295 -0.4486 -1.0074 -0.1272
   53MOL   H22615930   3.176   6.489   7.547 -1.6570 -0.2433  1.9392
   53MOL   C22715931   2.744   6.511   7.723 -0.5228 -0.6722 -0.1320
   53MOL   C22815932   2.617   6.514   7.820 -0.2146 -0.5551  0.3437
   53MOL   C22915933   2.497   6.586   7.768  0.2984 -0.2753  0.7758
   53MOL   C23015934   2.424   6.538   7.656  0.3500  0.8386 -0.1287
   53MOL   C23115935   2.309   6.603   7.615 -0.6424  0.1663  0.4573
   53MOL   C23215936   2.269   6.722   7.680 -0.0313 -0.6437 -1.1201
   53MOL   C23315937   2.350   6.766   7.787  1.2569  1.0837  0.4886
   53MOL   N23415938   2.460   6.699   7.832  0.1244 -0.1005 -0.5918
   53MOL   H23515939   2.831   6.488   7.784  0.1425 -0.9102 -1.1561
   53MOL   H23615940   2.733   6.424   7.657 -0.3131  0.1556 -1.2753
   53MOL   H23715941   2.644   6.558   7.916  0.4769 -1.4665  0.5696
   53MOL   H23815942   2.465   6.453   7.602  0.0443  2.3941 -2.9073
   53MOL   H23915943   2.256   6.565   7.529  0.4210  0.1930 -0.2266
   53MOL   H24015944   2.181   6.776   7.647  0.0946  0.6427  0.5663
   53MOL   H24115945   2.327   6.853   7.848  0.8885 -0.2378  2.2927
   53MOL   C24215946   2.581   6.374   7.870 -0.1224 -0.1635  0.7486
   53MOL   C24315947   2.477   6.368   7.980 -0.5197 -0.5522 -0.2459
   53MOL   C24415948   2.450   6.220   8.012 -0.0459  0.3338 -0.0037
   53MOL   C24515949   2.336   6.153   7.959  0.1803  0.3066 -0.1941
   53MOL   C24615950   2.325   6.014   7.992  0.0114 -0.4697 -0.7769
   53MOL   C24715951   2.420   5.953   8.073 -0.2857 -0.2977 -0.0595
   53MOL   C24815952   2.543   6.025   8.109 -0.6489 -0.1917 -0.9706
   53MOL   N24915953   2.553   6.154   8.070  0.2452  0.0193 -0.2166
   53MOL   H25015954   2.672   6.327   7.906  0.6524  0.7120 -0.0568
   53MOL   H25115955   2.557   6.310   7.785  0.7423 -0.2457  0.5652
   53MOL   H25215956   2.384   6.404   7.937 -0.9242 -0.9254  0.3234
   53MOL   H25315957   2.263   6.202   7.897 -0.2716  0.6183  0.5798
   53MOL   H25415958   2.239   5.957   7.961 -1.8968  1.2170  1.2492
   53MOL   H25515959   2.402   5.851   8.105 -0.8388  0.2626  1.4467
   53MOL   H25615960   2.622   5.970   0.006  0.3636  2.1240  0.0685
   53MOL   C25715961   2.511   6.456   8.104 -0.7989  0.2189 -0.9894
   53MOL   C25815962   2.436   6.415   0.077 -0.3831 -0.0619 -0.4917
   53MOL   C25915963   2.522   6.330   0.170  0.1619  0.6322 -1.0061
   53MOL   C26015964   2.473   6.210   0.221 -0.4584  0.0154  0.4277
   53MOL   C26115965   2.554   6.138   0.308 -0.0018 -0.1250 -0.0024
   53MOL   C26215966   2.684   6.193   0.342  1.1616 -0.5883  0.1438
   53MOL   C26315967   2.723   6.313   0.279 -0.0410 -0.0926 -0.2731
   53MOL   N26415968   2.640   6.388   0.207  0.4432  0.3793  0.0467
   53MOL   H26515969   2.501   6.563   8.088 -0.2241  0.2041 -1.4469
   53MOL   H26615970   2.615   6.434   8.126 -0.6508  2.1047  0.3826
   53MOL   H26715971   2.348   6.359   0.045 -0.2424 -0.9822  0.7080
   53MOL   H26815972   2.382   6.169   0.179 -0.6800  0.3722  0.5605
   53MOL   H26915973   2.509   6.046   0.342  0.7924 -1.2402 -1.8905
   53MOL   H27015974   2.734   6.134   0.417 -0.6132 -0.8674  1.1233
   53MOL   H27115975   2.820   6.360   0.290 -1.2479  1.9781  1.7632
   53MOL   C27215976   2.396   6.539   0.158  0.4256  0.1134  0.3296
   53MOL   C27315977   2.303   6.513   0.279  0.5679 -0.4306 -0.7877
   53MOL   C27415978   2.249   6.650   0.337 -0.1060  0.6180 -0.8665
   53MOL   C27515979   2.308   6.705   0.454  0.9136  0.4070  0.0347
   53MOL   C27615980   2.256   6.826   0.508  0.0292 -0.1817 -0.3851
   53MOL   C27715981   2.166   6.892   0.431  0.5981  0.9590 -0.1050
   53MOL   C27815982   2.118   6.834   0.308 -1.1075  0.1969 -0.8213
   53MOL   N27915983   2.154   6.714   0.263  0.0659  0.4692 -0.6919
   53MOL   H28015984   2.329   6.598   0.095  0.7258  1.7203  1.4808
   53MOL   H28115985   2.476   6.605   0.193  0.6806 -0.9582  1.8019
   53MOL   H28215986   2.373   6.475   0.354 -0.2333 -0.5821 -0.1129
   53MOL   H28315987   2.394   6.661   0.503 -0.2685 -1.5561  0.3683
   53MOL   H28415988   2.298   6.865   0.599 -0.7032  1.8900 -0.9010
   53MOL   H28515989   2.121   6.984   0.467  1.6173  0.1085  3.5433
   53MOL   H28615990   2.037   6.881   0.254 -1.6539 -0.1864 -0.3377
   53MOL   C28715991   2.191   6.401   0.267  0.0360  0.0846  0.3382
   53MOL   C28815992   2.105   6.389   0.389  0.5183  0.0733 -0.3861
   53MOL   C28915993   2.145   6.281   0.488  0.2977 -0.1171  0.2854
   53MOL   C29015994   2.168   6.310   0.617 -0.5998  0.0019 -0.2949
   53MOL   C29115995   2.201   6.211   0.708 -0.4168  0.3246  0.0039
   53MOL   C29215996   2.198   6.083   0.658  0.4729  0.2342  0.1549
   53MOL   C29315997   2.163   6.057   0.527 -0.2580  0.4493 -0.6804
   53MOL   N29415998   2.134   6.153   0.437  0.7139 -0.6221  0.5979
   53MOL   H29515999   2.215   6.297   0.242 -1.5227  0.3909 -2.7097
   53MOL   H29616000   2.131   6.429   0.180  0.1727  2.1569  0.8924
   53MOL   H29716001   2.006   6.371   0.349  0.1518 -0.6417  0.8048
   53MOL   H29816002   2.163   6.412   0.652 -0.3177 -0.6232  1.6324
   53MOL   H29916003   2.219   6.236   0.811 -0.3973 -0.1831  0.1261
   53MOL   H30016004   2.226   5.994   0.713  0.8784  0.8708  0.9935
   53MOL   H30116005   2.166   5.957   0.485 -1.7750 -0.2076  0.7007
   53MOL   H30216006   2.102   6.488   0.436 -0.4129 -0.4582  0.7187
   54MOL     C116007   5.810   7.106   3.971 -0.1685 -0.8192 -0.0738
   54MOL     C216008   5.706   7.030   4.054 -0.0879 -0.3125  0.7241
   54MOL     C316009   5.695   7.090   4.194  0.1823  0.4174  0.7761
   54MOL     C416010   5.735   7.017   4.300 -0.1799 -0.0243 -0.8438
   54MOL     C516011   5.696   7.075   4.427  0.2482  0.3222  0.5937
   54MOL     C616012   5.612   7.192   4.437  0.3139  0.0488 -0.5932
   54MOL     C716013   5.589   7.259   4.318 -0.0487  0.2949 -0.5853
   54MOL     N816014   5.632   7.210   4.203 -0.1958  0.1299  0.2049
   54MOL     H916015   5.828   7.070   3.870  1.1682  1.7652 -0.7804
   54MOL    H1016016   5.775   7.208   3.957 -1.4601 -0.8337  2.5704
   54MOL    H1116017   5.740   6.928   4.072  0.7525 -0.2884 -0.6454
   54MOL    H1216018   5.797   6.929   4.297  0.8970  0.7060 -0.5310
   54MOL    H1316019   5.723   7.009   4.508  2.2615  1.1294  0.6132
   54MOL    H1416020   5.574   7.231   4.530  2.5053  1.7621 -0.3731
   54MOL    H1516021   5.541   7.356   4.310 -3.0088 -1.1605 -1.2450
   54MOL    H1616022   5.906   7.107   4.022  0.1898  1.4696 -0.7589
   54MOL    C1716023   5.573   7.013   3.992  0.1122 -0.5471  0.8067
   54MOL    C1816024   5.566   6.942   3.857 -0.2225 -0.0402 -0.4019
   54MOL    C1916025   5.599   6.793   3.859  0.1993  0.0121 -0.6636
   54MOL    C2016026   5.715   6.746   3.797 -0.3270  0.0218  0.2261
   54MOL    C2116027   5.747   6.607   3.813 -0.1787 -0.0486 -0.6178
   54MOL    C2216028   5.671   6.533   3.908  0.1458 -0.0165 -0.1182
   54MOL    C2316029   5.552   6.588   3.958 -0.7624  0.1834  0.3271
   54MOL    N2416030   5.515   6.717   3.932 -0.3962  0.2051 -0.2772
   54MOL    H2516031   5.542   7.118   3.989  2.7944  0.2798  0.2777
   54MOL    H2616032   5.502   6.958   4.054  0.2824  0.1477  1.6320
   54MOL    H2716033   5.634   6.996   3.792  0.9942 -0.3497  0.5977
   54MOL    H2816034   5.782   6.802   3.735  2.5967  0.2630  3.4727
   54MOL    H2916035   5.830   6.571   3.754 -0.2458 -0.8220 -0.2480
   54MOL    H3016036   5.692   6.428   3.924 -1.2165 -0.3924 -0.7755
   54MOL    H3116037   5.491   6.525   4.021 -0.2148 -0.7612 -0.0709
   54MOL    C3216038   5.426   6.958   3.798  0.2478  0.5735  0.3418
   54MOL    C3316039   5.381   7.099   3.750  1.0597 -0.9159  0.1475
   54MOL    C3416040   5.502   7.168   3.692 -0.0610 -0.5860  0.6710
   54MOL    C3516041   5.552   7.283   3.750 -0.5080  0.1142  0.5973
   54MOL    C3616042   5.670   7.341   3.702  0.1956 -0.0319 -0.1706
   54MOL    C3716043   5.730   7.280   3.593 -0.9557  0.2449  0.9839
   54MOL    C3816044   5.673   7.167   3.537 -0.4339  0.1311  0.6798
   54MOL    N3916045   5.555   7.111   3.585  0.1135  0.4114 -0.2083
   54MOL    H4016046   5.345   6.934   3.866  0.8876 -1.8697  0.2897
   54MOL    H4116047   5.415   6.899   3.707 -0.7165  1.8499 -0.3790
   54MOL    H4216048   5.346   7.156   3.836 -0.8439  0.1849 -1.3272
   54MOL    H4316049   5.501   7.328   3.834 -0.6416  0.1378  0.5053
   54MOL    H4416050   5.717   7.432   3.736 -1.2623 -0.0322  1.8906
   54MOL    H4516051   5.817   7.322   3.546 -0.3946 -0.9565  0.9157
   54MOL    H4616052   5.718   7.120   3.450 -0.0404 -0.2456  1.0847
   54MOL    C4716053   5.269   7.098   3.649 -0.0628  0.4239 -0.3008
   54MOL    C4816054   5.126   7.060   3.699 -0.6082 -0.1440 -0.4097
   54MOL    C4916055   5.096   7.137   3.822 -0.0147  0.0697  0.2871
   54MOL    C5016056   5.098   7.076   3.945 -0.4140 -0.4656  0.2391
   54MOL    C5116057   5.077   7.150   4.066  0.6826 -0.0570  0.1673
   54MOL    C5216058   5.043   7.287   4.057  0.1113  0.5652  0.7411
   54MOL    C5316059   5.043   7.340   3.926 -0.9428  0.0356  0.0198
   54MOL    N5416060   5.067   7.269   3.808  0.1126  0.2778  0.1600
   54MOL    H5516061   5.286   7.034   3.563 -1.1675  2.3079 -1.9577
   54MOL    H5616062   5.259   7.190   3.592 -0.0408  1.3553  1.1675
   54MOL    H5716063   5.143   6.956   3.725  0.2194  0.2156  0.5593
   54MOL    H5816064   5.124   6.971   3.957 -0.7078 -0.5458  0.1705
   54MOL    H5916065   5.091   7.102   4.161  0.4928 -1.2540 -0.4014
   54MOL    H6016066   5.042   7.350   4.145 -2.5519 -1.3961  2.1817
   54MOL    H6116067   5.026   7.444   3.903 -3.4510 -0.9104 -2.7531
   54MOL    C6216068   5.002   7.053   3.601  0.2853  0.4473  0.5910
   54MOL    C6316069   4.940   7.187   3.533 -0.2009 -0.3005  0.9500
   54MOL    C6416070   5.034   7.260   3.446  0.0232 -0.2971  0.6709
   54MOL    C6516071   5.071   7.393   3.471  0.1421  0.1672 -0.3534
   54MOL    C6616072   5.164   7.458   3.391  0.1841 -0.0371  0.5043
   54MOL    C6716073   5.197   7.393   3.271 -0.1753  0.0744 -0.5681
   54MOL    C6816074   5.145   7.266   3.244 -0.6090  0.9373 -0.2910
   54MOL    N6916075   5.076   7.197   3.331  0.2133 -0.5686  0.1909
   54MOL    H7016076   4.919   7.002   3.650 -0.3532  0.9212  0.0216
   54MOL    H7116077   5.025   6.986   3.519 -1.2261 -2.3068  2.3396
   54MOL    H7216078   4.902   7.242   3.619  1.2933  0.4483  1.1522
   54MOL    H7316079   5.033   7.437   3.562 -1.1734 -1.1180 -0.2692
   54MOL    H7416080   5.196   7.556   3.421 -0.6316  1.5914 -3.6842
   54MOL    H7516081   5.255   7.437   3.191  0.9949 -0.7607 -0.1936
   54MOL    H7616082   5.155   7.228   3.144 -0.5082 -1.2361  0.5105
   54MOL    C7716083   4.810   7.153   3.459 -0.2984  0.5774 -0.8973
   54MOL    C7816084   4.727   7.256   3.381 -0.2212 -0.3604  0.1190
   54MOL    C7916085   4.609   7.191   3.305 -0.4902 -0.1204 -0.5552
   54MOL    C8016086   4.613   7.172   3.165 -0.1589  0.5386 -0.7215
   54MOL    C8116087   4.502   7.101   3.112 -1.3943 -0.5405 -0.1362
   54MOL    C8216088   4.390   7.078   3.194  0.6676  0.1179 -0.6196
   54MOL    C8316089   4.395   7.108   3.330 -0.4263  0.4214 -0.8581
   54MOL    N8416090   4.504   7.162   3.385  0.5220 -0.4265 -0.4609
   54MOL    H8516091   4.742   7.101   3.526 -0.7445  0.4147 -1.4842
   54MOL    H8616092   4.840   7.077   3.387  1.0132 -1.2026  1.4691
   54MOL    H8716093   4.793   7.304   3.309 -0.8869 -3.5783 -2.7901
   54MOL    H8816094   4.698   7.203   3.106  1.4206 -2.3269 -0.0034
   54MOL    H8916095   4.498   7.073   3.008  2.1793 -0.0627 -0.4540
   54MOL    H9016096   4.305   7.026   3.153 -1.0305  2.4878 -0.2088
   54MOL    H9116097   4.311   7.094   3.396 -1.3692 -1.0255 -2.3196
   54MOL    C9216098   4.681   7.377   3.467  1.1022  0.1117  0.0997
   54MOL    C9316099   4.636   7.501   3.393  0.2793 -0.4380  0.4804
   54MOL    C9416100   4.483   7.485   3.361 -0.2005  0.5562 -0.2525
   54MOL    C9516101   4.441   7.460   3.227 -0.3562  0.0442  0.0128
   54MOL    C9616102   4.306   7.432   3.212  0.9469 -0.6554 -0.0261
   54MOL    C9716103   4.214   7.440   3.317 -0.0909 -0.5461 -0.0447
   54MOL    C9816104   4.262   7.465   3.449 -0.0481  0.1129  0.2937
   54MOL    N9916105   4.394   7.480   3.468 -0.0502  0.2738  0.3260
   54MOL   H10016106   4.772   7.409   3.517  1.4032  1.4321 -1.2597
   54MOL   H10116107   4.610   7.340   3.541  1.0727  0.9393  0.4940
   54MOL   H10216108   4.689   7.509   3.298  0.9901 -1.6996  0.7497
   54MOL   H10316109   4.515   7.446   3.150  0.1309  0.1661  0.4552
   54MOL   H10416110   4.280   7.400   3.113 -0.6314  1.8342 -0.4686
   54MOL   H10516111   4.110   7.413   3.304 -0.3024  0.0817  0.3581
   54MOL   H10616112   4.197   7.434   3.529  1.3453  0.0661  1.4272
   54MOL   C10716113   4.660   7.640   3.463 -0.0994  0.3283  0.4166
   54MOL   C10816114   4.801   7.698   3.423 -0.1106 -0.2536 -0.0448
   54MOL   C10916115   4.800   7.716   3.270 -0.2748  0.0648 -0.3988
   54MOL   C11016116   4.724   7.814   3.208  0.2819  0.2944  0.1992
   54MOL   C11116117   4.737   7.830   3.069  0.6070 -0.2410 -0.0519
   54MOL   C11216118   4.817   7.740   3.003 -0.2334  0.1632 -0.2290
   54MOL   C11316119   4.898   7.652   3.077 -0.3769  0.2922  0.2377
   54MOL   N11416120   4.889   7.635   3.208 -0.3274 -0.1588 -0.0698
   54MOL   H11516121   4.665   7.622   3.570  0.0183 -1.5905  0.1006
   54MOL   H11616122   4.582   7.713   3.440 -0.9775 -0.4269  0.9824
   54MOL   H11716123   4.869   7.617   3.448 -0.6697 -0.8485 -0.4249
   54MOL   H11816124   4.668   7.893   3.256 -1.9149 -0.6493 -0.7439
   54MOL   H11916125   4.690   7.916   3.023 -0.0817 -1.1489 -1.0728
   54MOL   H12016126   4.832   7.751   2.897  1.6097  0.9236  0.0887
   54MOL   H12116127   4.972   7.591   3.027  0.1376  0.7639  0.4240
   54MOL   C12216128   4.852   7.820   3.502 -0.2561 -0.3911 -1.0786
   54MOL   C12316129   4.989   7.868   3.482 -0.2035  0.6364 -0.2355
   54MOL   C12416130   5.003   7.941   3.347 -0.5714 -0.0996 -0.2902
   54MOL   C12516131   5.081   7.885   3.244  0.0816  0.5381  0.4398
   54MOL   C12616132   5.080   7.951   3.123 -0.3761 -0.6401 -0.0149
   54MOL   C12716133   5.020   8.077   3.108 -0.0619 -0.0166  0.5834
   54MOL   C12816134   4.966   8.133   3.224 -0.4727  0.9177  0.6897
   54MOL   N12916135   4.950   8.061   3.339  0.5027 -0.1259  0.0760
   54MOL   H13016136   4.845   7.798   3.609  2.4769  0.9521 -0.5940
   54MOL   H13116137   4.779   7.902   3.493 -0.4077 -0.1751  1.7290
   54MOL   H13216138   5.054   7.781   3.469 -1.1070  0.1518 -1.6036
   54MOL   H13316139   5.122   7.786   3.256  0.3471  0.5781 -0.1503
   54MOL   H13416140   5.139   7.901   3.047 -0.1490  0.1902 -0.3932
   54MOL   H13516141   5.026   8.130   3.014 -2.7596 -0.7444 -0.0411
   54MOL   H13616142   4.925   0.081   3.238  1.7882  2.0133 -0.3085
   54MOL   C13716143   5.055   7.945   3.597 -0.6361 -0.0763 -0.2901
   54MOL   C13816144   5.099   7.856   3.723 -0.0666 -0.8627 -0.0067
   54MOL   C13916145   5.210   7.759   3.692  0.5711 -0.1351 -0.1678
   54MOL   C14016146   5.197   7.616   3.695  0.6563 -0.7457 -0.4357
   54MOL   C14116147   5.307   7.540   3.681 -0.7526 -0.3087  0.4491
   54MOL   C14216148   5.433   7.601   3.646 -0.3800 -0.8122 -0.3048
   54MOL   C14316149   5.434   7.741   3.636 -0.1615 -0.1231 -0.1055
   54MOL   N14416150   5.323   7.811   3.652  0.0016  0.2304  0.3095
   54MOL   H14516151   4.981   8.015   3.636  1.0608  0.5474  1.9628
   54MOL   H14616152   5.126   8.019   3.559 -0.7691  0.3181  0.2220
   54MOL   H14716153   5.012   7.795   3.747  0.6057 -1.6094  0.5836
   54MOL   H14816154   5.104   7.568   3.722  0.9539 -1.0720  0.0119
   54MOL   H14916155   5.302   7.432   3.691  0.5048 -0.3372  0.9436
   54MOL   H15016156   5.525   7.545   3.640  0.5768  0.8161 -1.1851
   54MOL   H15116157   5.528   7.786   3.606 -1.5616  1.8922 -1.6342
   54MOL   C15216158   5.122   7.930   3.851  0.1900 -0.1453 -0.2323
   54MOL   C15316159   5.005   8.025   3.899 -0.2402 -0.6549 -0.7517
   54MOL   C15416160   4.877   7.951   3.907 -0.0225 -0.1348  0.1388
   54MOL   C15516161   4.852   7.857   4.008 -0.0697 -0.0338  0.2572
   54MOL   C15616162   4.716   7.828   4.037 -0.3151  0.1877 -0.2327
   54MOL   C15716163   4.614   7.883   3.959  0.3507 -0.3384  0.5447
   54MOL   C15816164   4.653   7.968   3.854 -0.2114 -1.2506 -0.9537
   54MOL   N15916165   4.781   8.007   3.830  0.1821  0.6080 -0.3165
   54MOL   H16016166   5.209   7.993   3.831  0.0256 -0.2696 -1.3734
   54MOL   H16116167   5.150   7.858   3.927 -0.3040 -0.1420 -0.0476
   54MOL   H16216168   4.987   8.105   3.827  1.8203  1.5980  1.1681
   54MOL   H16316169   4.944   7.822   4.053  1.3812 -0.1206 -2.6714
   54MOL   H16416170   4.688   7.762   4.117 -0.5067 -2.6978 -2.6300
   54MOL   H16516171   4.510   7.861   3.975 -0.8503  2.4371 -2.8005
   54MOL   H16616172   4.581   8.021   3.794 -0.8907  1.0874  1.8061
   54MOL   C16716173   5.031   8.095   4.036  0.0324  0.3505  0.1304
   54MOL   C16816174   4.910   0.013   4.099  0.4738  0.0835 -0.0895
   54MOL   C16916175   4.925   0.035   4.246  0.0921  0.0047  0.3144
   54MOL   C17016176   4.858   8.108   4.337  0.0387  0.3859 -0.0834
   54MOL   C17116177   4.858   8.133   4.473  0.2701 -0.7674 -0.4324
   54MOL   C17216178   4.938   0.091   4.515  0.1582 -0.5096  0.0741
   54MOL   C17316179   5.001   0.168   4.416  0.4627  0.1897 -0.0972
   54MOL   N17416180   4.992   0.142   4.284 -0.8252 -0.3030 -0.1599
   54MOL   H17516181   5.121   0.005   4.028  0.3354 -0.3772 -2.4191
   54MOL   H17616182   5.061   8.013   4.102 -3.4504 -1.2569 -0.2169
   54MOL   H17716183   4.822   8.102   4.087  0.3643  0.3110 -0.4759
   54MOL   H17816184   4.796   8.033   4.289  3.4087 -0.7597 -2.8945
   54MOL   H17916185   4.804   8.068   4.540  0.5452  0.5567  1.1072
   54MOL   H18016186   4.958   0.117   4.617  0.8850  0.4854 -0.3156
   54MOL   H18116187   5.060   0.255   4.440  1.3401 -0.2184 -0.7786
   54MOL   C18216188   4.859   0.133   4.022 -0.4390 -0.0124  0.7817
   54MOL   C18316189   4.741   0.217   4.072  0.1353  0.7244 -0.7197
   54MOL   C18416190   4.730   0.340   3.981 -0.0793 -0.2361  0.4291
   54MOL   C18516191   4.767   0.469   4.032 -0.1264 -0.5323  0.4714
   54MOL   C18616192   4.746   0.582   3.943 -0.7269  0.6375 -0.5735
   54MOL   C18716193   4.689   0.557   3.821 -0.2664  0.0786 -0.7259
   54MOL   C18816194   4.656   0.431   3.778  0.0996 -0.3050  0.3836
   54MOL   N18916195   4.675   0.323   3.858  0.0057 -0.4040  0.0025
   54MOL   H19016196   4.831   0.106   3.920 -1.4638  1.5662  0.6308
   54MOL   H19116197   4.940   0.207   4.022  0.6710 -1.2102  0.7404
   54MOL   H19216198   4.767   0.251   4.172  2.6180 -0.9272 -0.7342
   54MOL   H19316199   4.820   0.482   4.125  0.0811  1.6782  0.0692
   54MOL   H19416200   4.781   0.679   3.976  1.3708  0.2087 -1.4399
   54MOL   H19516201   4.687   0.638   3.750 -0.8887  1.8362  1.2680
   54MOL   H19616202   4.615   0.419   3.679  2.9047  0.4679 -0.9306
   54MOL   C19716203   4.609   0.142   4.082  0.3569  0.1424  0.0858
   54MOL   C19816204   4.508   0.183   4.199 -0.0576  0.3124  1.1416
   54MOL   C19916205   4.381   0.094   4.186  0.0499  0.0714 -0.0840
   54MOL   C20016206   4.256   0.157   4.152  0.6557 -0.0765  0.2981
   54MOL   C20116207   4.153   0.069   4.109  0.6076 -0.1119  0.2663
   54MOL   C20216208   4.173   8.082   4.111  0.3802 -0.1207  0.2418
   54MOL   C20316209   4.296   8.028   4.146 -0.1307 -0.7860 -0.5627
   54MOL   N20416210   4.398   8.110   4.186  0.1912 -1.1163 -0.0178
   54MOL   H20516211   4.624   0.040   4.118 -1.9122 -0.7431 -1.3567
   54MOL   H20616212   4.564   0.121   3.985 -0.7311 -0.3219  0.6732
   54MOL   H20716213   4.475   0.284   4.173 -0.2921  0.1000  0.6037
   54MOL   H20816214   4.253   0.264   4.149 -1.2712 -0.0742  1.7065
   54MOL   H20916215   4.057   0.096   4.069  0.2058 -2.8462 -0.7515
   54MOL   H21016216   4.090   8.017   4.087 -0.7064  1.7235 -1.1906
   54MOL   H21116217   4.313   7.922   4.140 -3.7562 -1.3912 -1.7611
   54MOL   C21216218   4.567   0.193   4.340  0.5163 -0.0926  0.1699
   54MOL   C21316219   4.475   0.221   4.458 -0.0490 -0.1779  0.2018
   54MOL   C21416220   4.555   0.201   4.590 -0.4504  0.4474 -0.4160
   54MOL   C21516221   4.538   0.081   4.665  0.5604 -0.8011  0.1798
   54MOL   C21616222   4.625   0.063   4.774  0.3815 -0.2014  0.1612
   54MOL   C21716223   4.716   0.166   4.817 -0.2031  0.0361  0.7452
   54MOL   C21816224   4.721   0.277   4.737 -0.1185 -0.2065  0.1439
   54MOL   N21916225   4.653   0.293   4.623  0.0631 -0.0643 -0.0987
   54MOL   H22016226   4.654   0.258   4.338 -1.1660  2.2070 -0.2404
   54MOL   H22116227   4.610   0.095   4.358 -1.1761 -0.7123  0.9598
   54MOL   H22216228   4.402   0.141   4.448  0.0349 -0.0125 -2.2370
   54MOL   H22316229   4.459   0.013   4.637  1.2104 -1.0689 -1.0383
   54MOL   H22416230   4.604   8.132   4.839 -0.8157  0.5191  0.7072
   54MOL   H22516231   4.777   0.159   4.906 -0.0206  0.8042  0.6883
   54MOL   H22616232   4.784   0.357   4.774  2.4482 -1.1239 -2.1036
   54MOL   C22716233   4.407   0.357   4.436  0.8550  1.0409 -0.0967
   54MOL   C22816234   4.300   0.396   4.543  0.1988 -0.9439  0.0913
   54MOL   C22916235   4.207   0.282   4.577  0.1272 -0.8415  0.0568
   54MOL   C23016236   4.242   0.187   4.670  0.2459 -0.4303  0.2445
   54MOL   C23116237   4.163   0.070   4.696 -0.0360  0.1871 -0.1474
   54MOL   C23216238   4.051   0.061   4.613  0.8500 -0.1670  0.0668
   54MOL   C23316239   4.021   0.160   4.514 -0.1876  0.2069  0.1980
   54MOL   N23416240   4.104   0.268   4.494 -0.4640 -0.6110 -0.4229
   54MOL   H23516241   4.353   0.340   4.342 -1.5379 -1.4162  1.6252
   54MOL   H23616242   4.474   0.441   4.422 -0.2736  1.7330 -1.6031
   54MOL   H23716243   4.232   0.467   4.495  0.4843 -0.4007  0.4722
   54MOL   H23816244   4.328   0.200   4.733  0.3173 -1.2191  0.3168
   54MOL   H23916245   4.186   8.151   4.774  0.5489  0.7861  0.2239
   54MOL   H24016246   3.982   8.129   4.617  0.9048 -0.1650  1.2602
   54MOL   H24116247   3.936   0.146   4.449  0.2128  0.8897 -0.4821
   54MOL   C24216248   4.348   0.491   4.659  0.1972 -0.6375 -0.3529
   54MOL   C24316249   4.317   0.643   4.639 -0.4757 -0.5513 -0.4404
   54MOL   C24416250   4.166   0.661   4.634 -0.2528 -0.7168  0.5297
   54MOL   C24516251   4.095   0.691   4.512 -0.0771  0.4722  0.4630
   54MOL   C24616252   3.955   0.722   4.521 -0.2961 -0.5911  0.3689
   54MOL   C24716253   3.887   0.717   4.646 -0.9032 -0.0426  0.1329
   54MOL   C24816254   3.966   0.670   4.754  0.2727  0.0105  0.7034
   54MOL   N24916255   4.096   0.646   4.751 -0.4683  0.6750 -0.5795
   54MOL   H25016256   4.453   0.473   4.682 -0.4233 -2.6083  1.0455
   54MOL   H25116257   4.291   0.475   4.750 -1.3678  2.4853 -0.7084
   54MOL   H25216258   4.341   0.663   4.534 -0.0518 -0.7837 -0.3885
   54MOL   H25316259   4.139   0.685   4.414 -1.6012 -0.4874 -0.1825
   54MOL   H25416260   3.905   0.736   4.427 -0.7329 -2.1536  0.3577
   54MOL   H25516261   3.782   0.739   4.658 -1.5098 -2.5200 -0.4173
   54MOL   H25616262   3.924   0.668   4.854  2.2739 -0.2783  1.5634
   54MOL   C25716263   4.379   0.743   4.741 -0.2576  0.9143 -0.0005
   54MOL   C25816264   4.495   0.838   4.693 -0.5492  0.1261 -0.2207
   54MOL   C25916265   4.507   0.960   4.786  0.5320  0.4538 -0.0382
   54MOL   C26016266   4.492   1.094   4.737  0.2228 -0.2619 -0.0786
   54MOL   C26116267   4.494   1.198   4.830 -0.8821 -0.2777  0.0766
   54MOL   C26216268   4.507   1.170   4.970  0.0163 -0.1652  0.4321
   54MOL   C26316269   4.530   1.036   5.007  0.4528 -0.4147 -0.5962
   54MOL   N26416270   4.522   0.932   4.920 -0.1806  0.2973 -0.4121
   54MOL   H26516271   4.409   0.698   4.836 -0.5107  1.0129  0.1265
   54MOL   H26616272   4.296   0.809   4.766 -0.5246  0.0566  1.4280
   54MOL   H26716273   4.467   0.875   4.594 -1.7828 -0.1962 -0.0041
   54MOL   H26816274   4.479   1.108   4.631  0.4390  0.7022  0.0180
   54MOL   H26916275   4.485   1.302   4.801  2.6164  0.0150 -0.1186
   54MOL   H27016276   4.518   1.248   5.044  2.4137  0.9508 -1.0271
   54MOL   H27116277   4.558   1.016   5.109 -0.5066 -1.5107 -0.5440
   54MOL   C27216278   4.631   0.761   4.699  0.1718 -0.1290  0.5143
   54MOL   C27316279   4.676   0.686   4.568 -0.0619  0.8170  0.3095
   54MOL   C27416280   4.663   0.769   4.435  0.0604  0.5535 -0.2143
   54MOL   C27516281   4.770   0.846   4.386  0.5226 -0.2614  0.5626
   54MOL   C27616282   4.755   0.920   4.270  0.6869 -0.3907  0.1143
   54MOL   C27716283   4.636   0.904   4.191 -0.8769  0.0474  0.6257
   54MOL   C27816284   4.539   0.814   4.240  0.3788 -0.4047  0.5240
   54MOL   N27916285   4.553   0.754   4.360 -0.3290  0.3713  0.2117
   54MOL   H28016286   4.639   0.687   4.778 -0.6002  0.5219  1.2106
   54MOL   H28116287   4.712   0.832   4.716  2.0555 -1.8596 -1.0441
   54MOL   H28216288   4.614   0.597   4.558  0.3219  0.7676 -1.9227
   54MOL   H28316289   4.867   0.849   4.434  0.2729 -0.0218  1.0664
   54MOL   H28416290   4.839   0.973   4.226 -0.3374 -0.1003 -1.5106
   54MOL   H28516291   4.628   0.959   4.099  0.5997 -0.0578  0.4151
   54MOL   H28616292   4.447   0.794   4.188  1.1110  0.3651 -1.0810
   54MOL   C28716293   4.819   0.621   4.587 -0.3752  0.7967 -0.5735
   54MOL   C28816294   4.852   0.516   4.472 -0.3315  0.3210 -0.2448
   54MOL   C28916295   4.973   0.562   4.391  0.6707  0.0563  0.2694
   54MOL   C29016296   4.951   0.637   4.272 -0.2466 -0.1757 -0.2627
   54MOL   C29116297   5.062   0.688   4.204 -0.2813 -0.0801  0.4444
   54MOL   C29216298   5.191   0.654   4.254 -0.5077 -0.7057  1.0163
   54MOL   C29316299   5.205   0.583   4.379 -0.3073  0.3884 -0.5843
   54MOL   N29416300   5.098   0.537   4.447 -0.0444 -0.0034 -0.6510
   54MOL   H29516301   4.812   0.564   4.679  0.5746 -0.5815 -1.3277
   54MOL   H29616302   4.893   0.697   4.611 -1.1144  0.9800  1.1937
   54MOL   H29716303   4.759   0.497   4.418 -1.1117 -0.2675  1.2493
   54MOL   H29816304   4.852   0.659   4.235 -0.5894  2.3973  2.0903
   54MOL   H29916305   5.050   0.737   4.109 -0.1628 -1.4020 -0.2498
   54MOL   H30016306   5.274   0.689   4.194 -0.0964  0.2625  2.1111
   54MOL   H30116307   5.301   0.549   4.415  0.0242  2.1875  0.3019
   54MOL   H30216308   4.886   0.426   4.525 -0.3999  1.8640  2.5172
   55MOL     C116309   5.806   2.106   4.954  0.0348  0.0606  0.1095
   55MOL     C216310   5.780   2.197   5.073  0.1601  0.1222  0.0135
   55MOL     C316311   5.821   2.340   5.050  0.4127 -0.4592  0.2301
   55MOL     C416312   5.913   2.398   5.141  0.0980  0.0556  0.5721
   55MOL     C516313   5.952   2.532   5.127 -0.8939  0.1524 -0.4697
   55MOL     C616314   5.897   2.598   5.019  0.3514  0.0741  0.6715
   55MOL     C716315   5.816   2.533   4.927  0.4942 -0.0284 -0.2283
   55MOL     N816316   5.774   2.404   4.941 -0.1916  0.1574 -0.3677
   55MOL     H916317   5.741   2.129   4.869 -0.7970 -3.6736 -0.3513
   55MOL    H1016318   5.907   2.119   4.915 -0.4742  1.7609 -0.6882
   55MOL    H1116319   5.855   2.169   5.147  1.4493  0.0577 -1.2986
   55MOL    H1216320   5.962   2.345   5.221 -1.4615  0.0415  1.5435
   55MOL    H1316321   6.023   2.572   5.198 -1.3547 -0.9774  0.6487
   55MOL    H1416322   5.922   2.703   5.008 -2.6243  0.7957  0.4978
   55MOL    H1516323   5.782   2.593   4.844  0.1229  2.3344  1.5801
   55MOL    H1616324   5.797   2.003   4.988  0.7110  1.1819  3.8638
   55MOL    C1716325   5.643   2.190   5.135  0.3502  0.3670  0.6366
   55MOL    C1816326   5.595   2.059   5.216 -0.0902  0.4497  0.2558
   55MOL    C1916327   5.709   2.008   5.306  0.4524  0.7547 -1.1180
   55MOL    C2016328   5.779   1.893   5.276  0.4212  0.1862  0.4315
   55MOL    C2116329   5.890   1.863   5.356 -0.6996  0.3755 -0.9256
   55MOL    C2216330   5.940   1.949   5.457  0.3564  0.0637 -0.5381
   55MOL    C2316331   5.858   2.058   5.485  0.8321  0.3601 -0.1170
   55MOL    N2416332   5.753   2.090   5.405 -0.3037 -0.2870 -0.5685
   55MOL    H2516333   5.568   2.212   5.059 -1.4065  2.3634  2.8433
   55MOL    H2616334   5.643   2.271   5.209 -1.1387  0.0416  0.9977
   55MOL    H2716335   5.583   1.982   5.140  0.2213  1.0085 -0.3648
   55MOL    H2816336   5.762   1.826   5.193 -0.0411  0.5814  0.1970
   55MOL    H2916337   5.940   1.768   5.345 -1.2106  0.0216 -0.2951
   55MOL    H3016338   6.022   1.920   5.521 -2.2840 -2.1463  1.9906
   55MOL    H3116339   5.888   2.124   5.566  0.0954 -1.6374  1.8307
   55MOL    C3216340   5.461   2.063   5.290  0.5093 -0.7498  0.1632
   55MOL    C3316341   5.382   1.930   5.312  0.1479 -0.2768 -0.1206
   55MOL    C3416342   5.458   1.805   5.349  0.1141 -0.1189 -0.2789
   55MOL    C3516343   5.530   1.795   5.469  0.9749 -0.1515 -0.3419
   55MOL    C3616344   5.617   1.693   5.498  0.0281  0.1950  0.3902
   55MOL    C3716345   5.635   1.594   5.396  0.1425  0.2584  0.1973
   55MOL    C3816346   5.563   1.612   5.273  0.3835 -0.8890 -0.3300
   55MOL    N3916347   5.478   1.711   5.256 -0.1330  0.1695 -0.4333
   55MOL    H4016348   5.388   2.123   5.235  0.5799 -2.6686 -2.1085
   55MOL    H4116349   5.478   2.108   5.388 -0.2280  0.7512 -0.3885
   55MOL    H4216350   5.334   1.899   5.220  0.3397 -1.1352  0.0645
   55MOL    H4316351   5.523   1.878   5.537  2.7589  0.0430 -0.3758
   55MOL    H4416352   5.665   1.696   5.595 -1.7611  3.3410  1.2714
   55MOL    H4516353   5.698   1.506   5.402  0.1295  0.2518  0.2285
   55MOL    H4616354   5.591   1.550   5.190 -0.2496 -0.5358 -0.8042
   55MOL    C4716355   5.273   1.955   5.420 -0.0373  0.3512  0.1293
   55MOL    C4816356   5.148   2.041   5.385  0.0150  0.0291  0.1008
   55MOL    C4916357   5.023   1.957   5.361 -0.5072  0.0165  0.5864
   55MOL    C5016358   4.950   1.988   5.244 -0.3822 -1.0445 -0.4801
   55MOL    C5116359   4.821   1.931   5.236  0.3133 -0.3262 -0.1332
   55MOL    C5216360   4.779   1.841   5.338  0.1596  0.0938 -0.6115
   55MOL    C5316361   4.863   1.816   5.444 -0.2344  0.3752  0.0180
   55MOL    N5416362   4.978   1.876   5.461 -0.4240  0.5684  0.0131
   55MOL    H5516363   5.309   1.982   5.519 -0.7866 -1.1276  0.8262
   55MOL    H5616364   5.239   1.853   5.438  1.6314 -0.0806  0.9223
   55MOL    H5716365   5.173   2.085   5.287  0.8391 -3.6012 -1.3884
   55MOL    H5816366   4.993   2.061   5.177  0.8346 -0.1412  1.2360
   55MOL    H5916367   4.755   1.951   5.153 -0.5886  0.0130  0.6513
   55MOL    H6016368   4.682   1.794   5.343  0.9662 -1.4542  1.6376
   55MOL    H6116369   4.818   1.753   5.519  1.1992 -0.5011  0.1520
   55MOL    C6216370   5.120   2.155   5.489 -0.8399 -0.1337  0.2115
   55MOL    C6316371   5.196   2.295   5.466 -0.0054  0.2664 -0.2397
   55MOL    C6416372   5.162   2.356   5.334 -0.4071 -0.8258 -0.3227
   55MOL    C6516373   5.262   2.396   5.249  0.4411 -1.3177  0.7080
   55MOL    C6616374   5.228   2.457   5.121  0.1482 -0.5070 -0.6132
   55MOL    C6716375   5.095   2.482   5.093 -0.5110 -0.3400 -0.3654
   55MOL    C6816376   5.003   2.430   5.182  0.0180 -0.1363  0.1499
   55MOL    N6916377   5.030   2.378   5.303 -0.2698 -0.3082 -0.2832
   55MOL    H7016378   5.141   2.114   5.588 -1.3253  0.6189  0.6253
   55MOL    H7116379   5.012   2.168   5.493 -0.9668 -1.0157 -0.0622
   55MOL    H7216380   5.297   2.255   5.455 -0.5127 -1.0646 -0.2191
   55MOL    H7316381   5.364   2.384   5.283  0.6189 -0.4210  0.5065
   55MOL    H7416382   5.294   2.478   5.038  0.5515 -1.7819 -0.6297
   55MOL    H7516383   5.079   2.532   4.998 -4.1810 -0.2172  0.2571
   55MOL    H7616384   4.898   2.437   5.157  0.4309 -1.4637 -2.0745
   55MOL    C7716385   5.185   2.393   5.590 -0.2160 -0.2013  0.2272
   55MOL    C7816386   5.192   2.333   5.732  1.1001 -0.3807  0.3338
   55MOL    C7916387   5.313   2.233   5.747  0.7198 -0.7109 -0.4764
   55MOL    C8016388   5.298   2.104   5.802  0.0846  0.5513 -0.1197
   55MOL    C8116389   5.409   2.021   5.806 -0.9158  0.2598  0.6313
   55MOL    C8216390   5.536   2.062   5.747  0.4005 -0.6405 -0.4705
   55MOL    C8316391   5.540   2.195   5.707 -1.1340  0.1436  1.0856
   55MOL    N8416392   5.438   2.279   5.706 -0.8604 -0.4097  0.0547
   55MOL    H8516393   5.085   2.437   5.582 -0.7649 -0.7550  3.4002
   55MOL    H8616394   5.261   2.470   5.593  0.0261 -0.4467  0.3927
   55MOL    H8716395   5.102   2.275   5.750 -0.3159  1.7810  0.4613
   55MOL    H8816396   5.206   2.065   5.843  0.0694 -2.0409 -2.4816
   55MOL    H8916397   5.397   1.917   5.835 -1.1308 -0.1211 -0.7429
   55MOL    H9016398   5.620   1.995   5.736  0.7692 -0.5390  1.5108
   55MOL    H9116399   5.627   2.241   5.664 -0.8782 -0.9289  0.4245
   55MOL    C9216400   5.191   2.446   5.839  0.2931 -0.1083 -1.0162
   55MOL    C9316401   5.115   2.404   5.960 -0.2189 -0.4621  0.0545
   55MOL    C9416402   5.197   2.429   6.092  0.0389 -0.3298  0.5957
   55MOL    C9516403   5.273   2.325   6.150 -0.0198  0.5794  0.3142
   55MOL    C9616404   5.356   2.353   6.258 -0.2927 -0.5443 -0.3102
   55MOL    C9716405   5.355   2.486   6.301 -0.0920 -0.0855 -0.3688
   55MOL    C9816406   5.282   2.588   6.237  0.4924  0.3255 -0.7325
   55MOL    N9916407   5.197   2.556   6.134  0.0524 -0.9117  0.8102
   55MOL   H10016408   5.149   2.536   5.795 -0.4172  0.0575  0.0028
   55MOL   H10116409   5.294   2.473   5.862 -0.7599  2.2102  1.0711
   55MOL   H10216410   5.107   2.295   5.956 -1.1208 -0.5499  3.0781
   55MOL   H10316411   5.268   2.227   6.104  0.5282  0.6482  0.1028
   55MOL   H10416412   5.420   2.283   6.310 -0.1679 -1.0686 -1.1652
   55MOL   H10516413   5.423   2.515   6.380 -1.2872 -0.2476  0.7382
   55MOL   H10616414   5.300   2.691   6.263  2.5580  0.3105 -1.9956
   55MOL   C10716415   4.977   2.469   5.980 -0.1173 -0.4511  0.3295
   55MOL   C10816416   4.869   2.450   5.861 -0.3823 -0.3427  0.1112
   55MOL   C10916417   4.827   2.303   5.842 -0.8677  0.2198 -0.8018
   55MOL   C11016418   4.743   2.248   5.943 -0.5959  0.2742 -0.3263
   55MOL   C11116419   4.697   2.120   5.938 -0.4159  0.0713 -0.0692
   55MOL   C11216420   4.743   2.043   5.825 -0.6038 -0.4432  0.0177
   55MOL   C11316421   4.823   2.108   5.726  0.1459 -0.2403 -0.2759
   55MOL   N11416422   4.868   2.233   5.737 -0.1774  0.0704  0.0414
   55MOL   H11516423   4.997   2.576   5.975 -0.5256 -0.4247 -0.7782
   55MOL   H11616424   4.925   2.452   6.074 -1.5299 -1.5710 -0.6406
   55MOL   H11716425   4.919   2.477   5.768 -0.2963  0.1226  0.2931
   55MOL   H11816426   4.720   2.317   6.023  0.7728 -1.1661  1.3482
   55MOL   H11916427   4.629   2.081   6.013 -0.5632 -0.5696 -0.5379
   55MOL   H12016428   4.709   1.941   5.813 -0.4298 -0.9267  3.1322
   55MOL   H12116429   4.851   2.044   5.644  0.9593  0.0563 -0.2299
   55MOL   C12216430   4.751   2.551   5.870  0.2790 -0.2420 -0.3225
   55MOL   C12316431   4.636   2.555   5.767 -0.2968  0.2037 -0.1631
   55MOL   C12416432   4.525   2.462   5.807  0.6469  0.4330  0.1912
   55MOL   C12516433   4.494   2.353   5.725  0.2622 -0.8536 -0.1992
   55MOL   C12616434   4.395   2.261   5.770 -0.6657 -0.0532 -0.8877
   55MOL   C12716435   4.338   2.279   5.895  0.0690 -0.7315 -0.5761
   55MOL   C12816436   4.372   2.392   5.971  0.7506 -0.2970 -0.5672
   55MOL   N12916437   4.460   2.485   5.924  0.1207 -0.4939  0.5835
   55MOL   H13016438   4.800   2.648   5.863 -2.1758  0.8880 -2.7510
   55MOL   H13116439   4.712   2.551   5.971  1.0589  1.7767  0.0011
   55MOL   H13216440   4.677   2.511   5.675  0.3183  0.4065  0.0134
   55MOL   H13316441   4.551   2.335   5.636  2.9298  0.0834  1.2488
   55MOL   H13416442   4.380   2.166   5.722 -3.2098  0.3314 -0.9044
   55MOL   H13516443   4.288   2.192   5.934 -0.4218 -0.1555  0.1075
   55MOL   H13616444   4.316   2.412   6.060 -0.2432  0.3541 -1.3283
   55MOL   C13716445   4.585   2.690   5.742 -0.4687  0.4760  0.1544
   55MOL   C13816446   4.680   2.791   5.671  0.1494  0.5090  0.0386
   55MOL   C13916447   4.683   2.758   5.522  0.5765  0.1090  0.4012
   55MOL   C14016448   4.801   2.713   5.462  0.4767  0.5260  0.7672
   55MOL   C14116449   4.804   2.683   5.323 -0.0260  0.0402 -0.1995
   55MOL   C14216450   4.685   2.688   5.250 -0.4140  0.2001 -0.3759
   55MOL   C14316451   4.574   2.744   5.322  0.2156  0.0526  0.4705
   55MOL   N14416452   4.576   2.785   5.448  0.2487 -0.1545 -0.3677
   55MOL   H14516453   4.552   2.722   5.841 -1.1315 -0.7206  0.3242
   55MOL   H14616454   4.497   2.690   5.679 -0.1685 -3.7632 -0.4022
   55MOL   H14716455   4.783   2.774   5.701  0.2718 -0.0484 -0.6841
   55MOL   H14816456   4.892   2.696   5.518  0.7095  1.1179  0.5687
   55MOL   H14916457   4.895   2.649   5.276  0.0682  0.7816 -0.5581
   55MOL   H15016458   4.674   2.658   5.147 -0.9574 -1.5714  0.1668
   55MOL   H15116459   4.481   2.762   5.270  0.6940 -0.3762 -0.5515
   55MOL   C15216460   4.635   2.935   5.696 -0.3498 -0.0120 -0.3752
   55MOL   C15316461   4.628   2.989   5.842  0.2625  0.7864 -0.1177
   55MOL   C15416462   4.739   2.921   5.919 -0.2625 -0.8591  0.4170
   55MOL   C15516463   4.712   2.856   6.039  0.4297 -0.1995  0.5412
   55MOL   C15616464   4.815   2.793   6.108 -0.0876  0.8057  0.0207
   55MOL   C15716465   4.947   2.822   6.075 -0.1557  0.7139  0.8347
   55MOL   C15816466   4.966   2.906   5.964  0.0652 -0.4319  0.1110
   55MOL   N15916467   4.867   2.954   5.887 -0.2045 -0.0102 -0.4423
   55MOL   H16016468   4.551   2.979   5.643 -1.9177 -1.3027  1.0255
   55MOL   H16116469   4.722   2.979   5.647 -0.1768  0.0225 -0.0396
   55MOL   H16216470   4.533   2.962   5.888  1.5409 -1.1280  1.4783
   55MOL   H16316471   4.610   2.846   6.074  1.6214 -1.4789  3.8164
   55MOL   H16416472   4.797   2.744   6.203 -0.8932 -0.4992 -0.7933
   55MOL   H16516473   5.032   2.781   6.127  0.5482  0.6056 -0.3859
   55MOL   H16616474   5.064   2.927   5.925 -0.6752  0.6932 -1.1939
   55MOL   C16716475   4.624   3.143   5.845 -0.1434  0.2504  0.9719
   55MOL   C16816476   4.617   3.212   5.983  0.2346 -0.0037 -0.5615
   55MOL   C16916477   4.659   3.365   5.992  0.2991  0.4372 -0.1574
   55MOL   C17016478   4.645   3.447   5.881  0.3575 -0.3402 -0.4128
   55MOL   C17116479   4.696   3.579   5.875  0.9296 -0.0370  0.3280
   55MOL   C17216480   4.749   3.632   5.994 -0.4093  0.2200  0.3264
   55MOL   C17316481   4.750   3.546   6.110 -1.0981 -0.6757 -0.3104
   55MOL   N17416482   4.707   3.417   6.106 -1.1469  0.4182 -0.0398
   55MOL   H17516483   4.548   3.182   5.777  0.3027 -1.5432 -0.5807
   55MOL   H17616484   4.721   3.160   5.799 -0.2276 -2.7571 -0.4217
   55MOL   H17716485   4.689   3.160   6.047  0.1015  0.0986 -0.3252
   55MOL   H17816486   4.602   3.414   5.787  1.8645 -0.6935 -0.9775
   55MOL   H17916487   4.690   3.646   5.791 -0.7764 -1.7886 -1.0006
   55MOL   H18016488   4.785   3.734   5.996 -2.4722  1.0915 -2.7120
   55MOL   H18116489   4.789   3.591   6.200 -1.7969 -0.8671  0.0982
   55MOL   C18216490   4.481   3.196   6.062 -0.0798 -0.2973  0.4867
   55MOL   C18316491   4.355   3.279   6.019 -0.0903  0.5403  0.2316
   55MOL   C18416492   4.298   3.240   5.881 -0.2613 -0.2133 -0.0354
   55MOL   C18516493   4.305   3.331   5.773 -1.0394  0.4487 -0.4073
   55MOL   C18616494   4.256   3.292   5.649 -0.0883  0.4400  0.2100
   55MOL   C18716495   4.197   3.165   5.640  0.1675  0.0265 -0.6513
   55MOL   C18816496   4.196   3.077   5.750 -0.0600 -0.3356  0.4840
   55MOL   N18916497   4.236   3.115   5.871  0.2900  1.2155 -0.1969
   55MOL   H19016498   4.502   3.206   6.168 -0.9261 -2.9665  0.9516
   55MOL   H19116499   4.457   3.089   6.062  3.0339 -1.0513 -0.3258
   55MOL   H19216500   4.397   3.379   6.005 -0.4008  0.6375 -0.0074
   55MOL   H19316501   4.340   3.433   5.785  0.1153 -0.2348  2.6055
   55MOL   H19416502   4.254   3.361   5.566  2.3387  1.5846  1.0711
   55MOL   H19516503   4.147   3.135   5.550  1.3413 -1.2470 -0.9120
   55MOL   H19616504   4.147   2.981   5.748  0.4910 -0.6773  2.2314
   55MOL   C19716505   4.240   3.285   6.127 -0.0229 -0.5090  0.7704
   55MOL   C19816506   4.288   3.360   6.248  0.0866  0.6513 -0.1120
   55MOL   C19916507   4.252   3.507   6.226 -0.1910  0.0677 -0.3044
   55MOL   C20016508   4.348   3.598   6.183  0.7765 -0.2031 -0.1405
   55MOL   C20116509   4.303   3.730   6.155 -0.3498 -0.1980 -0.1931
   55MOL   C20216510   4.170   3.764   6.168 -0.2962  0.1419 -0.2931
   55MOL   C20316511   4.084   3.666   6.216  0.5690  0.3964  0.0333
   55MOL   N20416512   4.120   3.540   6.243 -0.7748  0.3850  0.4262
   55MOL   H20516513   4.190   3.190   6.146 -0.4328 -0.3925  0.2783
   55MOL   H20616514   4.161   3.344   6.081  0.6493 -0.3121 -0.1529
   55MOL   H20716515   4.397   3.369   6.249  0.2040 -0.5981  1.9591
   55MOL   H20816516   4.453   3.582   6.165  1.0725  2.0422 -0.5477
   55MOL   H20916517   4.370   3.809   6.127 -3.2922  2.1695 -0.7943
   55MOL   H21016518   4.132   3.865   6.160 -2.9564 -0.8391 -0.5433
   55MOL   H21116519   3.978   3.682   6.231  0.5258 -1.8875  2.5550
   55MOL   C21216520   4.243   3.315   6.385 -0.5375  0.6945  0.8834
   55MOL   C21316521   4.320   3.182   6.423  0.0502 -0.4506 -0.5681
   55MOL   C21416522   4.440   3.220   6.508 -0.5113 -0.0932  0.0428
   55MOL   C21516523   4.572   3.228   6.454  0.3308 -0.1780  0.1310
   55MOL   C21616524   4.676   3.286   6.533 -0.4779 -0.4581  0.2439
   55MOL   C21716525   4.640   3.328   6.660 -0.2845  0.2691 -0.3101
   55MOL   C21816526   4.506   3.313   6.706  0.0732  0.1325 -0.5999
   55MOL   N21916527   4.412   3.265   6.629  0.6284  0.1770  0.7686
   55MOL   H22016528   4.135   3.303   6.382 -0.4878  0.3996  0.0294
   55MOL   H22116529   4.257   3.382   6.470 -1.7414  0.2550  1.4309
   55MOL   H22216530   4.356   3.135   6.332  0.3145  1.4366 -1.4576
   55MOL   H22316531   4.595   3.194   6.354 -1.0230  1.2850 -0.7007
   55MOL   H22416532   4.779   3.280   6.500 -0.6134  1.0416 -0.4789
   55MOL   H22516533   4.707   3.366   6.735 -1.3554  0.6446  0.4710
   55MOL   H22616534   4.480   3.346   6.805 -1.4764  0.4818 -1.1070
   55MOL   C22716535   4.241   3.070   6.494 -0.5643 -0.5401  0.3668
   55MOL   C22816536   4.173   2.959   6.407  0.2880 -0.0256  0.2323
   55MOL   C22916537   4.262   2.883   6.308 -0.6298  0.1742 -0.4630
   55MOL   C23016538   4.241   2.875   6.170  0.2938 -0.1263  0.0242
   55MOL   C23116539   4.315   2.780   6.097  0.0283 -0.6590  0.2527
   55MOL   C23216540   4.426   2.718   6.153  0.5497  1.0636  0.3642
   55MOL   C23316541   4.439   2.734   6.291 -0.0742  0.7882  0.0694
   55MOL   N23416542   4.363   2.819   6.366 -0.4921 -0.7081  0.6600
   55MOL   H23516543   4.182   3.115   6.573 -1.6574 -2.4747  0.6893
   55MOL   H23616544   4.313   3.007   6.548  0.6411  0.6763  0.2100
   55MOL   H23716545   4.097   3.007   6.346 -0.8828 -0.4713  1.3288
   55MOL   H23816546   4.155   2.920   6.121 -0.3464 -2.3131 -0.9407
   55MOL   H23916547   4.297   2.774   5.990  0.2191 -0.8219  0.2294
   55MOL   H24016548   4.492   2.660   6.090 -2.4093 -2.3255  0.2808
   55MOL   H24116549   4.512   2.698   6.363 -2.0883 -1.8241  0.8789
   55MOL   C24216550   4.107   2.857   6.500  0.8964 -0.4497 -0.1510
   55MOL   C24316551   3.989   2.910   6.580  0.0258 -0.7110 -0.1102
   55MOL   C24416552   3.883   2.965   6.483  0.6462  0.3358  0.2884
   55MOL   C24516553   3.841   3.100   6.495  0.4648  0.0297  0.2902
   55MOL   C24616554   3.767   3.155   6.393 -0.6362 -0.0863 -0.6742
   55MOL   C24716555   3.735   3.074   6.282 -0.3300  0.2639  0.0092
   55MOL   C24816556   3.773   2.939   6.287  0.5170  0.3893  0.7866
   55MOL   N24916557   3.838   2.879   6.387 -0.3078  0.4388 -0.2502
   55MOL   H25016558   4.178   2.812   6.569  1.7342  0.6198 -0.3012
   55MOL   H25116559   4.067   2.777   6.438 -0.9426  0.6788 -0.4567
   55MOL   H25216560   4.019   2.995   6.640 -0.3206 -0.7082  0.0601
   55MOL   H25316561   3.874   3.160   6.579 -1.7149  0.3638  0.9382
   55MOL   H25416562   3.727   3.255   6.398 -1.1067 -0.3557  0.9741
   55MOL   H25516563   3.660   3.111   6.215 -0.9959 -1.0810 -0.0068
   55MOL   H25616564   3.746   2.864   6.214  2.6939 -2.1712  2.4736
   55MOL   C25716565   3.925   2.800   6.668 -0.1724 -0.0699  0.2357
   55MOL   C25816566   4.005   2.790   6.802  0.2471  0.0254 -0.0602
   55MOL   C25916567   3.997   2.917   6.885  0.7653 -0.1891  0.4970
   55MOL   C26016568   4.109   3.004   6.903  0.1235  0.8615 -0.3683
   55MOL   C26116569   4.100   3.127   6.978  0.1840  0.0759  0.5985
   55MOL   C26216570   3.968   3.162   7.021  0.0076 -0.0324 -0.0438
   55MOL   C26316571   3.865   3.064   7.000  0.0245 -0.9008  0.0874
   55MOL   N26416572   3.878   2.950   6.935 -0.3139 -0.0683  0.3063
   55MOL   H26516573   3.918   2.699   6.625 -0.3143 -0.4422  1.1272
   55MOL   H26616574   3.821   2.819   6.693 -0.7853 -1.8445 -0.8638
   55MOL   H26716575   4.111   2.779   6.780  0.3899  0.1281  0.5699
   55MOL   H26816576   4.205   2.979   6.862  0.2278 -1.5827  1.2437
   55MOL   H26916577   4.186   3.188   6.999 -0.7246  1.0133  1.5935
   55MOL   H27016578   3.955   3.257   7.070 -0.8567 -1.0012  1.6372
   55MOL   H27116579   3.768   3.078   7.046  0.4414  1.8774  0.2107
   55MOL   C27216580   3.969   2.674   6.888 -0.3287 -0.4786 -0.3753
   55MOL   C27316581   4.023   2.525   6.849 -0.3956  0.2843  0.1361
   55MOL   C27416582   4.162   2.529   6.782  0.2233 -0.5148 -0.1700
   55MOL   C27516583   4.205   2.485   6.648  0.3550  0.1717 -0.5182
   55MOL   C27616584   4.344   2.490   6.624 -0.2872 -0.5190 -0.3385
   55MOL   C27716585   4.431   2.538   6.726 -0.8328  0.7124  0.5303
   55MOL   C27816586   4.377   2.591   6.843  0.1597 -0.4338 -0.7164
   55MOL   N27916587   4.246   2.580   6.871  0.1060  0.2335 -0.0031
   55MOL   H28016588   3.860   2.668   6.893 -0.6406  3.0609 -1.9950
   55MOL   H28116589   4.016   2.684   6.986 -0.5434 -1.0492 -0.2076
   55MOL   H28216590   3.965   2.470   6.775 -2.1936 -1.2624  2.6376
   55MOL   H28316591   4.136   2.445   6.575 -0.5930 -0.3311  0.6246
   55MOL   H28416592   4.377   2.479   6.522 -0.8835  1.3895 -0.7647
   55MOL   H28516593   4.533   2.564   6.703 -0.2802 -0.2151  1.8935
   55MOL   H28616594   4.442   2.640   6.914 -1.0246  1.4019 -0.8785
   55MOL   C28716595   4.005   2.429   6.966 -0.0078  0.0140 -0.3520
   55MOL   C28816596   4.062   2.282   6.945 -0.4386  0.6008 -0.0795
   55MOL   C28916597   4.103   2.209   7.079  0.5866 -0.2078 -0.0604
   55MOL   C29016598   4.231   2.158   7.091  0.4377 -0.3480 -0.0059
   55MOL   C29116599   4.268   2.111   7.218 -0.1290  0.1261  0.0016
   55MOL   C29216600   4.181   2.112   7.326  0.2843 -0.1685  0.4456
   55MOL   C29316601   4.054   2.160   7.295 -0.0543  0.8101  0.0428
   55MOL   N29416602   4.016   2.214   7.180 -0.3334 -0.4621  0.4470
   55MOL   H29516603   3.903   2.410   7.000 -0.4565  1.2237 -0.9678
   55MOL   H29616604   4.057   2.480   7.047  0.5084 -0.1660 -0.5698
   55MOL   H29716605   4.148   2.277   6.878  2.1633 -1.7608  3.2393
   55MOL   H29816606   4.309   2.159   7.016  0.1506 -2.4933 -0.3574
   55MOL   H29916607   4.367   2.067   7.221  0.1258  0.6914  0.0666
   55MOL   H30016608   4.204   2.052   7.413  0.8718 -0.2302  0.2486
   55MOL   H30116609   3.979   2.151   7.373 -0.8249 -1.3505 -0.9005
   55MOL   H30216610   3.988   2.214   6.902  2.4349 -2.3596 -0.5163
   56MOL     C116611   4.156   5.588   6.489  0.1137 -0.1348 -0.4599
   56MOL     C216612   4.092   5.466   6.554 -0.4865 -0.4166  0.6929
   56MOL     C316613   3.986   5.513   6.655  0.0619 -0.2695  1.1199
   56MOL     C416614   4.002   5.505   6.793  0.6429 -0.7899 -0.2685
   56MOL     C516615   3.908   5.574   6.881  0.1025  0.0189  0.9566
   56MOL     C616616   3.796   5.639   6.824  0.3166 -0.1501  0.0990
   56MOL     C716617   3.792   5.638   6.688 -0.3540 -0.2645  0.5257
   56MOL     N816618   3.878   5.577   6.602  0.1096  0.0984  0.1246
   56MOL     H916619   4.202   5.652   6.565  4.1660 -2.1216 -1.1173
   56MOL    H1016620   4.239   5.555   6.426 -0.2299 -0.4384 -0.7546
   56MOL    H1116621   4.171   5.419   6.613  1.3342 -0.9913 -2.1102
   56MOL    H1216622   4.079   5.445   6.839 -0.4267 -1.9507  0.0422
   56MOL    H1316623   3.921   5.580   6.988 -1.4407  0.1802  1.1466
   56MOL    H1416624   3.730   5.701   6.882  0.6875 -0.4517  0.8624
   56MOL    H1516625   3.715   5.701   6.647 -1.1866 -0.5333  1.6498
   56MOL    H1616626   4.081   5.644   6.432 -1.1881  1.6348  2.8617
   56MOL    C1716627   4.056   5.343   6.467  0.2312 -0.0184  0.4506
   56MOL    C1816628   3.977   5.229   6.531 -0.3488 -0.3850  0.3802
   56MOL    C1916629   3.923   5.147   6.416  0.2408 -0.1790  0.3764
   56MOL    C2016630   3.781   5.127   6.411 -0.1236 -0.6960 -0.5171
   56MOL    C2116631   3.733   5.020   6.326  0.0170 -0.8696  0.1174
   56MOL    C2216632   3.821   4.945   6.257 -0.5406 -0.4320  0.1905
   56MOL    C2316633   3.959   4.969   6.266 -0.1597 -0.3727 -0.3990
   56MOL    N2416634   4.007   5.069   6.343  0.0481 -1.1769  0.0728
   56MOL    H2516635   4.148   5.293   6.436  1.1158  1.2938  0.9145
   56MOL    H2616636   3.994   5.372   6.382  1.1049 -0.2901 -0.2905
   56MOL    H2716637   3.890   5.275   6.577  0.9316  2.1065  0.4273
   56MOL    H2816638   3.716   5.189   6.470 -0.8214  1.0644 -3.0185
   56MOL    H2916639   3.627   5.003   6.320 -0.2550  0.8946 -0.4822
   56MOL    H3016640   3.794   4.864   6.190  0.0648 -0.9746  0.5989
   56MOL    H3116641   4.023   4.915   6.199 -0.5341  0.8227 -1.7267
   56MOL    C3216642   4.051   5.151   6.630  0.9701  1.2639 -0.3218
   56MOL    C3316643   3.981   5.034   6.701  0.7987 -0.4974 -0.0580
   56MOL    C3416644   4.087   4.932   6.728 -0.5281 -0.5276  0.6509
   56MOL    C3516645   4.084   4.820   6.645 -0.7969 -0.2778 -0.4021
   56MOL    C3616646   4.157   4.707   6.697  0.1889  0.1597  0.3377
   56MOL    C3716647   4.245   4.727   6.808  0.1238 -0.5291 -0.0711
   56MOL    C3816648   4.259   4.855   6.868  0.4560 -0.4798 -0.0392
   56MOL    N3916649   4.174   4.953   6.829  0.4632  0.0915 -0.5368
   56MOL    H4016650   4.089   5.213   6.711 -0.3598 -1.1510  2.2141
   56MOL    H4116651   4.144   5.115   6.587  0.7321  0.7151 -0.3775
   56MOL    H4216652   3.913   4.990   6.628  0.2695  0.1885  0.0176
   56MOL    H4316653   4.005   4.803   6.573  0.3163 -0.0865 -1.6921
   56MOL    H4416654   4.149   4.608   6.656  0.1663  0.1370  0.3964
   56MOL    H4516655   4.295   4.641   6.850  2.6716  0.6780 -0.5646
   56MOL    H4616656   4.323   4.880   6.950  0.6406  0.1568 -0.3720
   56MOL    C4716657   3.894   5.084   6.827  0.6189 -0.0992  0.1861
   56MOL    C4816658   3.738   5.100   6.805  0.0385 -0.9485 -0.5919
   56MOL    C4916659   3.664   4.972   6.781 -0.9787 -0.7762 -0.4541
   56MOL    C5016660   3.577   4.964   6.665  0.2330  0.2125  0.4788
   56MOL    C5116661   3.512   4.842   6.638 -0.3996 -0.5928  0.2158
   56MOL    C5216662   3.535   4.735   6.725  0.7512  0.0150 -0.0907
   56MOL    C5316663   3.626   4.749   6.829  0.2956  0.4037 -0.3849
   56MOL    N5416664   3.692   4.863   6.859  0.1223 -0.2683  0.2090
   56MOL    H5516665   3.949   5.167   6.872 -0.1934  0.8103 -0.4976
   56MOL    H5616666   3.902   5.017   6.913 -1.3427 -1.9999 -1.0730
   56MOL    H5716667   3.737   5.145   6.706 -1.7890 -3.0918 -1.5760
   56MOL    H5816668   3.556   5.051   6.604 -1.9636 -1.7154 -1.6021
   56MOL    H5916669   3.448   4.828   6.552 -0.4126 -2.0423  0.4526
   56MOL    H6016670   3.477   4.644   6.719  0.8657 -0.0920  0.3795
   56MOL    H6116671   3.653   4.664   6.890  1.0730  0.0903 -1.1596
   56MOL    C6216672   3.653   5.188   6.905  0.0461 -0.7994  0.1849
   56MOL    C6316673   3.643   5.145   7.059 -0.6198 -0.0854  0.8476
   56MOL    C6416674   3.777   5.156   7.109 -0.4306  0.2193  0.1195
   56MOL    C6516675   3.855   5.046   7.156  0.8430 -0.3988  0.7186
   56MOL    C6616676   3.985   5.068   7.193 -0.8170 -0.1712 -0.6951
   56MOL    C6716677   4.036   5.198   7.202  0.1564 -0.7906 -0.1225
   56MOL    C6816678   3.952   5.307   7.160 -1.0142  0.1218  0.3640
   56MOL    N6916679   3.826   5.284   7.105  0.0251  0.0200 -0.2014
   56MOL    H7016680   3.552   5.211   6.874 -0.1021 -0.0380  1.2162
   56MOL    H7116681   3.696   5.288   6.899  0.6535 -1.1360 -1.2122
   56MOL    H7216682   3.612   5.041   7.069  0.4887 -0.3973  1.1772
   56MOL    H7316683   3.811   4.948   7.146 -0.8036  0.2779  1.2902
   56MOL    H7416684   4.046   4.984   7.223  0.8779  0.2572 -2.8231
   56MOL    H7516685   4.129   5.218   7.252  1.5889 -2.0970 -2.1664
   56MOL    H7616686   3.983   5.410   7.165  1.7393 -0.5191 -2.2538
   56MOL    C7716687   3.540   5.225   7.139 -0.1937 -0.4140 -0.1173
   56MOL    C7816688   3.544   5.224   7.290 -0.5650  1.1000  0.6544
   56MOL    C7916689   3.447   5.326   7.345  0.6040 -0.3412  0.3086
   56MOL    C8016690   3.490   5.447   7.404 -0.2481 -0.4569 -0.9960
   56MOL    C8116691   3.392   5.531   7.455  0.7028  0.1606 -0.0897
   56MOL    C8216692   3.257   5.496   7.441  0.6984  0.2702  0.0547
   56MOL    C8316693   3.224   5.376   7.374 -0.3574  0.0908 -0.1887
   56MOL    N8416694   3.318   5.286   7.328  0.1978 -0.9960  0.5044
   56MOL    H8516695   3.440   5.194   7.108 -1.2057  0.8644  1.7827
   56MOL    H8616696   3.545   5.331   7.114 -1.1275  0.3191  2.6685
   56MOL    H8716697   3.647   5.255   7.309 -0.6417  0.4866  2.1748
   56MOL    H8816698   3.595   5.466   7.423 -0.9311  0.4037  2.0427
   56MOL    H8916699   3.414   5.630   7.493  0.2364  0.8982 -1.7280
   56MOL    H9016700   3.181   5.558   7.485  0.8440  0.4800  0.0104
   56MOL    H9116701   3.118   5.357   7.366 -0.5604  0.7007  0.9336
   56MOL    C9216702   3.520   5.084   7.364  0.6133  0.1188  0.7233
   56MOL    C9316703   3.591   5.081   7.502  0.7207  0.3237 -0.3421
   56MOL    C9416704   3.525   5.173   7.606 -0.8374  0.5304 -0.8330
   56MOL    C9516705   3.597   5.281   7.666  0.1904 -0.2768  0.3935
   56MOL    C9616706   3.539   5.360   7.770  0.9012 -0.0541 -0.3467
   56MOL    C9716707   3.410   5.327   7.809  0.3807 -0.5195  0.8686
   56MOL    C9816708   3.343   5.219   7.747  0.5065 -0.4890  0.4520
   56MOL    N9916709   3.400   5.145   7.654 -0.3661 -0.2478  0.5048
   56MOL   H10016710   3.563   5.009   7.297  1.1642  2.3486 -1.4992
   56MOL   H10116711   3.419   5.043   7.362  0.5560  0.2911 -0.0462
   56MOL   H10216712   3.694   5.114   7.489  0.8552 -0.2641 -0.8113
   56MOL   H10316713   3.698   5.303   7.634  0.2459 -1.9596 -0.6543
   56MOL   H10416714   3.591   5.443   7.816  0.7746 -0.3681  0.3735
   56MOL   H10516715   3.361   5.373   7.893 -0.5806  0.3730 -0.1832
   56MOL   H10616716   3.245   5.190   7.780 -0.4063 -0.4065 -2.0364
   56MOL   C10716717   3.593   4.928   7.553  0.0178  0.6553  0.3264
   56MOL   C10816718   3.737   4.866   7.551 -0.3731 -0.3228  0.6197
   56MOL   C10916719   3.833   4.957   7.632  0.8179  0.2077  0.5163
   56MOL   C11016720   3.813   4.971   7.771 -0.0535 -0.2330  0.2575
   56MOL   C11116721   3.910   5.050   7.837  0.3569  0.2622 -0.4207
   56MOL   C11216722   4.015   5.113   7.766  0.2712 -0.4910  0.2955
   56MOL   C11316723   4.020   5.089   7.630 -0.2794  0.5559 -0.1783
   56MOL   N11416724   3.930   5.009   7.569 -0.0648 -0.7647  0.1629
   56MOL   H11516725   3.519   4.864   7.505  0.4499 -0.6184  1.3489
   56MOL   H11616726   3.560   4.916   7.657 -0.8019  0.4770  0.0524
   56MOL   H11716727   3.778   4.871   7.450  0.9056 -2.6792  1.0083
   56MOL   H11816728   3.738   4.915   7.823 -0.2011  0.1571  0.4697
   56MOL   H11916729   3.896   5.051   7.944  0.6469 -2.2261 -0.3328
   56MOL   H12016730   4.092   5.166   7.821  0.0465 -1.7089  1.8065
   56MOL   H12116731   4.094   5.135   7.567 -0.6417  0.8273 -0.4143
   56MOL   C12216732   3.743   4.722   7.597 -0.0926 -0.2698 -0.3681
   56MOL   C12316733   3.882   4.664   7.622  0.5940 -0.5091 -0.6811
   56MOL   C12416734   3.862   4.529   7.694  0.0451 -0.0916  1.1122
   56MOL   C12516735   3.911   4.506   7.821 -0.1143  0.4853 -0.1095
   56MOL   C12616736   3.893   4.377   7.872 -0.5274  0.4256 -0.6227
   56MOL   C12716737   3.829   4.277   7.792  0.0692  0.1369 -0.2355
   56MOL   C12816738   3.798   4.310   7.661 -0.1886 -0.4567  0.0397
   56MOL   N12916739   3.807   4.432   7.619  0.2340 -0.2526  0.1046
   56MOL   H13016740   3.689   4.660   7.525 -1.2956 -0.0943  0.3728
   56MOL   H13116741   3.688   4.704   7.689  1.2442  0.3447  0.5671
   56MOL   H13216742   3.935   4.732   7.688  0.9244  1.0021 -2.4829
   56MOL   H13316743   3.968   4.580   7.875 -3.3920  2.3424  0.9494
   56MOL   H13416744   3.915   4.344   7.973  0.6167 -0.5631 -1.1806
   56MOL   H13516745   3.809   4.178   7.830  3.6518  0.5121  2.8649
   56MOL   H13616746   3.740   4.239   7.604  1.9701 -1.1238 -1.3748
   56MOL   C13716747   3.959   4.656   7.488 -0.5172  0.5484 -0.1011
   56MOL   C13816748   4.113   4.628   7.484  0.3954 -0.0001 -0.3766
   56MOL   C13916749   4.189   4.736   7.550 -0.2381 -0.9313 -0.2755
   56MOL   C14016750   4.254   4.842   7.477 -0.2474  0.6356  0.0599
   56MOL   C14116751   4.331   4.939   7.545 -0.4253  0.8240 -0.3287
   56MOL   C14216752   4.336   4.931   7.688  0.2317 -0.2840 -0.3206
   56MOL   C14316753   4.273   4.824   7.749 -0.7024 -0.0588 -0.1813
   56MOL   N14416754   4.200   4.729   7.684 -0.2138  0.5048  0.3142
   56MOL   H14516755   3.948   4.752   7.437 -0.6168  0.3713 -0.4154
   56MOL   H14616756   3.911   4.587   7.419  1.6287 -0.1191 -0.9596
   56MOL   H14716757   4.132   4.634   7.377 -1.0698 -0.0286 -0.6460
   56MOL   H14816758   4.250   4.845   7.369  0.0826 -1.1032 -0.0195
   56MOL   H14916759   4.378   5.028   7.505  1.1558  1.5703  2.9814
   56MOL   H15016760   4.390   5.002   7.748  1.9157 -1.0220 -0.9487
   56MOL   H15116761   4.267   4.817   7.857  1.1707  1.2400  0.0256
   56MOL   C15216762   4.161   4.484   7.515  0.2913  0.1741  0.5418
   56MOL   C15316763   4.313   4.448   7.495  0.3081 -0.8470 -0.5724
   56MOL   C15416764   4.338   4.303   7.543  0.5004 -0.1924  0.0900
   56MOL   C15516765   4.360   4.280   7.686 -0.4969 -0.5448 -0.0199
   56MOL   C15616766   4.373   4.150   7.735 -0.6518  0.3408  0.4064
   56MOL   C15716767   4.352   4.044   7.647 -1.4789  0.1725  0.2294
   56MOL   C15816768   4.321   4.070   7.512  0.4355 -0.5252 -0.3150
   56MOL   N15916769   4.312   4.193   7.463 -0.1542  0.0422 -0.4273
   56MOL   H16016770   4.105   4.403   7.467  0.3225  1.5016 -1.7993
   56MOL   H16116771   4.144   4.482   7.622 -1.4867  1.3719  0.3123
   56MOL   H16216772   4.370   4.519   7.554 -0.2840  1.1798 -2.3720
   56MOL   H16316773   4.373   4.370   7.744 -1.8835  0.1971 -0.8393
   56MOL   H16416774   4.393   4.129   7.839  3.5228 -0.6509 -0.5010
   56MOL   H16516775   4.345   3.941   7.678 -0.7865 -0.7765 -2.6165
   56MOL   H16616776   4.310   3.987   7.444  0.2805  0.5089 -1.5648
   56MOL   C16716777   4.361   4.468   7.350  0.5296  0.1524 -0.5554
   56MOL   C16816778   4.510   4.427   7.323  0.4368  0.3033 -0.3544
   56MOL   C16916779   4.538   4.456   7.177  0.6023  0.1236  0.6009
   56MOL   C17016780   4.562   4.357   7.079  0.0552 -0.2020 -0.8124
   56MOL   C17116781   4.596   4.399   6.951 -0.0397  0.6188  0.2786
   56MOL   C17216782   4.595   4.537   6.920  0.0745 -0.6990  0.2882
   56MOL   C17316783   4.574   4.627   7.026  0.0737  0.0550  0.1588
   56MOL   N17416784   4.544   4.590   7.148  0.4605  0.3500  0.1563
   56MOL   H17516785   4.356   4.575   7.329  2.8916  0.5340  0.6440
   56MOL   H17616786   4.305   4.415   7.272  1.4386  1.0909 -1.8697
   56MOL   H17716787   4.514   4.320   7.343  2.2767  0.4715  0.2490
   56MOL   H17816788   4.546   4.253   7.104  0.8651  0.1749  1.4481
   56MOL   H17916789   4.614   4.327   6.872 -1.8889  0.1344  0.2593
   56MOL   H18016790   4.624   4.574   6.823 -0.9311 -0.9698 -0.1227
   56MOL   H18116791   4.581   4.734   7.011  0.9338 -0.0334 -0.0976
   56MOL   C18216792   4.607   4.492   7.423 -0.7377 -0.1670 -0.4989
   56MOL   C18316793   4.757   4.453   7.402 -0.7158  0.4066 -0.3594
   56MOL   C18416794   4.839   4.516   7.518 -0.0755 -0.1817 -0.0718
   56MOL   C18516795   4.938   4.606   7.483 -0.8999 -0.1656  0.0962
   56MOL   C18616796   5.002   4.679   7.584  0.9226 -0.3139 -0.1442
   56MOL   C18716797   4.986   4.632   7.713  0.0206  0.3564  0.0192
   56MOL   C18816798   4.895   4.524   7.737  0.4802 -0.0451 -0.4832
   56MOL   N18916799   4.821   4.474   7.641  0.1709  0.4563 -0.2814
   56MOL   H19016800   4.583   4.473   7.527  2.1301 -0.0635  0.2092
   56MOL   H19116801   4.603   4.599   7.404 -0.6665  0.2868  1.9274
   56MOL   H19216802   4.789   4.493   7.306 -0.5918 -1.2221 -1.0066
   56MOL   H19316803   4.946   4.630   7.378  1.1185  0.5424  0.3938
   56MOL   H19416804   5.069   4.759   7.557 -0.3447  0.2271 -1.7283
   56MOL   H19516805   5.045   4.679   7.790  0.8176  0.0278 -0.3935
   56MOL   H19616806   4.889   4.489   7.839  1.0312  0.6648 -0.2042
   56MOL   C19716807   4.797   4.308   7.385  0.2666  0.8387  0.4586
   56MOL   C19816808   4.928   4.282   7.303  0.3059  0.0502 -0.3159
   56MOL   C19916809   5.016   4.194   7.396  0.2270 -0.1627 -0.2514
   56MOL   C20016810   5.127   4.248   7.455  0.0275  0.3193 -0.2301
   56MOL   C20116811   5.197   4.159   7.538 -0.7653 -0.4417 -0.4512
   56MOL   C20216812   5.158   4.029   7.555  0.1971  0.0996  0.2835
   56MOL   C20316813   5.043   3.986   7.491  0.0260  0.8175  1.5779
   56MOL   N20416814   4.976   4.066   7.410  0.5969  0.5210  0.4347
   56MOL   H20516815   4.713   4.251   7.346  0.9322  1.2290 -1.5901
   56MOL   H20616816   4.804   4.269   7.487  1.1218 -0.5608 -0.1300
   56MOL   H20716817   4.979   4.378   7.302  2.3322 -1.0034 -0.6860
   56MOL   H20816818   5.151   4.351   7.435  0.7096  0.2148  0.0343
   56MOL   H20916819   5.284   4.204   7.584  0.1438 -3.0386  0.4482
   56MOL   H21016820   5.203   3.966   7.630 -0.7178  1.2004  1.7806
   56MOL   H21116821   5.012   3.882   7.493 -2.8078  1.5492 -1.3294
   56MOL   C21216822   4.905   4.232   7.159 -0.3036 -0.2315  0.2531
   56MOL   C21316823   5.012   4.246   7.044 -0.2302  0.1686 -0.5209
   56MOL   C21416824   4.997   4.380   6.973 -0.2056 -0.2919 -0.0617
   56MOL   C21516825   4.982   4.382   6.832 -0.3584 -0.3986  0.0505
   56MOL   C21616826   4.970   4.503   6.762 -0.3153 -0.0003 -0.3854
   56MOL   C21716827   4.969   4.616   6.838  0.5049 -0.1187 -0.4000
   56MOL   C21816828   4.997   4.607   6.974 -0.7346 -0.9285 -0.3639
   56MOL   N21916829   5.015   4.494   7.044  0.3995 -0.7180 -0.5712
   56MOL   H22016830   4.821   4.289   7.122 -1.3289 -1.4421  0.6624
   56MOL   H22116831   4.866   4.130   7.163  0.0408 -0.4047 -0.7704
   56MOL   H22216832   4.988   4.172   6.968 -0.4768 -1.7648  1.3896
   56MOL   H22316833   4.978   4.286   6.784  0.9831 -0.6517  0.4422
   56MOL   H22416834   4.971   4.510   6.655 -0.8689  0.8123 -0.3437
   56MOL   H22516835   4.975   4.713   6.790 -0.1160  0.1346  0.0265
   56MOL   H22616836   5.032   4.699   7.018  0.0763  0.2414 -3.3706
   56MOL   C22716837   5.164   4.225   7.075  0.1876 -1.2801 -0.0322
   56MOL   C22816838   5.207   4.080   7.106  0.0217  0.0095 -0.7173
   56MOL   C22916839   5.127   3.971   7.030 -0.8526  1.1798  0.0772
   56MOL   C23016840   5.031   3.894   7.107  0.6412 -0.0843  0.3162
   56MOL   C23116841   4.955   3.794   7.038 -0.0975 -0.1456  0.2728
   56MOL   C23216842   4.973   3.781   6.899 -0.5559 -0.4925  0.2971
   56MOL   C23316843   5.061   3.869   6.828 -0.0633  0.9942 -0.3454
   56MOL   N23416844   5.136   3.960   6.898 -0.4881 -0.0891  0.0709
   56MOL   H23516845   5.191   4.287   7.160 -2.9587  2.1436 -1.4088
   56MOL   H23616846   5.218   4.261   6.987 -0.2954 -0.1633  0.1182
   56MOL   H23716847   5.193   4.060   7.212 -0.3648  1.3381 -0.5066
   56MOL   H23816848   5.031   3.906   7.214  0.1260 -1.0412  0.4346
   56MOL   H23916849   4.882   3.727   7.081  1.9178 -2.1083  0.6933
   56MOL   H24016850   4.912   3.717   6.837 -0.9061  0.4564 -0.3491
   56MOL   H24116851   5.075   3.865   6.721 -1.3279  0.9648 -0.5248
   56MOL   C24216852   5.359   4.055   7.073 -0.1836  0.2623  0.0201
   56MOL   C24316853   5.413   3.914   7.109  0.6286 -0.6387 -1.1870
   56MOL   C24416854   5.525   3.878   7.017 -0.2526  0.6293  0.4724
   56MOL   C24516855   5.499   3.785   6.909  0.1747 -0.0882  0.4176
   56MOL   C24616856   5.602   3.753   6.819  0.4842 -0.6865  0.2136
   56MOL   C24716857   5.726   3.811   6.842  0.3062  0.2836  0.6447
   56MOL   C24816858   5.735   3.907   6.942 -0.1572 -0.3616 -0.2085
   56MOL   N24916859   5.641   3.943   7.028  0.1761 -0.2352 -0.0267
   56MOL   H25016860   5.421   4.129   7.123 -1.2928  1.4543 -0.3302
   56MOL   H25116861   5.372   4.071   6.966  0.1356  1.1789  0.1916
   56MOL   H25216862   5.332   3.842   7.096 -0.6611  0.2537  1.3764
   56MOL   H25316863   5.399   3.748   6.888 -0.3939  1.4022  0.4566
   56MOL   H25416864   5.589   3.675   6.745 -3.8854  0.8840 -0.8125
   56MOL   H25516865   5.809   3.798   6.774 -0.8716 -0.6748 -0.6335
   56MOL   H25616866   5.823   3.967   6.956 -0.2268 -0.1841 -0.5337
   56MOL   C25716867   5.463   3.924   7.258 -0.0469 -0.0465 -0.1915
   56MOL   C25816868   5.508   3.788   7.317 -0.5366  0.1745 -0.1691
   56MOL   C25916869   5.643   3.799   7.382  0.1940 -0.3553  0.3962
   56MOL   C26016870   5.744   3.720   7.329 -0.5588 -0.0797  0.0451
   56MOL   C26116871   5.871   3.744   7.379  0.0436 -0.3245 -1.0754
   56MOL   C26216872   5.890   3.834   7.485  0.3042  0.9523  0.4026
   56MOL   C26316873   5.780   3.903   7.534 -0.0588  0.0095 -0.0864
   56MOL   N26416874   5.657   3.889   7.485  0.2612 -0.2636 -0.6938
   56MOL   H26516875   5.386   3.965   7.322  0.7383 -0.4318  1.0083
   56MOL   H26616876   5.539   4.002   7.257 -0.2567  0.1549 -0.5879
   56MOL   H26716877   5.515   3.712   7.240 -3.2114 -0.8966  0.5833
   56MOL   H26816878   5.732   3.646   7.251  1.6232  2.0128 -2.3684
   56MOL   H26916879   5.955   3.691   7.337  0.2937  0.1891 -1.2223
   56MOL   H27016880   5.982   3.846   7.540  0.3515  1.1262  0.2873
   56MOL   H27116881   5.796   3.961   7.623 -0.9615 -2.6536  1.8782
   56MOL   C27216882   5.406   3.736   7.418 -0.0754  0.0532  0.7127
   56MOL   C27316883   5.271   3.681   7.384 -0.1194  0.5209  0.7018
   56MOL   C27416884   5.273   3.558   7.290  0.6252  0.6434  0.3594
   56MOL   C27516885   5.227   3.561   7.156  0.3185  0.3504 -0.6304
   56MOL   C27616886   5.237   3.444   7.080 -0.0365  0.8268  0.3139
   56MOL   C27716887   5.299   3.327   7.137 -0.5268  0.0368  0.1726
   56MOL   C27816888   5.345   3.339   7.272  0.3706 -0.5103  0.8890
   56MOL   N27916889   5.338   3.453   7.345 -0.1966 -1.2788  0.7153
   56MOL   H28016890   5.395   3.811   7.497 -2.3676 -2.4060  2.8390
   56MOL   H28116891   5.460   3.649   7.456  3.3045  0.5679 -2.6370
   56MOL   H28216892   5.231   3.756   7.315  0.8725 -0.4206 -0.9231
   56MOL   H28316893   5.197   3.657   7.117 -3.8288 -2.3918 -4.8698
   56MOL   H28416894   5.206   3.446   6.976  3.9242  1.4540 -0.9230
   56MOL   H28516895   5.310   3.239   7.075 -0.2659 -0.0452  0.3327
   56MOL   H28616896   5.404   3.262   7.319 -0.4217  0.0068  2.7849
   56MOL   C28716897   5.189   3.655   7.512 -0.0004  0.9589 -0.5393
   56MOL   C28816898   5.048   3.598   7.496 -0.3265  0.3518  0.2998
   56MOL   C28916899   4.979   3.597   7.627  0.8329 -0.1045  0.0153
   56MOL   C29016900   4.970   3.481   7.714  0.3135  0.3705 -0.2243
   56MOL   C29116901   4.921   3.500   7.847 -0.0371  0.5278  0.2158
   56MOL   C29216902   4.870   3.626   7.877 -0.4997 -0.0820 -0.0185
   56MOL   C29316903   4.862   3.726   7.778  0.0190  0.7956 -0.3889
   56MOL   N29416904   4.923   3.718   7.664  0.1162  0.7290  0.2502
   56MOL   H29516905   5.182   3.744   7.576  0.3103 -0.4695  1.5391
   56MOL   H29616906   5.244   3.591   7.581 -0.6300  2.9917  1.9258
   56MOL   H29716907   5.045   3.499   7.452 -0.7214  0.2225  0.6049
   56MOL   H29816908   5.017   3.388   7.684 -0.0537 -0.7188  2.5164
   56MOL   H29916909   4.940   3.424   7.920 -0.4520  0.2635  0.0551
   56MOL   H30016910   4.842   3.652   7.978  1.6965 -1.5480  0.9988
   56MOL   H30116911   4.805   3.816   7.796  0.7770  1.0306  0.8701
   56MOL   H30216912   4.992   3.665   7.430  0.4088 -0.6512 -1.3508
   57MOL     C116913   2.723   7.019   2.627 -0.2024 -0.2413 -0.2001
   57MOL     C216914   2.647   7.142   2.681  0.4945  0.1367 -0.1066
   57MOL     C316915   2.654   7.261   2.590  0.3247  0.3431 -0.5546
   57MOL     C416916   2.734   7.367   2.642 -0.1721 -0.3288  0.6476
   57MOL     C516917   2.760   7.479   2.558 -0.0139 -0.2796 -0.2751
   57MOL     C616918   2.705   7.478   2.426 -0.1186 -0.3137 -0.5856
   57MOL     C716919   2.628   7.369   2.384  0.3240 -0.3601  0.5441
   57MOL     N816920   2.595   7.259   2.466 -0.9254 -0.2315  0.1034
   57MOL     H916921   2.690   7.000   2.524  0.1422  1.8309 -0.7204
   57MOL    H1016922   2.829   7.044   2.620 -0.0922 -1.0288 -1.6317
   57MOL    H1116923   2.697   7.168   2.774 -0.5022  0.4905  0.3331
   57MOL    H1216924   2.789   7.372   2.735  2.0137 -0.9884 -0.5649
   57MOL    H1316925   2.818   7.562   2.596  0.3126 -0.5583 -0.1604
   57MOL    H1416926   2.723   7.561   2.360  0.9022  0.2165  0.3369
   57MOL    H1516927   2.590   7.375   2.283  2.1639  1.1693 -0.0737
   57MOL    H1616928   2.720   6.928   2.686 -0.0079  0.9229  1.6593
   57MOL    C1716929   2.505   7.104   2.720  0.4259  0.0393  0.2294
   57MOL    C1816930   2.422   7.218   2.770 -0.4386 -0.6947 -0.3756
   57MOL    C1916931   2.280   7.167   2.788 -0.2449 -0.6696  0.6840
   57MOL    C2016932   2.172   7.219   2.711 -0.0983  0.0048  0.1498
   57MOL    C2116933   2.044   7.165   2.720 -0.1405  0.7687 -0.2747
   57MOL    C2216934   2.031   7.049   2.798  0.4079 -0.3055  0.4568
   57MOL    C2316935   2.144   7.005   2.875 -0.4319 -0.3396 -0.0606
   57MOL    N2416936   2.262   7.066   2.871 -0.1842  0.1488 -0.6160
   57MOL    H2516937   2.513   7.018   2.787  0.5691 -0.8411 -0.9004
   57MOL    H2616938   2.460   7.077   2.624 -1.5735  1.3435  0.7838
   57MOL    H2716939   2.423   7.306   2.707 -0.0460  0.6065  1.4185
   57MOL    H2816940   2.201   7.304   2.650 -0.5973  0.1456  0.1076
   57MOL    H2916941   1.961   7.206   2.663 -0.4984  1.1719  0.5192
   57MOL    H3016942   1.938   6.995   2.796 -0.1038  0.5831 -0.3119
   57MOL    H3116943   2.140   6.915   2.935  0.9576 -1.4519 -1.5937
   57MOL    C3216944   2.481   7.271   2.904 -0.2199  0.0010  0.0805
   57MOL    C3316945   2.388   7.353   2.986 -0.0065  0.2096  0.5093
   57MOL    C3416946   2.454   7.395   3.121 -1.3013  0.3359  0.3205
   57MOL    C3516947   2.377   7.396   3.237  0.0914  1.0179 -0.1222
   57MOL    C3616948   2.433   7.449   3.357  0.0952 -0.2669 -0.1383
   57MOL    C3716949   2.567   7.490   3.360  0.3701  0.6747  0.3636
   57MOL    C3816950   2.641   7.469   3.238  0.4233 -0.8669 -0.0675
   57MOL    N3916951   2.585   7.428   3.122 -0.2567  0.1108  0.1094
   57MOL    H4016952   2.576   7.323   2.887 -0.4474 -0.2853 -2.1068
   57MOL    H4116953   2.524   7.193   2.967  1.3709 -1.7810 -3.0891
   57MOL    H4216954   2.299   7.301   3.020  1.4668 -1.4403  1.9657
   57MOL    H4316955   2.271   7.374   3.237  0.3016  0.0002  0.7973
   57MOL    H4416956   2.374   7.469   3.445  1.2284  3.7476 -0.1830
   57MOL    H4516957   2.614   7.541   3.442  2.2730 -0.9158  0.2896
   57MOL    H4616958   2.746   7.492   3.232  0.3674 -0.8202 -1.0399
   57MOL    C4716959   2.346   7.490   2.925 -0.0937  0.8457  0.5860
   57MOL    C4816960   2.193   7.512   2.893 -0.2166  0.2882 -0.0718
   57MOL    C4916961   2.104   7.484   3.015 -0.1548  0.2741  0.5201
   57MOL    C5016962   2.008   7.380   3.016  0.0205  0.6095  0.0306
   57MOL    C5116963   1.916   7.383   3.119  0.6641  0.0497 -0.2102
   57MOL    C5216964   1.922   7.480   3.224 -0.0658 -0.0335 -0.1194
   57MOL    C5316965   2.026   7.571   3.214  0.1018  0.4213 -0.5355
   57MOL    N5416966   2.121   7.569   3.118  0.3245  0.0935  0.1632
   57MOL    H5516967   2.401   7.491   2.831  3.3574 -0.3726  2.4645
   57MOL    H5616968   2.381   7.577   2.982 -1.6278  1.1274  1.1057
   57MOL    H5716969   2.166   7.448   2.809 -0.9026 -1.5581  1.5197
   57MOL    H5816970   1.989   7.311   2.935 -0.5022 -0.6984  1.2321
   57MOL    H5916971   1.837   7.309   3.114  0.3879  0.3589 -0.5025
   57MOL    H6016972   1.856   7.479   3.309  0.5389 -2.4173  0.3658
   57MOL    H6116973   2.055   7.627   3.301 -4.3335  0.0586  1.2769
   57MOL    C6216974   2.155   7.647   2.832 -0.0759 -0.0253  0.3037
   57MOL    C6316975   2.234   7.676   2.704 -0.5721 -0.3621  0.5414
   57MOL    C6416976   2.195   7.593   2.582 -0.5268  0.6946 -0.0652
   57MOL    C6516977   2.291   7.514   2.516 -0.1253 -0.8135 -0.1043
   57MOL    C6616978   2.252   7.454   2.393 -0.2352  0.1510 -0.3839
   57MOL    C6716979   2.117   7.465   2.352 -0.6002 -0.6936 -0.1917
   57MOL    C6816980   2.032   7.544   2.434  0.2484  0.1484 -0.3033
   57MOL    N6916981   2.066   7.613   2.549 -0.1236  0.2877  0.5440
   57MOL    H7016982   2.186   7.719   2.908  1.1877 -0.6510  0.4040
   57MOL    H7116983   2.049   7.643   2.810 -0.4074 -1.3459  2.0318
   57MOL    H7216984   2.340   7.657   2.721 -1.1149 -3.0033  1.1213
   57MOL    H7316985   2.393   7.520   2.551 -0.0303 -0.1805 -0.4923
   57MOL    H7416986   2.323   7.390   2.343  0.2556  1.2470 -1.1053
   57MOL    H7516987   2.078   7.409   2.268 -1.8352  1.0376 -0.7844
   57MOL    H7616988   1.929   7.548   2.402  0.0487 -2.2305 -0.0626
   57MOL    C7716989   2.239   7.828   2.690  0.3248  0.1686  0.6245
   57MOL    C7816990   2.325   7.917   2.794  0.5791  0.8355  0.0104
   57MOL    C7916991   2.463   7.864   2.816  0.5453  0.9626 -0.1191
   57MOL    C8016992   2.500   7.809   2.937  0.9420  0.2905 -1.0796
   57MOL    C8116993   2.628   7.752   2.957  0.2154  0.4170  0.0658
   57MOL    C8216994   2.712   7.756   2.842 -0.4354 -0.9228 -0.1773
   57MOL    C8316995   2.662   7.810   2.717 -0.1912 -0.6099  0.5155
   57MOL    N8416996   2.539   7.861   2.711  0.3259  0.0761  0.2393
   57MOL    H8516997   2.145   7.882   2.688  1.0460  1.4168 -1.5114
   57MOL    H8616998   2.273   7.853   2.589  0.9763 -2.8836  0.0377
   57MOL    H8716999   2.276   7.904   2.890  0.4920  0.3112 -0.1023
   57MOL    H8817000   2.430   7.821   3.018  0.6660  1.3123 -1.4539
   57MOL    H8917001   2.663   7.703   3.046  0.0994 -0.5913 -0.4359
   57MOL    H9017002   2.815   7.721   2.845 -0.2594 -0.3501  0.6258
   57MOL    H9117003   2.720   7.805   2.626 -2.8732 -3.2743 -1.1543
   57MOL    C9217004   2.338   8.066   2.753 -0.3751  0.2947 -0.2359
   57MOL    C9317005   2.445   8.145   2.832 -0.0827  0.1221 -0.5294
   57MOL    C9417006   2.495   0.100   2.738 -0.5533  0.3157  0.3316
   57MOL    C9517007   2.625   0.097   2.684  0.0572  0.1691  0.6603
   57MOL    C9617008   2.678   0.189   2.591  0.2143 -0.0933  0.1636
   57MOL    C9717009   2.596   0.293   2.555 -0.2560  0.5198  0.1894
   57MOL    C9817010   2.474   0.308   2.620 -0.2672  0.2378 -0.1970
   57MOL    N9917011   2.418   0.209   2.704  0.2795  0.9100  0.0473
   57MOL   H10017012   2.248   8.127   2.762  1.5119  3.2656 -0.5909
   57MOL   H10117013   2.341   8.069   2.644 -1.2002 -1.7790 -0.3504
   57MOL   H10217014   2.531   8.082   2.857 -1.3657 -1.0461  1.0979
   57MOL   H10317015   2.690   0.025   2.731 -1.0510 -0.9850  0.4717
   57MOL   H10417016   2.781   0.180   2.562 -0.0808 -0.9075 -0.6577
   57MOL   H10517017   2.630   0.378   2.497  4.2253 -1.4313 -0.1878
   57MOL   H10617018   2.415   0.397   2.606  0.1968  0.8768  1.6922
   57MOL   C10717019   2.396   0.052   2.967  0.2776  0.5399 -0.6640
   57MOL   C10817020   2.505   0.072   3.080  0.3153  0.1946  0.3151
   57MOL   C10917021   2.630   0.145   3.031  0.0742 -0.0617 -0.0827
   57MOL   C11017022   2.751   0.078   3.010 -0.5890 -0.1827 -0.8468
   57MOL   C11117023   2.866   0.148   2.983  0.1720 -0.9625 -0.1598
   57MOL   C11217024   2.853   0.290   2.965 -0.3923  0.5279 -0.6412
   57MOL   C11317025   2.719   0.346   2.968  0.2455  0.0715  0.5348
   57MOL   N11417026   2.614   0.277   3.020 -0.6730 -0.0197 -0.3371
   57MOL   H11517027   2.317   8.144   3.011 -0.3522  1.8284 -0.0183
   57MOL   H11617028   2.345   0.146   2.947  1.8934  1.3873 -0.8947
   57MOL   H11717029   2.528   8.122   3.111 -0.6087 -0.5892 -1.4898
   57MOL   H11817030   2.763   8.123   3.017  0.2270  0.0480  2.1210
   57MOL   H11917031   2.958   0.093   2.968 -0.8265 -2.5541 -0.6157
   57MOL   H12017032   2.936   0.355   2.944  1.5941 -1.5156  0.7173
   57MOL   H12117033   2.688   0.449   2.961 -1.2066 -0.5309 -2.5075
   57MOL   C12217034   2.439   0.146   3.208 -0.2320 -0.0133 -0.0526
   57MOL   C12317035   2.328   0.066   3.284  0.1055  0.0538 -0.3597
   57MOL   C12417036   2.371   8.092   3.356 -0.1614  1.0673 -0.2125
   57MOL   C12517037   2.425   8.092   3.490  0.0445 -0.3604  0.4038
   57MOL   C12617038   2.443   7.967   3.557 -0.9106  0.0621  0.2010
   57MOL   C12717039   2.427   7.852   3.485 -0.2389  0.0208  0.2502
   57MOL   C12817040   2.374   7.858   3.355 -0.8030  0.2153 -0.0781
   57MOL   N12917041   2.345   7.972   3.298  0.1429  0.2683 -0.2998
   57MOL   H13017042   2.399   0.244   3.181 -0.6829 -0.4777 -1.0518
   57MOL   H13117043   2.519   0.151   3.282  0.4937 -0.5922 -0.8038
   57MOL   H13217044   2.260   0.023   3.210 -1.9206  2.0282  0.3040
   57MOL   H13317045   2.441   0.034   3.540  2.0474 -1.5848  2.1333
   57MOL   H13417046   2.469   7.954   3.661 -2.0552  0.6989  0.5897
   57MOL   H13517047   2.459   7.763   3.536  0.6017 -0.3525 -0.9127
   57MOL   H13617048   2.366   7.767   3.297 -0.5399 -1.6742  2.7257
   57MOL   C13717049   2.224   0.145   3.365  0.2021 -0.4077  0.8487
   57MOL   C13817050   2.104   0.060   3.412 -0.4032 -0.5236  0.5970
   57MOL   C13917051   2.003   0.150   3.476 -0.4614  0.5895  0.0380
   57MOL   C14017052   1.972   0.137   3.610 -0.4093 -0.2695  0.5203
   57MOL   C14117053   1.871   0.213   3.662  0.4806 -0.0591 -0.0173
   57MOL   C14217054   1.807   0.306   3.580 -0.5129 -0.6205 -0.2904
   57MOL   C14317055   1.851   0.321   3.450  0.2207  0.2455  0.4791
   57MOL   N14417056   1.952   0.246   3.398  0.1602 -0.4618 -0.1284
   57MOL   H14517057   2.184   0.227   3.305  0.7581  0.2793  1.4072
   57MOL   H14617058   2.288   0.177   3.447  1.1992  1.0295 -0.4685
   57MOL   H14717059   2.156   0.004   3.489  1.3739 -3.2152 -2.4431
   57MOL   H14817060   2.021   0.060   3.668  0.1348 -1.1905 -1.1163
   57MOL   H14917061   1.835   0.208   3.764 -1.3437  2.7478 -0.4655
   57MOL   H15017062   1.729   0.377   3.605 -1.5480 -1.5430 -0.8260
   57MOL   H15117063   1.821   0.413   3.403  0.3523  0.5570  1.0063
   57MOL   C15217064   2.040   8.109   3.315 -0.5393  0.6665  0.3077
   57MOL   C15317065   1.964   7.989   3.382  0.3259  0.4386 -0.7041
   57MOL   C15417066   1.863   7.929   3.288  0.1426  0.0279  0.2053
   57MOL   C15517067   1.726   7.919   3.322  0.5021 -0.4110 -0.6236
   57MOL   C15617068   1.625   7.879   3.234  0.3892 -0.5717  0.1782
   57MOL   C15717069   1.671   7.850   3.108 -0.5685 -0.6297  0.0500
   57MOL   C15817070   1.812   7.855   3.072  0.5694 -0.2673 -0.4721
   57MOL   N15917071   1.901   7.902   3.160 -0.0727  0.2882 -0.1289
   57MOL   H16017072   2.115   8.066   3.249  1.7156  2.3645  1.6488
   57MOL   H16117073   1.964   0.014   3.261 -1.0607 -0.5918 -0.3014
   57MOL   H16217074   1.911   8.046   3.458 -1.3161 -2.0247  0.0730
   57MOL   H16317075   1.697   7.940   3.424 -1.8993  1.5835 -1.6376
   57MOL   H16417076   1.523   7.870   3.266  0.0256 -0.4262 -0.9175
   57MOL   H16517077   1.603   7.830   3.026 -1.6518 -0.6458  0.9464
   57MOL   H16617078   1.848   7.832   2.973  1.9343  0.4238 -0.1531
   57MOL   C16717079   2.042   7.897   3.471  0.2122 -0.6222 -0.9850
   57MOL   C16817080   1.992   7.868   3.613 -0.3413 -0.2701 -0.2748
   57MOL   C16917081   1.866   7.782   3.621  0.6965  0.7242 -0.3598
   57MOL   C17017082   1.758   7.842   3.684  0.1618  0.5672 -0.0843
   57MOL   C17117083   1.640   7.764   3.706  0.4897 -0.0438  0.4476
   57MOL   C17217084   1.647   7.626   3.671  0.6105  0.2597 -0.9942
   57MOL   C17317085   1.760   7.583   3.602 -0.4444 -0.2610 -0.3181
   57MOL   N17417086   1.876   7.654   3.580  0.1838 -0.2952 -0.0484
   57MOL   H17517087   2.148   7.924   3.471  0.2506 -0.7516  0.1282
   57MOL   H17617088   2.064   7.800   3.427 -0.4377 -1.7256  1.0773
   57MOL   H17717089   1.966   7.962   3.662  0.4121  0.4191 -1.1850
   57MOL   H17817090   1.762   7.946   3.713  1.3128  0.6122 -0.3947
   57MOL   H17917091   1.548   7.797   3.752  0.8502  0.7774  0.5839
   57MOL   H18017092   1.568   7.554   3.687  0.7892  0.2600 -0.1048
   57MOL   H18117093   1.762   7.480   3.570  0.8910 -0.5323  0.5965
   57MOL   C18217094   2.117   7.816   3.692  0.1032  0.3532 -0.5748
   57MOL   C18317095   2.093   7.752   3.839  0.3251  0.1747  0.2471
   57MOL   C18417096   2.132   7.603   3.842  0.1180 -0.0888  0.4700
   57MOL   C18517097   2.038   7.508   3.840 -1.0446  0.6758  0.0063
   57MOL   C18617098   2.074   7.371   3.848 -0.2693  0.0750 -0.1698
   57MOL   C18717099   2.215   7.334   3.853  0.5212  0.8111 -0.7233
   57MOL   C18817100   2.298   7.440   3.848 -0.0310  0.1847 -0.2618
   57MOL   N18917101   2.261   7.570   3.839 -0.1540  0.8311  0.9443
   57MOL   H19017102   2.193   7.891   3.709  0.9374 -0.5987 -0.0198
   57MOL   H19117103   2.169   7.741   3.632 -0.1369  0.9969 -1.5970
   57MOL   H19217104   1.985   7.752   3.853 -0.0190  0.8066 -2.0797
   57MOL   H19317105   1.936   7.544   3.845 -1.6057 -0.8910  0.1606
   57MOL   H19417106   1.992   7.300   3.853 -2.7209  2.8935  1.8519
   57MOL   H19517107   2.256   7.234   3.850 -1.5195 -0.0776 -0.2249
   57MOL   H19617108   2.404   7.430   3.867  0.0671 -0.5315 -1.1690
   57MOL   C19717109   2.161   7.828   3.958  0.3268 -0.0858  0.3865
   57MOL   C19817110   2.124   7.987   3.986  0.0686  0.2744 -0.2165
   57MOL   C19917111   1.974   8.002   4.021 -0.2679  0.3349 -0.3123
   57MOL   C20017112   1.890   8.081   3.942  0.0294  0.3781 -0.2860
   57MOL   C20117113   1.752   8.095   3.972 -0.2567  0.1763 -0.0370
   57MOL   C20217114   1.710   8.023   4.090  0.0129  0.0274  0.1505
   57MOL   C20317115   1.800   7.937   4.158  0.2073 -0.1033 -0.1496
   57MOL   N20417116   1.923   7.925   4.117  0.4383  0.3601  0.3031
   57MOL   H20517117   2.269   7.814   3.946  0.0965 -0.9828 -0.7291
   57MOL   H20617118   2.137   7.768   4.046  1.2445 -1.9384 -0.5967
   57MOL   H20717119   2.139   8.044   3.894 -2.1478  0.0855 -0.7209
   57MOL   H20817120   1.934   8.133   3.858  0.5033 -0.3551 -0.4959
   57MOL   H20917121   1.692   0.016   3.919 -1.1308 -0.4210  0.1243
   57MOL   H21017122   1.610   8.035   4.131  0.3583 -0.6788  1.2216
   57MOL   H21117123   1.771   7.877   4.243  1.5377 -0.2016  0.2450
   57MOL   C21217124   2.210   8.040   4.101 -0.3845  0.4358  0.2441
   57MOL   C21317125   2.342   8.103   4.054  0.7678 -0.9311  0.5935
   57MOL   C21417126   2.325   0.090   3.989  1.2338  0.5579 -0.3355
   57MOL   C21517127   2.344   0.110   3.855 -0.5016 -0.2043 -0.3497
   57MOL   C21617128   2.293   0.225   3.801 -0.4956  0.7003  0.0997
   57MOL   C21717129   2.222   0.322   3.876 -0.2346  0.2156  1.1459
   57MOL   C21817130   2.212   0.295   4.010 -0.2604  0.0792 -0.0127
   57MOL   N21917131   2.251   0.180   4.063 -0.0232  0.1128 -0.9895
   57MOL   H22017132   2.234   7.958   4.169  0.4758  0.7344  0.3062
   57MOL   H22117133   2.159   8.111   4.167 -2.2965 -1.6337  1.0619
   57MOL   H22217134   2.380   8.038   3.974 -1.1064  0.0550 -1.1387
   57MOL   H22317135   2.380   0.033   3.789  3.1038  1.0196  0.0391
   57MOL   H22417136   2.303   0.227   3.694 -0.7160  1.1978  0.0887
   57MOL   H22517137   2.188   0.413   3.829 -0.5869 -0.7822 -0.5895
   57MOL   H22617138   2.159   0.362   4.075 -0.0738 -1.3949  1.7185
   57MOL   C22717139   2.444   8.104   4.167  0.5917  0.4593 -0.3016
   57MOL   C22817140   2.512   7.971   4.190  0.1132  0.2823  0.1237
   57MOL   C22917141   2.611   7.930   4.080  0.2225 -0.4276  0.0760
   57MOL   C23017142   2.590   7.818   3.990  0.5477  0.0020 -0.1206
   57MOL   C23117143   2.685   7.791   3.896 -0.0372  0.2545 -0.3171
   57MOL   C23217144   2.793   7.870   3.885 -0.6858 -0.4916  0.1228
   57MOL   C23317145   2.811   7.985   3.971  0.3340 -0.3861  0.5179
   57MOL   N23417146   2.714   8.017   4.058 -0.4120  0.0587 -0.0103
   57MOL   H23517147   2.407   8.149   4.259 -0.1104  0.8389 -0.7619
   57MOL   H23617148   2.515   0.028   4.134  0.4138 -0.1992 -2.2595
   57MOL   H23717149   2.440   7.889   4.188 -0.1744  0.4302  2.7134
   57MOL   H23817150   2.502   7.759   4.010  0.0456 -0.2129 -2.7816
   57MOL   H23917151   2.678   7.695   3.846 -0.6155 -0.6603  1.4810
   57MOL   H24017152   2.854   7.844   3.800 -0.2372 -0.6791  0.5014
   57MOL   H24117153   2.899   8.046   3.981  0.1293  0.2117 -1.1211
   57MOL   C24217154   2.574   7.959   4.335  0.1688 -0.0257 -0.4958
   57MOL   C24317155   2.491   7.965   4.464  0.4683  0.3064  0.0885
   57MOL   C24417156   2.347   7.918   4.448 -0.7338 -0.5221  0.0434
   57MOL   C24517157   2.243   8.011   4.455  0.3717 -0.2799 -0.0163
   57MOL   C24617158   2.116   7.961   4.427  0.1873  0.4270 -0.1373
   57MOL   C24717159   2.100   7.827   4.383 -0.6077 -0.9022  0.3492
   57MOL   C24817160   2.212   7.751   4.365  0.1332 -0.2277 -0.0894
   57MOL   N24917161   2.335   7.789   4.400 -0.0440  0.6391  0.7263
   57MOL   H25017162   2.662   8.023   4.335  0.0070  0.2613 -3.5015
   57MOL   H25117163   2.610   7.856   4.341  1.1478  0.3035 -0.6508
   57MOL   H25217164   2.485   8.071   4.487 -0.9107  0.0437  1.0555
   57MOL   H25317165   2.254   8.115   4.482  0.1076 -0.5722  1.2441
   57MOL   H25417166   2.025   8.017   4.438  0.8070  1.4264 -0.0734
   57MOL   H25517167   2.001   7.784   4.373 -1.3920  0.6387  1.2139
   57MOL   H25617168   2.202   7.646   4.342 -0.2128 -0.2743  0.2639
   57MOL   C25717169   2.563   7.886   4.579  0.3774  0.1917  0.3472
   57MOL   C25817170   2.565   7.943   4.721 -0.1665  0.6139 -0.0962
   57MOL   C25917171   2.425   7.950   4.781 -1.3176  0.2898 -0.3280
   57MOL   C26017172   2.375   8.072   4.820 -0.0871 -0.5137 -0.0425
   57MOL   C26117173   2.246   8.075   4.870 -0.5709  1.0787 -0.2208
   57MOL   C26217174   2.172   7.958   4.880 -0.0866  0.4973 -0.7418
   57MOL   C26317175   2.236   7.836   4.839  0.5429  0.0131 -0.5126
   57MOL   N26417176   2.361   7.833   4.800  0.7118 -0.9038  0.2268
   57MOL   H26517177   2.665   7.871   4.545  0.6962  1.7545  0.6084
   57MOL   H26617178   2.522   7.786   4.596  0.8698  0.0598  0.7584
   57MOL   H26717179   2.590   8.048   4.708  0.3214  0.6201  0.8226
   57MOL   H26817180   2.435   0.010   4.811 -1.3673  0.3751  0.1642
   57MOL   H26917181   2.199   0.016   4.898 -2.5153  0.0948 -0.1424
   57MOL   H27017182   2.070   7.949   4.912 -0.0152 -0.0247 -0.6682
   57MOL   H27117183   2.174   7.748   4.847 -0.7698  1.0961  2.0643
   57MOL   C27217184   2.663   7.861   4.808  0.1036  0.6385 -0.1423
   57MOL   C27317185   2.811   7.915   4.804 -0.1316 -0.6248  0.1833
   57MOL   C27417186   2.806   8.060   4.859  0.0851 -0.6692 -0.1600
   57MOL   C27517187   2.841   0.020   4.777  0.3286 -0.1790 -0.2377
   57MOL   C27617188   2.856   0.144   4.832 -0.1878  0.2999 -0.1673
   57MOL   C27717189   2.808   0.161   4.963 -0.0785  0.1987  0.1976
   57MOL   C27817190   2.780   0.043   5.045  0.6452 -0.8493  0.2397
   57MOL   N27917191   2.778   8.075   4.991 -0.5540  0.2470  0.0401
   57MOL   H28017192   2.657   7.757   4.775  1.0523  0.4309  0.3350
   57MOL   H28117193   2.615   7.848   4.905 -2.2156  3.1868 -0.8666
   57MOL   H28217194   2.839   7.925   4.699  0.1379 -0.0365  0.3111
   57MOL   H28317195   2.858   0.022   4.671 -1.2888 -3.3973 -0.6172
   57MOL   H28417196   2.891   0.225   4.770  1.1734  0.0715  0.2841
   57MOL   H28517197   2.822   0.255   5.015  0.6913 -0.4301  1.1312
   57MOL   H28617198   2.751   0.056   5.148 -0.5531  0.3983 -0.2389
   57MOL   C28717199   2.909   7.829   4.877 -0.6314 -0.0303 -0.2930
   57MOL   C28817200   3.054   7.872   4.846  0.1049  0.2449  0.1357
   57MOL   C28917201   3.163   7.766   4.849 -0.1497 -0.1106 -0.0437
   57MOL   C29017202   3.218   7.722   4.973 -0.1105 -0.3884  0.1199
   57MOL   C29117203   3.317   7.625   4.981 -0.5936 -0.1627  0.5480
   57MOL   C29217204   3.370   7.582   4.855  0.1016 -0.7259 -0.2544
   57MOL   C29317205   3.306   7.635   4.741 -0.5965 -0.6328  0.0254
   57MOL   N29417206   3.204   7.721   4.733 -0.7100  0.1377 -0.2786
   57MOL   H29517207   2.907   7.730   4.832  1.2460 -1.2790  2.2705
   57MOL   H29617208   2.888   7.818   4.983  0.1493  0.1129 -0.1223
   57MOL   H29717209   3.082   7.957   4.908  1.5631  1.0971 -1.6124
   57MOL   H29817210   3.175   7.761   5.064  0.1949 -1.5301  0.7593
   57MOL   H29917211   3.363   7.604   5.077 -1.4624 -0.2336  0.9603
   57MOL   H30017212   3.455   7.516   4.847  1.2698  0.9143 -1.7350
   57MOL   H30117213   3.354   7.616   4.646 -1.0186 -2.5998  0.1947
   57MOL   H30217214   3.067   7.920   4.749  0.7074 -0.3906 -0.1046
   58MOL     C117215   1.229   6.006   4.851 -0.3548  0.2717  0.4912
   58MOL     C217216   1.115   5.959   4.933 -0.2493 -0.6708 -0.4449
   58MOL     C317217   1.103   5.809   4.935 -0.2305 -0.0871 -0.2791
   58MOL     C417218   0.975   5.748   4.944  0.6337 -0.1400 -0.0100
   58MOL     C517219   0.971   5.609   4.952 -0.8333 -0.0964 -0.2382
   58MOL     C617220   1.097   5.542   4.956 -0.5456 -0.2977 -0.0520
   58MOL     C717221   1.217   5.611   4.969 -0.0265  0.6488  0.0958
   58MOL     N817222   1.219   5.743   4.963  0.1115 -0.0300  0.2284
   58MOL     H917223   1.229   5.955   4.755  1.8034  0.2483  0.4860
   58MOL    H1017224   1.225   6.115   4.847  0.6954  0.2728 -0.6237
   58MOL    H1117225   1.031   6.004   4.880  1.7124  1.7910 -1.5564
   58MOL    H1217226   0.885   5.809   4.945  1.2394  0.8355 -1.9142
   58MOL    H1317227   0.877   5.556   4.961 -1.1059  0.8299  2.7575
   58MOL    H1417228   1.089   5.435   4.948  1.1201 -0.4349 -0.0201
   58MOL    H1517229   1.311   5.557   4.971  1.2108  2.7466 -0.3080
   58MOL    H1617230   1.322   5.975   4.898  0.3919  0.0170 -1.0990
   58MOL    C1717231   1.118   6.010   5.077  0.1241  0.2788 -0.0531
   58MOL    C1817232   1.131   6.168   5.099  0.3747  0.6817  0.3196
   58MOL    C1917233   1.036   6.245   5.016  0.0383 -0.1799 -0.2527
   58MOL    C2017234   1.067   6.369   4.955 -0.3079 -0.5123 -0.6407
   58MOL    C2117235   0.962   6.444   4.899 -0.1569  0.1692  0.7358
   58MOL    C2217236   0.830   6.393   4.921 -0.1452 -0.3883  0.2424
   58MOL    C2317237   0.808   6.268   4.976 -0.5535  0.1418 -0.0192
   58MOL    N2417238   0.907   6.189   5.017 -0.5054  0.2408  0.2027
   58MOL    H2517239   1.184   5.946   5.136 -0.8430 -0.5451  0.1431
   58MOL    H2617240   1.018   5.976   5.104  0.3956 -3.5669 -3.2805
   58MOL    H2717241   1.235   6.190   5.075  0.6056  1.3158  1.8066
   58MOL    H2817242   1.169   6.404   4.947 -0.6298  0.3429 -1.1151
   58MOL    H2917243   0.975   6.543   4.858 -0.6155  0.8944  2.3165
   58MOL    H3017244   0.747   6.449   4.882 -1.0135 -1.4390  0.5822
   58MOL    H3117245   0.710   6.223   4.975 -0.3761 -0.2395 -0.1225
   58MOL    C3217246   1.110   6.205   5.243 -0.1290  0.2427  0.2032
   58MOL    C3317247   1.225   6.155   5.339 -0.5478 -0.7641  0.1810
   58MOL    C3417248   1.356   6.232   5.328  0.1174  0.1206  0.1543
   58MOL    C3517249   1.471   6.156   5.310  0.0997  0.1387 -0.0086
   58MOL    C3617250   1.592   6.220   5.291  0.2396 -0.2525  0.7282
   58MOL    C3717251   1.597   6.356   5.288 -0.7198  0.2834  0.5750
   58MOL    C3817252   1.477   6.427   5.305  0.0912  0.0464 -0.2187
   58MOL    N3917253   1.355   6.370   5.324 -0.3161 -0.4004 -0.1377
   58MOL    H4017254   1.023   6.146   5.273  1.2174 -1.9061 -0.0235
   58MOL    H4117255   1.108   6.313   5.255 -3.0279  0.2675 -0.1224
   58MOL    H4217256   1.259   6.057   5.306  1.0613 -0.2734  0.3814
   58MOL    H4317257   1.462   6.049   5.318 -0.5196  0.2374  0.6590
   58MOL    H4417258   1.677   6.156   5.275  0.0631 -0.2731 -0.1517
   58MOL    H4517259   1.689   6.411   5.279  0.5062 -1.4954  1.9097
   58MOL    H4617260   1.476   6.533   5.327 -1.1342 -0.1229  0.6179
   58MOL    C4717261   1.181   6.137   5.487 -0.0480 -0.0456 -0.2204
   58MOL    C4817262   1.079   6.027   5.507  0.2344  0.4353 -0.6041
   58MOL    C4917263   1.136   5.887   5.472  0.4528 -0.0504 -0.3237
   58MOL    C5017264   1.071   5.793   5.382 -0.5778 -0.6134 -0.3297
   58MOL    C5117265   1.130   5.666   5.363 -0.2313  0.7988  0.3392
   58MOL    C5217266   1.242   5.632   5.430 -0.1400  0.1174 -0.3768
   58MOL    C5317267   1.299   5.726   5.514 -0.2296 -0.2305 -0.8205
   58MOL    N5417268   1.246   5.848   5.539  0.4641 -0.0003 -0.1686
   58MOL    H5517269   1.147   6.236   5.518  1.8668  0.1831  1.2574
   58MOL    H5617270   1.271   6.115   5.545 -1.2788  1.5492  2.3703
   58MOL    H5717271   0.994   6.047   5.441 -0.3334  0.0358 -0.0087
   58MOL    H5817272   0.977   5.815   5.334 -0.1656  0.2846 -0.7381
   58MOL    H5917273   1.091   5.586   5.302 -0.0418  0.3562  0.7954
   58MOL    H6017274   1.278   5.530   5.443 -1.5694 -0.1803  1.4269
   58MOL    H6117275   1.377   5.685   5.577 -0.5356 -1.5919 -1.3043
   58MOL    C6217276   1.017   6.023   5.642 -0.3232  0.3636 -0.1459
   58MOL    C6317277   0.905   5.921   5.665  0.4710 -0.8595 -0.6089
   58MOL    C6417278   0.901   5.911   5.818  0.2914 -0.5374  0.5241
   58MOL    C6517279   0.955   5.801   5.883 -0.2500  0.3514 -0.1814
   58MOL    C6617280   0.971   5.798   6.022 -0.1753 -0.0240  0.5876
   58MOL    C6717281   0.935   5.914   6.098  0.0821 -0.3791 -0.3910
   58MOL    C6817282   0.880   6.026   6.022  0.3556  0.4247 -0.4156
   58MOL    N6917283   0.865   6.022   5.886 -0.2105 -0.2738  0.0913
   58MOL    H7017284   0.968   6.119   5.658 -1.8287 -0.4843  0.3555
   58MOL    H7117285   1.102   6.018   5.711 -1.1337  3.3973  1.1473
   58MOL    H7217286   0.933   5.822   5.630 -0.9009 -0.2885 -3.4264
   58MOL    H7317287   0.979   5.705   5.838  0.2921 -0.5250  1.8947
   58MOL    H7417288   0.992   5.705   6.073  0.2094 -0.5165 -0.4649
   58MOL    H7517289   0.944   5.924   6.205 -0.9569  2.4444 -0.5197
   58MOL    H7617290   0.836   6.107   6.078  3.2378  0.9928  1.1151
   58MOL    C7717291   0.761   5.972   5.619 -0.1831  0.9422 -0.3423
   58MOL    C7817292   0.648   5.856   5.605 -0.0685  1.2151 -0.0923
   58MOL    C7917293   0.644   5.810   5.462  0.4469  0.6279 -0.3079
   58MOL    C8017294   0.730   5.714   5.412  0.0256 -0.8697 -0.3905
   58MOL    C8117295   0.734   5.683   5.277  0.6059  0.3840  0.3269
   58MOL    C8217296   0.652   5.752   5.193 -0.2460 -0.0221  0.0356
   58MOL    C8317297   0.560   5.846   5.247  0.0166  0.7883  0.0096
   58MOL    N8417298   0.560   5.878   5.377 -0.3840 -0.4331 -0.3753
   58MOL    H8517299   0.765   6.030   5.527 -2.7809  0.0567 -1.0400
   58MOL    H8617300   0.717   6.048   5.684  1.3987  2.3871 -0.9150
   58MOL    H8717301   0.552   5.908   5.615  0.0517  1.2204  1.0348
   58MOL    H8817302   0.793   5.658   5.479  0.6254  0.0869 -0.1461
   58MOL    H8917303   0.799   5.605   5.240  0.4117  0.8417 -0.9798
   58MOL    H9017304   0.654   5.725   5.088  1.3938  1.5501 -0.3553
   58MOL    H9117305   0.485   5.895   5.188  0.2202  1.9756  0.7292
   58MOL    C9217306   0.640   5.753   5.718 -0.3981  0.3244 -0.5580
   58MOL    C9317307   0.504   5.669   5.739 -0.5013  0.6258  0.2387
   58MOL    C9417308   0.471   5.601   5.609  0.5864  0.8374 -0.2408
   58MOL    C9517309   0.353   5.636   5.536 -0.1126 -0.2208  0.0589
   58MOL    C9617310   0.321   5.562   5.418  0.3000 -0.6597  0.6345
   58MOL    C9717311   0.399   5.448   5.388  0.2862 -0.0564 -0.8881
   58MOL    C9817312   0.510   5.415   5.471  0.2098  0.1758 -0.4222
   58MOL    N9917313   0.545   5.488   5.580 -0.4859  0.1263 -0.2157
   58MOL   H10017314   0.664   5.806   5.810  0.7036 -1.7051  0.3581
   58MOL   H10117315   0.724   5.683   5.709  0.4004  1.2887 -0.7513
   58MOL   H10217316   0.428   5.745   5.759  0.1653  1.2151  0.5279
   58MOL   H10317317   0.303   5.729   5.556  1.0124  0.6624 -1.1979
   58MOL   H10417318   0.244   5.598   5.351  0.9660 -1.0226 -0.3428
   58MOL   H10517319   0.387   5.400   5.292  4.0662  1.0373 -1.9682
   58MOL   H10617320   0.564   5.326   5.444 -0.7903 -0.7045  0.4363
   58MOL   C10717321   0.515   5.572   5.852 -0.1480 -0.5240 -0.2386
   58MOL   C10817322   0.536   5.619   5.997 -0.0321 -0.3344  0.1814
   58MOL   C10917323   0.477   5.753   6.026  0.2512  0.0380  0.5429
   58MOL   C11017324   0.563   5.862   6.047 -0.1549  0.0793 -0.1866
   58MOL   C11117325   0.506   5.987   6.074  0.5594 -0.2320  0.1142
   58MOL   C11217326   0.365   5.998   6.076  0.2943  0.0578 -0.4190
   58MOL   C11317327   0.287   5.884   6.058 -0.3729 -0.9604 -0.3977
   58MOL   N11417328   0.344   5.764   6.034  0.1659 -0.7907 -0.3471
   58MOL   H11517329   0.585   5.490   5.834  1.4241 -0.1421  3.6193
   58MOL   H11617330   0.410   5.544   5.853 -0.7332  1.6056  0.7005
   58MOL   H11717331   0.643   5.629   6.009  0.1748 -1.3146 -0.8099
   58MOL   H11817332   0.670   5.849   6.034 -0.0243  0.1475  0.8322
   58MOL   H11917333   0.576   6.067   6.090  0.7795 -0.5375  0.6705
   58MOL   H12017334   0.315   6.093   6.087  0.7488  0.4506 -1.7330
   58MOL   H12117335   0.180   5.893   6.044 -0.1248  2.2536 -0.4167
   58MOL   C12217336   0.493   5.507   6.096 -0.6720 -0.9334  0.4268
   58MOL   C12317337   0.555   5.490   6.228  0.7359 -0.9498  0.0694
   58MOL   C12417338   0.468   5.404   6.310 -0.5394 -0.1967 -0.3527
   58MOL   C12517339   0.423   5.447   6.438 -0.1334  0.1276 -0.5936
   58MOL   C12617340   0.354   5.359   6.522  0.3158 -0.2277  0.1619
   58MOL   C12717341   0.332   5.225   6.474 -0.1497 -0.6139  0.1619
   58MOL   C12817342   0.372   5.196   6.342  0.8444  0.4433  0.7454
   58MOL   N12917343   0.442   5.280   6.263  0.1657 -0.2106  0.4079
   58MOL   H13017344   0.513   5.418   6.036 -1.8322 -1.1181  0.3069
   58MOL   H13117345   0.385   5.513   6.093 -0.5716  0.5175 -1.2972
   58MOL   H13217346   0.548   5.592   6.264 -0.4833  0.2028 -3.2355
   58MOL   H13317347   0.423   5.545   6.484 -1.4785 -0.1378 -0.0093
   58MOL   H13417348   0.327   5.403   6.617  1.2999 -0.3925  0.5217
   58MOL   H13517349   0.282   5.151   6.534  2.8068 -3.2439 -0.4850
   58MOL   H13617350   0.336   5.099   6.311  0.8810 -0.0119  2.0936
   58MOL   C13717351   0.705   5.441   6.227 -0.2913  0.2521  0.5258
   58MOL   C13817352   0.795   5.522   6.326  0.0322  0.4019 -0.2773
   58MOL   C13917353   0.745   5.519   6.476 -0.9660  0.6288  0.2229
   58MOL   C14017354   0.731   5.628   6.567  1.0627 -0.3877  1.0632
   58MOL   C14117355   0.691   5.607   6.700  0.0388 -0.1426 -0.9643
   58MOL   C14217356   0.661   5.476   6.741 -1.3309  0.1157  0.1074
   58MOL   C14317357   0.675   5.376   6.641  0.5993 -0.2631  0.4609
   58MOL   N14417358   0.731   5.392   6.521  0.2427  0.3017  0.2102
   58MOL   H14517359   0.754   5.463   6.132 -1.4213 -2.3971 -0.7151
   58MOL   H14617360   0.707   5.333   6.235 -1.2441  0.2123  0.3037
   58MOL   H14717361   0.807   5.627   6.299  2.4283  0.4442  0.8575
   58MOL   H14817362   0.758   5.723   6.522  3.7797 -0.4070  2.5774
   58MOL   H14917363   0.681   5.696   6.761  2.2459 -0.2910 -0.3511
   58MOL   H15017364   0.623   5.448   6.839  1.5003  1.2462  1.5778
   58MOL   H15117365   0.649   5.278   6.678  2.0802 -1.2145 -0.9789
   58MOL   C15217366   0.946   5.475   6.312  0.1234  0.5343  0.3565
   58MOL   C15317367   1.035   5.547   6.414 -0.6654 -0.0433  0.0787
   58MOL   C15417368   1.180   5.486   6.411 -0.1760  0.5231 -0.1414
   58MOL   C15517369   1.244   5.425   6.517  0.0156  0.4277 -0.7403
   58MOL   C15617370   1.375   5.384   6.512 -0.3632 -0.5331 -0.0652
   58MOL   C15717371   1.444   5.406   6.394 -0.2053  0.4269  0.1239
   58MOL   C15817372   1.376   5.468   6.285 -0.2340 -0.3451 -0.5732
   58MOL   N15917373   1.240   5.509   6.292  0.3259  1.1338  0.4633
   58MOL   H16017374   0.978   5.490   6.209  0.4445 -2.3357 -0.0111
   58MOL   H16117375   0.952   5.369   6.335  0.5448  0.7748  1.4357
   58MOL   H16217376   1.005   5.521   6.515 -1.3296 -1.0965 -0.3789
   58MOL   H16317377   1.183   5.399   6.602  0.8755  0.4524 -0.1139
   58MOL   H16417378   1.406   5.336   6.604 -0.4096 -0.7327 -0.1522
   58MOL   H16517379   1.549   5.382   6.390 -0.1116  0.9428 -0.6171
   58MOL   H16617380   1.435   5.486   6.196  1.9454 -1.9121  0.4991
   58MOL   C16717381   1.046   5.702   6.403 -0.0946 -0.2121 -0.4324
   58MOL   C16817382   1.120   5.778   6.527  0.1434  0.5767  0.0931
   58MOL   C16917383   1.144   5.927   6.485  0.3876 -0.2355  0.6504
   58MOL   C17017384   1.267   5.994   6.489  0.1207  0.0726  0.4588
   58MOL   C17117385   1.274   6.132   6.459 -0.0587 -1.0129 -0.4294
   58MOL   C17217386   1.148   6.202   6.434 -0.5467 -0.1731 -0.6860
   58MOL   C17317387   1.029   6.125   6.433 -0.6945 -0.6292 -0.2243
   58MOL   N17417388   1.028   5.991   6.462  0.1388 -0.5939  0.0000
   58MOL   H17517389   0.948   5.744   6.380 -0.8605 -1.8536 -0.2104
   58MOL   H17617390   1.105   5.728   6.315 -0.7260 -0.2196 -0.8494
   58MOL   H17717391   1.218   5.734   6.545 -1.7072 -2.9037  2.2423
   58MOL   H17817392   1.360   5.941   6.504 -0.1320 -0.5538 -0.1592
   58MOL   H17917393   1.369   6.183   6.460 -0.0710 -0.9555 -1.3060
   58MOL   H18017394   1.140   6.309   6.426  1.5964 -0.0449 -1.4433
   58MOL   H18117395   0.936   6.177   6.414  0.0148 -0.0988 -2.3310
   58MOL   C18217396   1.039   5.768   6.655  0.0969 -0.3520  0.2099
   58MOL   C18317397   1.095   5.850   6.778  0.6341  0.3327 -0.1935
   58MOL   C18417398   0.994   5.946   6.827 -0.2988 -0.0330 -0.8060
   58MOL   C18517399   1.006   6.087   6.795 -0.2663 -0.2373 -0.3442
   58MOL   C18617400   0.913   6.175   6.848 -0.0996 -0.2746 -0.9284
   58MOL   C18717401   0.807   6.125   6.921 -0.6189 -0.7992  0.2754
   58MOL   C18817402   0.798   5.991   6.945 -0.2008 -0.3617 -0.0594
   58MOL   N18917403   0.886   5.900   6.896  0.1124 -0.0010 -0.4898
   58MOL   H19017404   1.039   5.660   6.674 -2.0849 -0.1908  1.1869
   58MOL   H19117405   0.939   5.798   6.625  0.7654 -1.7918 -3.7405
   58MOL   H19217406   1.182   5.906   6.744  0.3949 -0.2425 -1.7666
   58MOL   H19317407   1.086   6.128   6.736 -1.6525  0.7389 -1.5877
   58MOL   H19417408   0.917   6.282   6.836 -0.1000  0.0103  1.3269
   58MOL   H19517409   0.738   6.196   6.963  1.6794 -0.5646  3.9085
   58MOL   H19617410   0.712   5.954   6.998 -1.5878  1.9569 -0.6566
   58MOL   C19717411   1.139   5.753   6.886 -0.2829 -0.5480  0.0318
   58MOL   C19817412   1.272   5.673   6.867 -0.1369  0.6834 -0.6240
   58MOL   C19917413   1.385   5.756   6.814  0.2346 -0.8170  0.1806
   58MOL   C20017414   1.475   5.700   6.722 -0.4434 -0.0651 -0.3559
   58MOL   C20117415   1.575   5.784   6.670 -0.1616  0.1734  0.8025
   58MOL   C20217416   1.593   5.912   6.723 -0.3881  0.3256 -0.3293
   58MOL   C20317417   1.508   5.956   6.827 -0.2976  0.1919  0.4290
   58MOL   N20417418   1.395   5.882   6.864  0.0153 -0.0381 -0.1519
   58MOL   H20517419   1.059   5.687   6.921  0.0416 -0.5213  0.8358
   58MOL   H20617420   1.160   5.815   6.973 -0.7508 -0.5950  0.1809
   58MOL   H20717421   1.251   5.591   6.799  1.3054  0.5977 -0.9835
   58MOL   H20817422   1.475   5.599   6.682 -2.7522  0.1979 -1.1080
   58MOL   H20917423   1.635   5.744   6.591  0.8053 -1.2104  2.2077
   58MOL   H21017424   1.663   5.981   6.679  2.3259 -1.5524  0.9201
   58MOL   H21117425   1.528   6.058   6.858 -1.1502  0.3936  0.3145
   58MOL   C21217426   1.321   5.604   6.994 -0.1107 -0.8175 -0.7729
   58MOL   C21317427   1.219   5.497   7.055  0.0996  0.4370 -0.1478
   58MOL   C21417428   1.197   5.386   6.955 -0.4010 -0.1189 -0.5534
   58MOL   C21517429   1.077   5.360   6.886 -0.2736 -0.4276  0.1558
   58MOL   C21617430   1.063   5.249   6.803  0.1833  0.4269  0.3612
   58MOL   C21717431   1.171   5.167   6.782 -0.5428 -0.1578 -0.0061
   58MOL   C21817432   1.290   5.204   6.850 -0.6520  0.4133  0.6006
   58MOL   N21917433   1.302   5.310   6.940 -0.3624  0.2240  0.2273
   58MOL   H22017434   1.335   5.680   7.071 -2.5764 -0.3259 -0.7472
   58MOL   H22117435   1.415   5.554   6.974 -0.3147 -1.3883 -0.3510
   58MOL   H22217436   1.121   5.538   7.080 -0.2239 -2.2147  3.2645
   58MOL   H22317437   1.000   5.433   6.907  0.8924  1.0502 -0.5358
   58MOL   H22417438   0.966   5.229   6.759  0.6148  0.0767 -0.4498
   58MOL   H22517439   1.163   5.083   6.715 -0.4590 -0.3679  0.2427
   58MOL   H22617440   1.374   5.138   6.833 -0.1296  1.2526 -0.0601
   58MOL   C22717441   1.267   5.441   7.196  0.3745  0.0218 -0.3902
   58MOL   C22817442   1.169   5.326   7.245 -0.0805 -0.5443  0.6899
   58MOL   C22917443   1.229   5.256   7.361 -1.2884  0.2798  0.6727
   58MOL   C23017444   1.181   5.274   7.495 -0.3717 -0.3275  0.5366
   58MOL   C23117445   1.220   5.171   7.581 -0.8363  1.1424 -1.2177
   58MOL   C23217446   1.310   5.073   7.544 -0.1645 -0.1174 -0.1162
   58MOL   C23317447   1.377   5.089   7.419 -0.0472 -0.2176 -0.7642
   58MOL   N23417448   1.332   5.181   7.335  0.2363 -0.0944  0.0611
   58MOL   H23517449   1.262   5.520   7.271  0.9935 -1.0407  0.7877
   58MOL   H23617450   1.370   5.405   7.191  0.5867  0.7092 -1.1687
   58MOL   H23717451   1.168   5.251   7.166 -0.3351 -1.5268  1.6154
   58MOL   H23817452   1.103   5.340   7.530 -0.8805 -0.9253  0.5345
   58MOL   H23917453   1.167   5.165   7.675 -0.6747 -1.0168 -1.2248
   58MOL   H24017454   1.341   5.005   7.622 -0.6905  1.0827  1.1498
   58MOL   H24117455   1.470   5.035   7.409 -0.1489 -0.9471  1.7659
   58MOL   C24217456   1.026   5.383   7.259 -0.2796 -0.4762  1.0639
   58MOL   C24317457   0.910   5.278   7.288 -0.1466  0.3618 -0.4766
   58MOL   C24417458   0.784   5.359   7.315 -0.7360 -0.2225  0.1709
   58MOL   C24517459   0.724   5.382   7.443  0.9478  0.6497  0.2790
   58MOL   C24617460   0.632   5.488   7.465 -0.2060 -0.6982 -0.0679
   58MOL   C24717461   0.589   5.561   7.350 -0.9243  0.2998 -0.6260
   58MOL   C24817462   0.645   5.527   7.222  0.8485  0.4368 -0.5688
   58MOL   N24917463   0.740   5.436   7.207 -0.5774  0.0820  0.2690
   58MOL   H25017464   0.994   5.422   7.163  0.8558 -3.5264 -0.6489
   58MOL   H25117465   1.024   5.465   7.330 -0.4388  1.2700 -0.9253
   58MOL   H25217466   0.924   5.221   7.380 -0.9460 -0.0042 -0.5734
   58MOL   H25317467   0.762   5.336   7.532 -1.1221 -0.3361  0.7005
   58MOL   H25417468   0.593   5.510   7.563 -0.4324  1.6486 -0.6386
   58MOL   H25517469   0.519   5.643   7.357 -0.1682  1.2461 -3.4459
   58MOL   H25617470   0.625   5.590   7.137  1.6683  1.8824  0.2846
   58MOL   C25717471   0.878   5.176   7.180 -0.0763 -0.1660  0.0147
   58MOL   C25817472   0.966   5.044   7.183 -0.7611  0.2236  0.0646
   58MOL   C25917473   0.917   4.942   7.286  0.6383 -0.6633  0.3657
   58MOL   C26017474   0.974   4.944   7.412 -0.0782 -0.3753 -0.0515
   58MOL   C26117475   0.927   4.860   7.512  0.3777  0.8141  0.1225
   58MOL   C26217476   0.813   4.780   7.484  0.1907 -0.1254  0.0557
   58MOL   C26317477   0.763   4.783   7.355 -0.3282  0.5675 -0.5643
   58MOL   N26417478   0.811   4.861   7.256  0.2281  0.1439 -0.1091
   58MOL   H26517479   0.889   5.227   7.083 -1.1063 -1.5340 -0.8390
   58MOL   H26617480   0.774   5.151   7.158  0.0986  0.0489 -1.0856
   58MOL   H26717481   1.060   5.073   7.231 -0.3803 -2.4646  1.0588
   58MOL   H26817482   1.060   5.006   7.431 -1.3545  2.3405 -2.8541
   58MOL   H26917483   0.958   4.850   7.615 -0.5627 -3.2217  0.1103
   58MOL   H27017484   0.783   4.713   7.563  1.1222  0.5394  0.9996
   58MOL   H27117485   0.679   4.721   7.327 -0.6366 -0.4535  2.4110
   58MOL   C27217486   0.983   4.990   7.042 -0.1001  0.0280 -0.4630
   58MOL   C27317487   1.036   4.844   7.009  0.1652 -0.4827  0.3860
   58MOL   C27417488   0.968   4.787   6.886 -0.5831 -0.2733 -0.2305
   58MOL   C27517489   0.863   4.691   6.899 -0.3582  0.6097  0.4845
   58MOL   C27617490   0.793   4.646   6.787  0.1336 -0.6086 -0.1532
   58MOL   C27717491   0.807   4.716   6.665  0.7572 -0.0342  0.5279
   58MOL   C27817492   0.906   4.819   6.661 -0.7149 -0.2462  0.4776
   58MOL   N27917493   0.995   4.850   6.764 -0.1365  0.3295 -0.1059
   58MOL   H28017494   1.022   5.056   6.964  1.1246  1.2934  1.1866
   58MOL   H28117495   0.885   4.975   6.997  0.3674 -3.4143 -0.4384
   58MOL   H28217496   1.004   4.788   7.097 -1.1595  0.7147  0.6939
   58MOL   H28317497   0.847   4.635   6.990 -1.1159 -0.9330 -0.5652
   58MOL   H28417498   0.710   4.578   6.794  0.2564 -0.7889 -0.4339
   58MOL   H28517499   0.739   4.694   6.584 -0.9980  1.8774  1.4395
   58MOL   H28617500   0.922   4.873   6.568  1.9181  0.9739  1.6014
   58MOL   C28717501   1.191   4.839   6.996 -0.1172  0.4442  0.3455
   58MOL   C28817502   1.260   4.829   7.134 -0.0724  0.7110 -0.3891
   58MOL   C28917503   1.414   4.808   7.115  0.0539 -0.2283 -0.3687
   58MOL   C29017504   1.488   4.928   7.107 -0.2446  0.4869  0.3954
   58MOL   C29117505   1.622   4.909   7.087  0.6763 -0.3622  0.2545
   58MOL   C29217506   1.689   4.785   7.070 -0.1960 -0.1395  0.4361
   58MOL   C29317507   1.605   4.679   7.085 -0.3908  0.1327 -0.4515
   58MOL   N29417508   1.473   4.687   7.117 -0.3208 -0.1167  0.0874
   58MOL   H29517509   1.236   4.915   6.933  1.3760  0.4474  1.4121
   58MOL   H29617510   1.227   4.743   6.956 -0.9194  0.0183  0.6285
   58MOL   H29717511   1.216   4.750   7.195 -0.9418  0.5963 -1.1490
   58MOL   H29817512   1.444   5.026   7.118  1.2178  1.0958  0.8854
   58MOL   H29917513   1.681   4.999   7.077 -0.1514  0.4325  2.2944
   58MOL   H30017514   1.790   4.773   7.036 -0.9549 -0.4596 -1.7756
   58MOL   H30117515   1.653   4.582   7.087 -0.1666  0.2603  1.0694
   58MOL   H30217516   1.244   4.924   7.184 -2.2005  0.8487 -1.2719
   59MOL     C117517   4.294   3.507   0.812 -0.4613 -0.0425  0.0516
   59MOL     C217518   4.158   3.500   0.879 -0.4406  1.1149 -0.5489
   59MOL     C317519   4.037   3.509   0.785  0.4949  0.0662 -0.4664
   59MOL     C417520   3.945   3.621   0.793  0.3180 -0.2167 -0.3610
   59MOL     C517521   3.844   3.626   0.699  0.1640 -0.1347 -0.3921
   59MOL     C617522   3.834   3.526   0.600 -0.0787  0.0915  0.3666
   59MOL     C717523   3.926   3.417   0.603 -0.4443  0.0788  0.2518
   59MOL     N817524   4.027   3.411   0.691  0.1781 -1.1405 -0.0914
   59MOL     H917525   4.296   3.603   0.759 -0.8621  0.0409  0.1851
   59MOL    H1017526   4.373   3.500   0.886  0.5160 -0.1817 -0.9918
   59MOL    H1117527   4.146   3.587   0.942 -1.8240 -0.3455  1.2714
   59MOL    H1217528   3.961   3.698   0.868 -1.5008 -1.6000  1.4950
   59MOL    H1317529   3.763   3.698   0.705 -0.6253 -0.9828 -0.6958
   59MOL    H1417530   3.751   3.537   0.533 -0.6245  3.0085  1.4713
   59MOL    H1517531   3.934   3.338   0.530  2.0827  1.2142 -0.7875
   59MOL    H1617532   4.326   3.424   0.749  0.0760 -0.7654  1.2799
   59MOL    C1717533   4.147   3.369   0.956 -0.2456 -0.2622  0.2896
   59MOL    C1817534   4.245   3.352   1.078 -0.2936  0.0146  0.3448
   59MOL    C1917535   4.236   3.473   1.176  0.3378 -0.3423 -0.8791
   59MOL    C2017536   4.362   3.532   1.222  0.2134  0.1662  0.0631
   59MOL    C2117537   4.355   3.639   1.312  0.1943 -0.8207  0.1657
   59MOL    C2217538   4.226   3.690   1.343  0.6388 -0.4070  0.7272
   59MOL    C2317539   4.110   3.629   1.284 -0.2596 -0.0812 -0.2499
   59MOL    N2417540   4.113   3.512   1.212 -0.1569  0.1100  0.4885
   59MOL    H2517541   4.170   3.289   0.885 -0.7785 -1.9384  1.9733
   59MOL    H2617542   4.042   3.345   0.978 -0.8352  1.4260 -0.6021
   59MOL    H2717543   4.347   3.343   1.042 -1.1350 -0.8371 -1.8941
   59MOL    H2817544   4.454   3.481   1.201  1.4110  2.2402  0.1985
   59MOL    H2917545   4.436   3.687   1.365 -0.4673  2.1171 -1.3690
   59MOL    H3017546   4.211   3.784   1.395 -3.4417  0.2782 -1.4645
   59MOL    H3117547   4.021   3.688   1.300  0.8178  1.9752 -1.6252
   59MOL    C3217548   4.212   3.225   1.164  0.8890 -0.4359 -0.4568
   59MOL    C3317549   4.272   3.097   1.115  0.1120  0.4636 -0.6418
   59MOL    C3417550   4.429   3.092   1.129 -0.0408 -0.6388 -0.0628
   59MOL    C3517551   4.516   3.111   1.027 -0.3468 -0.3469  0.4678
   59MOL    C3617552   4.653   3.102   1.048 -0.2748 -0.2726  0.5171
   59MOL    C3717553   4.694   3.061   1.180 -0.4983 -0.0760  0.3511
   59MOL    C3817554   4.596   3.046   1.277 -0.2583  0.1091 -0.2355
   59MOL    N3917555   4.465   3.070   1.258  0.4513  0.1609  0.0607
   59MOL    H4017556   4.103   3.220   1.167  0.9608 -1.4281  2.1112
   59MOL    H4117557   4.257   3.231   1.263  0.1130  1.0123 -0.1834
   59MOL    H4217558   4.250   3.099   1.008 -0.3983  2.2227 -0.5213
   59MOL    H4317559   4.479   3.136   0.928  1.4556 -0.3032 -0.2120
   59MOL    H4417560   4.722   3.108   0.965 -1.1880  1.9136 -0.1297
   59MOL    H4517561   4.796   3.048   1.215  0.7146  1.0707 -2.5823
   59MOL    H4617562   4.623   3.020   1.378 -2.4818  0.7129  0.5511
   59MOL    C4717563   4.219   2.959   1.176 -0.0781 -0.3111  0.0610
   59MOL    C4817564   4.082   2.915   1.120 -0.1025 -0.5172  0.2021
   59MOL    C4917565   4.068   2.934   0.971 -0.4295  0.1299  0.6023
   59MOL    C5017566   4.117   2.833   0.883 -0.1495  0.0990 -0.3418
   59MOL    C5117567   4.129   2.859   0.743  0.3582 -0.0937  0.5482
   59MOL    C5217568   4.071   2.980   0.705 -0.3845 -0.4502 -0.6207
   59MOL    C5317569   3.993   3.064   0.791  0.1525 -0.4062  0.7165
   59MOL    N5417570   4.005   3.046   0.927 -0.0173 -0.0965 -0.0146
   59MOL    H5517571   4.233   2.957   1.284 -1.2104  2.1686  0.2734
   59MOL    H5617572   4.282   2.878   1.139  0.3201 -0.2844  0.6660
   59MOL    H5717573   4.024   2.991   1.172  0.5632 -0.2077  0.5057
   59MOL    H5817574   4.154   2.740   0.923  0.7508 -0.5286 -2.5829
   59MOL    H5917575   4.178   2.796   0.671  1.2751 -2.0710  2.8494
   59MOL    H6017576   4.067   3.000   0.599  1.1838 -2.2726 -1.0526
   59MOL    H6117577   3.930   3.148   0.768 -0.8018 -1.2019  0.4048
   59MOL    C6217578   4.021   2.784   1.175 -0.4733 -0.5248  0.3377
   59MOL    C6317579   3.878   2.764   1.121  0.0006 -0.1499 -0.5418
   59MOL    C6417580   3.844   2.624   1.167 -0.1389 -0.2447 -0.0375
   59MOL    C6517581   3.817   2.525   1.069  0.6807  0.2835 -0.6354
   59MOL    C6617582   3.786   2.399   1.109  0.3485  0.3532 -0.1244
   59MOL    C6717583   3.787   2.375   1.252  0.1405  0.8981 -0.5470
   59MOL    C6817584   3.825   2.477   1.340  0.2983 -0.5515  0.2633
   59MOL    N6917585   3.852   2.602   1.296 -0.4937  0.1544  0.3405
   59MOL    H7017586   4.020   2.792   1.283  1.2844  0.9440  0.2787
   59MOL    H7117587   4.085   2.697   1.159 -1.2815 -0.9912 -0.3689
   59MOL    H7217588   3.875   2.760   1.012  0.7955 -0.2053 -0.5668
   59MOL    H7317589   3.831   2.546   0.964 -2.4471  1.2000 -0.9158
   59MOL    H7417590   3.762   2.326   1.033  0.6671  0.1858 -0.0615
   59MOL    H7517591   3.745   2.280   1.282 -1.9915  2.3248  1.1604
   59MOL    H7617592   3.821   2.457   1.446  1.3608 -1.6594  0.1041
   59MOL    C7717593   3.780   2.878   1.159  0.2596  0.6079 -0.7125
   59MOL    C7817594   3.632   2.847   1.143  0.6107  0.4366 -0.4951
   59MOL    C7917595   3.552   2.960   1.209 -0.1507 -0.2362  0.3856
   59MOL    C8017596   3.487   2.934   1.335 -1.2767  0.1843 -0.1640
   59MOL    C8117597   3.412   3.037   1.392 -0.7790 -0.0759 -0.5395
   59MOL    C8217598   3.412   3.159   1.325  0.0358  0.3772  0.5924
   59MOL    C8317599   3.479   3.176   1.204  0.0201  0.1298 -0.0100
   59MOL    N8417600   3.552   3.078   1.148 -0.4822 -0.0095  0.2314
   59MOL    H8517601   3.796   2.973   1.108 -1.8908  1.7552  0.6300
   59MOL    H8617602   3.788   2.895   1.267  0.5528 -3.1880 -0.0690
   59MOL    H8717603   3.622   2.753   1.198  0.7585  1.1492  0.7695
   59MOL    H8817604   3.489   2.837   1.381 -0.0127  0.5940  0.6595
   59MOL    H8917605   3.363   3.019   1.487 -2.8384 -1.0548 -1.7571
   59MOL    H9017606   3.356   3.241   1.369 -0.6626 -0.4336  1.2471
   59MOL    H9117607   3.482   3.271   1.152  1.2162  0.6167  0.9232
   59MOL    C9217608   3.581   2.819   0.995  0.6884 -0.8748  0.4254
   59MOL    C9317609   3.444   2.765   0.987  0.2049 -0.1538 -0.7706
   59MOL    C9417610   3.339   2.866   0.951 -0.0779  0.1135  0.1754
   59MOL    C9517611   3.244   2.916   1.045 -0.5470  0.3886  0.7632
   59MOL    C9617612   3.161   3.021   1.003 -0.3335  0.3135  0.0283
   59MOL    C9717613   3.160   3.055   0.868 -0.0184  0.0463 -0.7153
   59MOL    C9817614   3.252   2.997   0.782 -0.2941 -0.0138 -0.4088
   59MOL    N9917615   3.346   2.913   0.827 -0.2884 -0.4538 -0.4949
   59MOL   H10017616   3.652   2.751   0.948  1.0006 -0.0385 -0.3254
   59MOL   H10117617   3.590   2.910   0.935  1.4028 -3.5243 -3.6780
   59MOL   H10217618   3.421   2.734   1.089  3.0397  1.9900  0.5864
   59MOL   H10317619   3.243   2.881   1.147  2.3370  0.9308  1.0283
   59MOL   H10417620   3.079   3.048   1.068  0.7828 -1.1225  2.0794
   59MOL   H10517621   3.098   3.135   0.831  0.4105 -0.7126 -3.1270
   59MOL   H10617622   3.270   3.027   0.679  1.5294  1.9467  0.4373
   59MOL   C10717623   3.425   2.637   0.897  0.0653  1.0872  0.4783
   59MOL   C10817624   3.290   2.559   0.902  0.5648 -0.4144 -0.5283
   59MOL   C10917625   3.259   2.490   0.767  0.4223 -1.1060  0.0520
   59MOL   C11017626   3.345   2.401   0.691 -0.4070 -0.2041 -0.1401
   59MOL   C11117627   3.312   2.363   0.559 -0.7702 -0.3763 -0.3626
   59MOL   C11217628   3.187   2.409   0.510  0.5637  0.3193  0.4940
   59MOL   C11317629   3.115   2.487   0.593 -0.5212 -0.0954  0.4849
   59MOL   N11417630   3.143   2.526   0.714  0.0175 -0.1614 -0.0075
   59MOL   H11517631   3.496   2.563   0.932 -0.1636  0.4409 -0.4081
   59MOL   H11617632   3.436   2.682   0.798  2.0822 -1.2893 -0.4155
   59MOL   H11717633   3.212   2.635   0.908  1.7493  0.7061  1.0081
   59MOL   H11817634   3.436   2.369   0.740 -1.6368  0.9041  3.0661
   59MOL   H11917635   3.373   2.295   0.501  0.3135  0.7586 -0.5634
   59MOL   H12017636   3.152   2.376   0.413  0.4037  1.8464  0.0265
   59MOL   H12117637   3.023   2.533   0.557  0.1942 -0.1706 -1.5039
   59MOL   C12217638   3.287   2.472   1.032  0.2209  0.5117 -0.0671
   59MOL   C12317639   3.148   2.441   1.090 -0.5876 -0.0368 -0.2729
   59MOL   C12417640   3.062   2.345   1.005 -0.6154  0.2057  0.7523
   59MOL   C12517641   2.926   2.367   0.980  0.7488 -0.0816 -1.1942
   59MOL   C12617642   2.856   2.274   0.898  0.3141 -0.4887 -0.4527
   59MOL   C12717643   2.932   2.172   0.843 -0.5120  0.0168  0.3418
   59MOL   C12817644   3.062   2.153   0.892 -0.1281 -0.2810  0.2783
   59MOL   N12917645   3.125   2.243   0.970 -0.0250 -0.4208  0.0956
   59MOL   H13017646   3.348   2.532   1.100 -0.3430 -1.5532  2.3218
   59MOL   H13117647   3.352   2.387   1.011  1.1491  1.4432 -1.0656
   59MOL   H13217648   3.089   2.532   1.089  0.5697  0.7778  2.5348
   59MOL   H13317649   2.877   2.449   1.031  1.9122 -0.1953  0.1038
   59MOL   H13417650   2.755   2.298   0.868  0.1409 -0.8803 -0.1874
   59MOL   H13517651   2.896   2.109   0.763 -1.3212  1.0159 -0.0910
   59MOL   H13617652   3.120   2.068   0.859  0.3192 -0.0296  0.4149
   59MOL   C13717653   3.148   2.379   1.230 -0.1531 -1.3172 -0.1144
   59MOL   C13817654   3.205   2.456   1.347 -0.3377  0.1751 -0.1767
   59MOL   C13917655   3.130   2.584   1.379 -0.2272 -0.9133  0.1077
   59MOL   C14017656   3.191   2.713   1.371  0.3590  0.5256  0.2417
   59MOL   C14117657   3.110   2.825   1.396  0.1703  0.5740  0.4046
   59MOL   C14217658   2.978   2.805   1.432 -0.6277 -0.0905  0.0366
   59MOL   C14317659   2.930   2.677   1.448  0.3698  0.4472  0.1799
   59MOL   N14417660   3.006   2.563   1.426 -0.4134 -0.6052  0.3728
   59MOL   H14517661   3.209   2.290   1.213  0.1667 -0.8877 -1.2623
   59MOL   H14617662   3.049   2.341   1.255 -1.2274  1.3234 -0.2144
   59MOL   H14717663   3.301   2.487   1.305 -0.3643 -1.7401 -1.7436
   59MOL   H14817664   3.288   2.717   1.325 -0.4373  0.3158 -1.4940
   59MOL   H14917665   3.156   2.921   1.376  1.7743  0.4052  3.0150
   59MOL   H15017666   2.908   2.888   1.430 -2.0680 -1.2901 -0.0974
   59MOL   H15117667   2.825   2.652   1.459 -0.0046  2.1154  0.6753
   59MOL   C15217668   3.227   2.372   1.470 -0.2497  0.4396 -0.9376
   59MOL   C15317669   3.369   2.321   1.503  0.1296 -0.4310  0.6631
   59MOL   C15417670   3.447   2.434   1.569 -0.2366 -0.6407 -0.2161
   59MOL   C15517671   3.536   2.520   1.500  0.0050  0.1133 -0.6869
   59MOL   C15617672   3.599   2.627   1.562  0.6144 -0.1577  0.1582
   59MOL   C15717673   3.572   2.642   1.699 -0.5737 -0.0798  0.1731
   59MOL   C15817674   3.497   2.547   1.767 -0.0185 -0.1053 -0.3376
   59MOL   N15917675   3.427   2.453   1.701  0.4871 -0.3590  0.1717
   59MOL   H16017676   3.154   2.292   1.468  0.4641 -0.1959 -2.3992
   59MOL   H16117677   3.200   2.428   1.559 -2.2307 -0.4561 -0.9637
   59MOL   H16217678   3.433   2.311   1.415  0.4571 -0.3546  0.8905
   59MOL   H16317679   3.539   2.509   1.393  0.8556  0.0638 -0.6564
   59MOL   H16417680   3.663   2.697   1.510 -0.6936  0.0686 -1.1760
   59MOL   H16517681   3.616   2.724   1.754 -0.0200  1.4822 -2.4775
   59MOL   H16617682   3.478   2.558   1.873  0.2000  0.0370 -0.3117
   59MOL   C16717683   3.383   2.192   1.585  0.0853  0.1827  0.1196
   59MOL   C16817684   3.342   2.064   1.513  1.1723 -0.6322 -0.6900
   59MOL   C16917685   3.378   2.058   1.360 -0.4697  0.5354 -0.8473
   59MOL   C17017686   3.278   2.031   1.261 -0.2024 -0.0350  0.3267
   59MOL   C17117687   3.328   2.013   1.130  0.0522  0.2412 -0.3485
   59MOL   C17217688   3.465   2.033   1.105 -0.2433 -0.6712  0.7568
   59MOL   C17317689   3.545   2.072   1.206 -0.0118 -0.5286 -0.7624
   59MOL   N17417690   3.506   2.088   1.331 -0.0941  0.4773  0.0624
   59MOL   H17517691   3.335   2.207   1.681 -2.5437  3.4307 -1.6047
   59MOL   H17617692   3.484   2.185   1.623 -0.0941  2.1334  1.0218
   59MOL   H17717693   3.233   2.065   1.523  1.0753  0.1538 -1.6827
   59MOL   H17817694   3.176   2.016   1.295  0.2455  0.2205  1.8019
   59MOL   H17917695   3.272   1.972   1.047 -2.8049 -1.0375  2.1239
   59MOL   H18017696   3.498   2.021   1.003 -0.4079  1.5294  0.4100
   59MOL   H18117697   3.652   2.087   1.194 -0.4605  3.4643 -0.4715
   59MOL   C18217698   3.391   1.941   1.582 -0.4732  0.3455  0.4772
   59MOL   C18317699   3.345   1.900   1.732  1.0723  0.5836 -0.1055
   59MOL   C18417700   3.190   1.918   1.739  0.6142  0.7284 -0.0729
   59MOL   C18517701   3.138   2.036   1.807  0.1952  0.3460 -0.1249
   59MOL   C18617702   2.996   2.066   1.809 -0.6473 -0.2417  0.1024
   59MOL   C18717703   2.908   1.968   1.756 -0.7240 -0.5594 -0.5014
   59MOL   C18817704   2.969   1.860   1.698  0.0503  0.7117  0.1915
   59MOL   N18917705   3.100   1.837   1.677 -0.2757  0.6273 -0.2931
   59MOL   H19017706   3.500   1.947   1.578 -0.2910 -1.8991  1.2748
   59MOL   H19117707   3.374   1.860   1.511  1.4934 -1.0477  1.5504
   59MOL   H19217708   3.396   1.972   1.796  1.3220  1.5151 -1.3242
   59MOL   H19317709   3.210   2.098   1.858 -0.1719 -1.7035  3.1121
   59MOL   H19417710   2.954   2.158   1.845  0.0062 -0.8469  2.5164
   59MOL   H19517711   2.801   1.973   1.757 -0.7338 -0.7097 -1.0264
   59MOL   H19617712   2.911   1.784   1.647  2.3870 -1.3584  0.5403
   59MOL   C19717713   3.400   1.762   1.778 -0.3457  0.1963 -0.3583
   59MOL   C19817714   3.348   1.628   1.718  0.9565  1.1273 -0.0617
   59MOL   C19917715   3.466   1.531   1.682  0.0258 -0.3095  0.2443
   59MOL   C20017716   3.597   1.526   1.742  0.1323 -0.5482 -0.8293
   59MOL   C20117717   3.688   1.431   1.697 -0.2653  0.3164 -0.0318
   59MOL   C20217718   3.663   1.371   1.570  0.0795 -1.3037 -0.1643
   59MOL   C20317719   3.539   1.385   1.508  0.5594  0.7217 -0.1449
   59MOL   N20417720   3.444   1.464   1.561 -0.4643  0.0661  0.2900
   59MOL   H20517721   3.410   1.764   1.887  1.7549  0.9505 -0.5583
   59MOL   H20617722   3.505   1.772   1.751  0.0008  1.2874  1.3136
   59MOL   H20717723   3.311   1.656   1.620  0.8529 -1.3806 -0.7859
   59MOL   H20817724   3.618   1.580   1.833 -1.1342  0.9329 -1.3983
   59MOL   H20917725   3.782   1.421   1.747  0.5993 -1.1058 -1.8664
   59MOL   H21017726   3.735   1.300   1.533  1.2132 -0.5473  0.5298
   59MOL   H21117727   3.505   1.333   1.420  1.1131 -1.5631  0.9232
   59MOL   C21217728   3.245   1.554   1.811  0.1894  0.1063  0.0018
   59MOL   C21317729   3.183   1.430   1.737 -0.2875 -0.8882 -0.9130
   59MOL   C21417730   3.101   1.361   1.832 -0.6723  0.3083 -0.3772
   59MOL   C21517731   3.131   1.225   1.857  0.5341 -1.1089  0.2976
   59MOL   C21617732   3.042   1.150   1.930 -0.2420  0.1417 -0.4128
   59MOL   C21717733   2.922   1.216   1.971 -0.5281  0.4452 -0.1641
   59MOL   C21817734   2.903   1.347   1.944  0.2476  0.0202  0.5239
   59MOL   N21917735   2.989   1.419   1.867  0.7419 -0.5258  0.0857
   59MOL   H22017736   3.174   1.634   1.832  2.2067  1.6951  1.0849
   59MOL   H22117737   3.282   1.515   1.906 -2.0076 -0.9345  0.4378
   59MOL   H22217738   3.270   1.368   1.712  0.4569 -0.3675  0.3131
   59MOL   H22317739   3.220   1.182   1.811 -0.6836 -2.2937 -1.0365
   59MOL   H22417740   3.057   1.044   1.946  0.4334  0.3095  0.1138
   59MOL   H22517741   2.840   1.166   2.020 -1.0672  0.3111 -1.1929
   59MOL   H22617742   2.804   1.382   1.968 -0.4106 -0.4374 -1.4058
   59MOL   C22717743   3.104   1.461   1.610  0.8826 -0.0913  0.2381
   59MOL   C22817744   3.038   1.347   1.530 -0.4144 -0.0014 -1.0270
   59MOL   C22917745   2.945   1.388   1.423 -0.0153  0.2827  0.2605
   59MOL   C23017746   2.951   1.513   1.353 -0.2482 -0.0827 -0.5716
   59MOL   C23117747   2.871   1.536   1.236 -0.4166 -0.0327 -0.3768
   59MOL   C23217748   2.774   1.444   1.205 -0.2494  0.0368 -0.1549
   59MOL   C23317749   2.769   1.326   1.285  0.0249 -0.2088 -0.2781
   59MOL   N23417750   2.848   1.301   1.387  0.1288  0.4703  0.1585
   59MOL   H23517751   3.169   1.519   1.544  0.7212  0.7228  0.7733
   59MOL   H23617752   3.030   1.537   1.638  0.2142 -0.1961 -1.1849
   59MOL   H23717753   2.969   1.293   1.595 -0.3636 -0.2370 -1.1679
   59MOL   H23817754   3.020   1.592   1.378 -1.6073  0.1088  2.8710
   59MOL   H23917755   2.869   1.629   1.180 -1.4308 -0.2049 -0.6368
   59MOL   H24017756   2.698   1.472   1.133 -2.2660  0.6034  2.1397
   59MOL   H24117757   2.695   1.250   1.263 -0.2964 -0.4044  1.3937
   59MOL   C24217758   3.149   1.246   1.479 -0.1449 -0.3373  0.0876
   59MOL   C24317759   3.103   1.102   1.438  0.2599 -0.3614 -0.1407
   59MOL   C24417760   3.213   1.027   1.356 -0.6877  0.5678  1.1474
   59MOL   C24517761   3.188   1.027   1.219  0.7805 -0.1576 -0.5687
   59MOL   C24617762   3.292   0.980   1.140  0.9741  0.6705 -0.1040
   59MOL   C24717763   3.418   0.937   1.192  0.2584 -0.4083  0.2353
   59MOL   C24817764   3.433   0.947   1.331 -0.1385  0.0245  0.2189
   59MOL   N24917765   3.333   0.992   1.413  0.1895  0.0374 -0.6607
   59MOL   H25017766   3.227   1.241   1.555  0.8052 -0.1621 -0.8719
   59MOL   H25117767   3.196   1.279   1.387  1.4879 -2.7933 -0.0208
   59MOL   H25217768   3.016   1.109   1.373 -0.4792  2.5499  1.0903
   59MOL   H25317769   3.096   1.067   1.178  0.4392 -0.5747 -0.2028
   59MOL   H25417770   3.275   0.978   1.033 -2.9738 -0.6355  0.4923
   59MOL   H25517771   3.499   0.896   1.132 -0.3952 -0.4034 -0.6586
   59MOL   H25617772   3.534   0.937   1.368  0.1349 -0.3692 -0.6278
   59MOL   C25717773   3.047   1.025   1.555  0.6855  0.3473 -0.2880
   59MOL   C25817774   3.031   0.875   1.541 -0.4454 -0.2471 -0.3192
   59MOL   C25917775   2.984   0.813   1.676 -0.3400 -0.5643 -0.3328
   59MOL   C26017776   3.057   0.712   1.737 -0.2194  0.1838  0.1916
   59MOL   C26117777   3.012   0.665   1.864  0.9657  0.3174 -0.3921
   59MOL   C26217778   2.886   0.700   1.910 -0.6972  0.2619  0.0052
   59MOL   C26317779   2.814   0.790   1.834 -1.1392 -0.2539  0.1958
   59MOL   N26417780   2.861   0.844   1.720  0.8471 -0.1789 -0.5580
   59MOL   H26517781   2.954   1.074   1.581  0.6695 -0.7784  1.8919
   59MOL   H26617782   3.121   1.041   1.634 -0.6680 -0.4045  1.1643
   59MOL   H26717783   3.130   0.834   1.522 -0.6510 -0.7128 -0.3895
   59MOL   H26817784   3.157   0.689   1.703 -0.6600 -1.2354 -0.1864
   59MOL   H26917785   3.067   0.593   1.922 -0.7493 -0.9062 -0.2396
   59MOL   H27017786   2.846   0.679   2.008 -0.9744 -0.5368 -0.2689
   59MOL   H27117787   2.720   0.829   1.871 -1.4495 -1.0592  0.2535
   59MOL   C27217788   2.942   0.832   1.425 -0.3926 -0.0670 -0.1726
   59MOL   C27317789   2.928   0.680   1.411  0.1148  0.3437 -0.1151
   59MOL   C27417790   2.811   0.657   1.325 -0.1125 -0.1821  0.1122
   59MOL   C27517791   2.693   0.591   1.366  0.5640 -0.5043 -0.9069
   59MOL   C27617792   2.583   0.568   1.282  0.5859 -0.3719  0.0257
   59MOL   C27717793   2.600   0.620   1.150 -0.3748  0.6339  0.6595
   59MOL   C27817794   2.720   0.682   1.110 -0.1098  0.4166 -0.6102
   59MOL   N27917795   2.827   0.706   1.198 -0.4742  0.6793  0.1040
   59MOL   H28017796   2.985   0.882   1.338 -2.7103  1.5974 -0.4104
   59MOL   H28117797   2.850   0.888   1.440  0.7209  1.4891  1.0546
   59MOL   H28217798   2.909   0.628   1.505  0.8959  0.2782  0.0097
   59MOL   H28317799   2.698   0.564   1.470  0.0079  2.3655 -0.0858
   59MOL   H28417800   2.487   0.524   1.303  1.2654 -1.2458  1.3451
   59MOL   H28517801   2.510   0.615   1.091 -0.4991  2.0286  0.7000
   59MOL   H28617802   2.716   0.736   1.016 -0.6937 -0.6046 -1.1878
   59MOL   C28717803   3.054   0.620   1.347 -0.0362 -0.2289 -0.1305
   59MOL   C28817804   3.135   0.520   1.434 -0.3299  0.2482  0.1024
   59MOL   C28917805   3.278   0.492   1.391 -0.2322 -0.2514 -0.3502
   59MOL   C29017806   3.379   0.587   1.419  0.0240 -0.1791 -0.2151
   59MOL   C29117807   3.508   0.544   1.385 -0.1107  0.0098  0.1859
   59MOL   C29217808   3.532   0.424   1.314 -0.0401  0.2183  0.0671
   59MOL   C29317809   3.422   0.347   1.280  0.2647  0.3361 -0.3012
   59MOL   N29417810   3.298   0.386   1.315  0.1698  0.4460  0.5104
   59MOL   H29517811   3.130   0.692   1.318 -0.8775  0.8059  0.2209
   59MOL   H29617812   3.034   0.568   1.253  1.9165 -1.5420  0.1509
   59MOL   H29717813   3.071   0.438   1.470  0.9285 -0.7827  0.0138
   59MOL   H29817814   3.368   0.685   1.464  2.3195  0.7431 -1.5997
   59MOL   H29917815   3.599   0.597   1.409  0.2000 -0.8438  0.9314
   59MOL   H30017816   3.629   0.385   1.287 -0.7574 -0.6523 -1.2905
   59MOL   H30117817   3.437   0.256   1.225  0.1983  0.6197 -0.7982
   59MOL   H30217818   3.148   0.575   1.527 -1.4257  1.0529 -0.2080
   60MOL     C117819   5.345   4.324   8.149  0.5640  0.0560  0.0860
   60MOL     C217820   5.449   4.398   8.063  0.0051 -0.2030  0.2262
   60MOL     C317821   5.532   4.480   0.009  0.2506  0.0263  0.5127
   60MOL     C417822   5.513   4.620   0.010 -0.3392 -0.3242 -0.1362
   60MOL     C517823   5.577   4.699   0.105 -0.8078  0.7014  0.1378
   60MOL     C617824   5.640   4.627   0.209 -0.3411  0.1145  0.0416
   60MOL     C717825   5.659   4.488   0.204  0.0451 -0.2879  0.4710
   60MOL     N817826   5.604   4.417   0.104  0.3810  0.5069  0.2433
   60MOL     H917827   5.283   4.258   8.089  0.9862  0.6175 -0.9709
   60MOL    H1017828   5.407   4.263   0.062 -0.0813 -1.2294 -0.4868
   60MOL    H1117829   5.403   4.470   7.995  1.6237  1.4942  0.8602
   60MOL    H1217830   5.462   4.677   8.085 -0.8800 -1.8938 -0.9676
   60MOL    H1317831   5.558   4.805   0.108  1.1223  1.0267  1.6212
   60MOL    H1417832   5.682   4.683   0.291 -2.4413 -0.0624  1.2780
   60MOL    H1517833   5.708   4.437   0.285  0.9626 -2.2624 -1.2971
   60MOL    H1617834   5.286   4.395   0.055  0.0527 -1.4388  1.4443
   60MOL    C1717835   5.536   4.289   7.985 -0.1351  0.6397 -0.4975
   60MOL    C1817836   5.471   4.231   7.859 -0.5138 -0.2280 -0.6868
   60MOL    C1917837   5.466   4.326   7.738  0.6047  0.2376 -0.6956
   60MOL    C2017838   5.345   4.399   7.713 -0.5112 -0.2025 -0.0845
   60MOL    C2117839   5.348   4.501   7.619  0.0025  0.0500 -0.0534
   60MOL    C2217840   5.462   4.527   7.544 -0.1103 -0.6618  0.2126
   60MOL    C2317841   5.575   4.451   7.578  0.4841  0.1580  0.2974
   60MOL    N2417842   5.576   4.349   7.671  0.8687  0.7100 -0.4733
   60MOL    H2517843   5.581   4.221   8.058 -0.0417  2.3392  1.0583
   60MOL    H2617844   5.620   4.345   7.944  1.5569 -1.1577  0.4220
   60MOL    H2717845   5.364   4.226   7.880 -0.3263  0.2310  0.4251
   60MOL    H2817846   5.258   4.376   7.773 -0.3297 -1.6937 -0.3633
   60MOL    H2917847   5.256   4.552   7.596  0.5216  0.0628 -2.1856
   60MOL    H3017848   5.466   4.595   7.460  2.2864 -3.2088 -1.8326
   60MOL    H3117849   5.666   4.465   7.522 -0.9393  0.5033 -1.9968
   60MOL    C3217850   5.526   4.091   7.812 -0.3250 -0.0373  0.2264
   60MOL    C3317851   5.533   3.974   7.910 -0.6024 -0.4129 -0.0537
   60MOL    C3417852   5.395   3.922   7.947  0.2185  0.0959  1.0133
   60MOL    C3517853   5.340   3.934   8.075  0.1161 -0.6081 -0.2141
   60MOL    C3617854   5.211   3.887   8.104  0.5555 -0.6215 -0.2138
   60MOL    C3717855   5.143   3.824   7.998 -0.1604  0.5010  0.2638
   60MOL    C3817856   5.208   3.799   7.873 -0.1238 -0.1149 -0.2234
   60MOL    N3917857   5.329   3.857   7.848 -0.6315  0.0408  0.0721
   60MOL    H4017858   5.626   4.110   7.773  0.2367  0.5582  1.9052
   60MOL    H4117859   5.470   4.045   7.731  3.3115 -2.0904 -1.2208
   60MOL    H4217860   5.581   4.018   7.997  1.1968 -2.3938 -0.0037
   60MOL    H4317861   5.393   3.986   0.002 -0.7255 -1.1248  0.7098
   60MOL    H4417862   5.163   3.880   0.048 -0.2416 -2.1140 -0.6935
   60MOL    H4517863   5.039   3.795   7.995 -0.1081  0.4077 -1.1456
   60MOL    H4617864   5.161   3.755   7.786  0.1390 -0.0894 -0.3788
   60MOL    C4717865   5.629   3.868   7.852 -0.6187 -0.1439 -0.9924
   60MOL    C4817866   5.710   3.797   7.953 -0.0382  0.3415 -0.2450
   60MOL    C4917867   5.661   3.647   7.963  0.2279 -0.5894  0.2457
   60MOL    C5017868   5.640   3.557   7.851 -0.3160 -0.5165  0.1935
   60MOL    C5117869   5.622   3.419   7.873 -0.4803  0.3859 -0.1383
   60MOL    C5217870   5.604   3.379   8.003 -0.0679 -0.3656  0.0748
   60MOL    C5317871   5.609   3.475   8.106 -0.1979  1.0089  0.7542
   60MOL    N5417872   5.638   3.606   8.088 -0.0660 -0.3020 -0.4015
   60MOL    H5517873   5.706   3.909   7.786  0.6945  0.3411  0.7919
   60MOL    H5617874   5.573   3.799   7.790 -0.9353 -1.6982  0.9635
   60MOL    H5717875   5.687   3.839   8.051 -2.2967  0.8632 -0.9702
   60MOL    H5817876   5.639   3.589   7.748  2.9272  1.5414  0.7155
   60MOL    H5917877   5.613   3.350   7.790 -3.5259  1.0883 -0.4380
   60MOL    H6017878   5.597   3.275   8.029 -1.5902 -0.4458 -0.6085
   60MOL    H6117879   5.585   3.447   0.056 -0.0176  1.4525  0.9234
   60MOL    C6217880   5.864   3.791   7.923  0.5015 -0.2960  0.1308
   60MOL    C6317881   5.937   3.930   7.927 -0.0707  0.5735  1.0855
   60MOL    C6417882   5.910   4.013   8.057  0.1412  0.4108 -0.2324
   60MOL    C6517883   5.901   3.951   0.032 -1.0819 -0.8310  0.3697
   60MOL    C6617884   5.884   4.038   0.147  0.3243  0.5442  0.4081
   60MOL    C6717885   5.865   4.170   0.131  0.2556  0.7007 -0.4684
   60MOL    C6817886   5.881   4.222   0.000  0.2674  0.1754  0.7733
   60MOL    N6917887   5.900   4.144   8.041 -0.0348  0.0450  0.4689
   60MOL    H7017888   5.872   3.746   7.824  1.6985 -0.0466  0.1076
   60MOL    H7117889   5.910   3.731   8.002  0.5353  1.0066  1.1199
   60MOL    H7217890   5.894   3.991   7.847  0.7201  2.0858  1.7852
   60MOL    H7317891   5.908   3.843   0.039  3.4227 -0.6412  0.8253
   60MOL    H7417892   5.871   3.995   0.246 -0.8411  1.0680  0.4942
   60MOL    H7517893   5.841   4.229   0.218  0.0690  1.1611 -0.8262
   60MOL    H7617894   5.875   4.327   8.130  0.8976 -0.0816 -0.6660
   60MOL    C7717895   6.092   3.921   7.899  0.2188  0.9168 -0.0217
   60MOL    C7817896   6.161   4.056   7.886 -0.4278 -0.1244  0.9947
   60MOL    C7917897   6.305   4.047   7.921 -0.4213 -0.6396 -0.2306
   60MOL    C8017898   6.357   4.129   8.028  0.0496  0.3429  0.3751
   60MOL    C8117899   6.493   4.117   8.058 -0.8433  0.9389  0.2059
   60MOL    C8217900   6.570   4.026   7.987 -0.7300  0.4173  0.1336
   60MOL    C8317901   6.512   3.948   7.889  0.3409  0.1573  0.1868
   60MOL    N8417902   6.380   3.959   7.853 -0.4159  0.6614  0.1490
   60MOL    H8517903   6.117   3.873   7.804 -2.1250  1.7533 -1.1073
   60MOL    H8617904   6.143   3.870   7.980 -1.6348 -1.2923 -0.1999
   60MOL    H8717905   6.115   4.120   7.962 -4.2044 -0.8880 -0.5478
   60MOL    H8817906   6.287   4.195   8.076  2.0396  1.9123  1.1788
   60MOL    H8917907   6.537   4.186   8.129  0.3646  0.2096  0.1969
   60MOL    H9017908   6.670   4.015   8.028 -1.2052 -0.5357  1.0582
   60MOL    H9117909   6.541   3.855   7.841 -1.1117 -1.1596  1.7668
   60MOL    C9217910   6.134   4.126   7.746 -0.1202 -0.5369 -0.4955
   60MOL    C9317911   6.184   4.271   7.748 -0.6347 -0.7139  0.6913
   60MOL    C9417912   6.253   4.310   7.621 -0.4712  0.1403  0.5225
   60MOL    C9517913   6.384   4.358   7.627  0.1629  0.0019 -0.1662
   60MOL    C9617914   6.432   4.405   7.504 -0.2902 -0.3587  0.0964
   60MOL    C9717915   6.359   4.406   7.387  0.2146 -0.3340 -0.1388
   60MOL    C9817916   6.222   4.357   7.396 -0.0294 -0.7896  0.7238
   60MOL    N9917917   6.168   4.314   7.512  0.1219 -0.3305 -0.1403
   60MOL   H10017918   6.028   4.124   7.720  0.0142 -0.1751 -1.0770
   60MOL   H10117919   6.184   4.070   7.668  0.9850 -0.4805  0.1649
   60MOL   H10217920   6.275   4.275   7.808  0.7096  1.8035 -1.4087
   60MOL   H10317921   6.438   4.339   7.719 -1.4891  2.4618  1.3635
   60MOL   H10417922   6.533   4.442   7.508 -0.3550 -0.0710 -0.7972
   60MOL   H10517923   6.388   4.448   7.292 -1.7057 -1.0986 -1.1037
   60MOL   H10617924   6.157   4.365   7.310 -0.5984 -1.1700  1.1106
   60MOL   C10717925   6.086   4.372   7.803 -0.1928 -0.4141  0.2496
   60MOL   C10817926   6.123   4.512   7.859 -0.0445  0.6595  0.5002
   60MOL   C10917927   6.214   4.487   7.980 -0.1082 -0.1334  0.1851
   60MOL   C11017928   6.352   4.505   7.966  0.0800  0.8871 -0.0639
   60MOL   C11117929   6.427   4.504   8.084 -0.1613  0.9508  0.0932
   60MOL   C11217930   6.364   4.489   0.056  0.4008 -0.1447  0.0603
   60MOL   C11317931   6.226   4.474   0.055  0.1304 -0.1099 -0.4046
   60MOL   N11417932   6.149   4.478   8.099 -0.1822  0.5377  0.2875
   60MOL   H11517933   6.024   4.315   7.872 -1.0763  0.1723 -0.0597
   60MOL   H11617934   6.012   4.387   7.725  0.3446 -1.6862 -0.5203
   60MOL   H11717935   6.034   4.558   7.900  0.1930  0.5721  1.1231
   60MOL   H11817936   6.402   4.513   7.871 -0.8322  0.7578 -0.5634
   60MOL   H11917937   6.535   4.510   8.081 -0.0582 -0.0026  1.3073
   60MOL   H12017938   6.413   4.492   0.152  1.8541  0.1368 -0.6804
   60MOL   H12117939   6.181   4.461   0.152 -0.2891 -0.0266 -0.5836
   60MOL   C12217940   6.171   4.624   7.761 -0.3607 -0.5144 -0.1627
   60MOL   C12317941   6.073   4.650   7.647  0.0446  0.4690  0.6051
   60MOL   C12417942   5.948   4.716   7.702 -0.0647 -0.5260  0.5062
   60MOL   C12517943   5.823   4.653   7.717  0.6784  0.7855  0.4630
   60MOL   C12617944   5.708   4.721   7.763 -0.2101 -0.1568  0.3309
   60MOL   C12717945   5.725   4.853   7.808 -0.3437  0.5013  0.2387
   60MOL   C12817946   5.856   4.905   7.792  0.1581  0.1982 -0.2569
   60MOL   N12917947   5.957   4.846   7.741  0.0974 -0.3546  0.4314
   60MOL   H13017948   6.273   4.595   7.734 -0.5847 -1.5975  0.1371
   60MOL   H13117949   6.186   4.717   7.816  0.9064 -0.0593 -1.2390
   60MOL   H13217950   6.044   4.551   7.614  2.6581 -0.7338  1.7270
   60MOL   H13317951   5.803   4.550   7.691 -1.7683  1.4925 -0.5347
   60MOL   H13417952   5.608   4.682   7.775 -0.9585  1.6320  0.1862
   60MOL   H13517953   5.645   4.909   7.855  0.4766  0.8490  1.2341
   60MOL   H13617954   5.876   5.004   7.830  1.0624  0.4015 -1.2221
   60MOL   C13717955   6.142   4.717   7.527 -0.2538 -0.3409 -0.4745
   60MOL   C13817956   6.050   4.732   7.404  0.5562  0.3267  0.1304
   60MOL   C13917957   6.133   4.784   7.281  1.0110  0.2363 -0.7947
   60MOL   C14017958   6.110   4.923   7.242 -0.6242  0.5388  0.2132
   60MOL   C14117959   6.167   4.965   7.120 -0.2731  0.1694 -0.4673
   60MOL   C14217960   6.248   4.871   7.053 -0.1016  0.2279 -0.2957
   60MOL   C14317961   6.281   4.744   7.108  0.2074  0.0348 -0.6286
   60MOL   N14417962   6.219   4.697   7.222 -0.3169  0.1490  0.2139
   60MOL   H14517963   6.235   4.668   7.497  0.0418  0.2585 -0.5436
   60MOL   H14617964   6.171   4.817   7.560 -3.5797  1.1037 -1.7550
   60MOL   H14717965   5.979   4.806   7.440 -0.4053  0.5287 -2.0671
   60MOL   H14817966   6.025   4.977   7.282 -1.2649 -2.2723  2.8446
   60MOL   H14917967   6.148   5.060   7.072 -0.6904  0.2468 -0.1589
   60MOL   H15017968   6.302   4.912   6.968 -1.3777  2.3274 -0.1384
   60MOL   H15117969   6.359   4.684   7.063 -0.2680  0.8465 -2.5732
   60MOL   C15217970   5.975   4.606   7.364  0.1741  0.6627 -0.2955
   60MOL   C15317971   5.888   4.599   7.236 -0.1173  0.0122 -0.0982
   60MOL   C15417972   5.882   4.450   7.186  0.1730  0.0651  0.3600
   60MOL   C15517973   5.975   4.403   7.089 -0.0775 -0.6732 -0.6930
   60MOL   C15617974   5.987   4.268   7.064 -0.0451  0.1633  0.6704
   60MOL   C15717975   5.898   4.182   7.129  0.2204 -0.5923  0.2331
   60MOL   C15817976   5.817   4.235   7.229  0.2024 -0.2037  0.2288
   60MOL   N15917977   5.805   4.362   7.254  0.2532  0.3574 -0.1569
   60MOL   H16017978   5.922   4.554   7.444  1.1186  0.7823  0.4148
   60MOL   H16117979   6.055   4.537   7.341 -0.6176 -0.3161 -0.1528
   60MOL   H16217980   5.934   4.635   7.143  1.6440 -0.4442  0.5682
   60MOL   H16317981   6.050   4.465   7.042  0.2916 -0.7689 -0.2232
   60MOL   H16417982   6.050   4.232   6.984 -1.9030 -0.7914 -0.4176
   60MOL   H16517983   5.911   4.076   7.112  1.1073 -0.6937  1.5564
   60MOL   H16617984   5.752   4.165   7.279  0.4709  0.5389  1.6555
   60MOL   C16717985   5.751   4.650   7.259  0.1841  0.4429  0.2463
   60MOL   C16817986   5.648   4.637   7.138  0.0566 -0.4516 -0.0516
   60MOL   C16917987   5.513   4.653   7.195 -0.0529 -0.0237 -0.7756
   60MOL   C17017988   5.410   4.558   7.168 -0.2339 -0.4063  0.2420
   60MOL   C17117989   5.280   4.587   7.217 -0.1709 -0.4522  0.1574
   60MOL   C17217990   5.254   4.701   7.300  0.0967  0.4676 -0.0596
   60MOL   C17317991   5.359   4.791   7.314 -0.3733  0.3365 -0.0869
   60MOL   N17417992   5.490   4.762   7.281  0.2140 -0.6087  0.4145
   60MOL   H17517993   5.759   4.753   7.295  2.8077  0.0185  0.9452
   60MOL   H17617994   5.711   4.594   7.344  1.4886  0.3403  0.8089
   60MOL   H17717995   5.653   4.533   7.108  2.1166 -1.0224  2.0886
   60MOL   H17817996   5.417   4.466   7.112 -1.7202 -0.1970 -0.3115
   60MOL   H17917997   5.206   4.516   7.182  0.7309 -0.2988 -2.1010
   60MOL   H18017998   5.156   4.723   7.339  1.7822  3.1099  2.9664
   60MOL   H18117999   5.336   4.883   7.365  1.6101  0.8196 -0.0300
   60MOL   C18218000   5.675   4.713   7.008 -0.0206  0.9903 -0.1772
   60MOL   C18318001   5.712   4.629   6.884  0.0626  0.7101 -0.0363
   60MOL   C18418002   5.590   4.541   6.854  0.3955  0.4914 -0.6515
   60MOL   C18518003   5.594   4.402   6.855 -0.4872  0.4972 -0.6533
   60MOL   C18618004   5.479   4.336   6.807  0.1200  0.6497 -0.3900
   60MOL   C18718005   5.364   4.404   6.762 -0.1598  0.1269 -0.4979
   60MOL   C18818006   5.367   4.542   6.775  0.1198  0.8652  0.5892
   60MOL   N18918007   5.478   4.611   6.821  0.7031 -0.7991  0.5648
   60MOL   H19018008   5.753   4.788   7.021 -0.1796  1.1699 -0.2764
   60MOL   H19118009   5.587   4.775   6.993 -0.0196  1.0116 -0.0918
   60MOL   H19218010   5.791   4.557   6.906  2.7653  4.0856  1.8583
   60MOL   H19318011   5.690   4.361   6.880 -0.7699 -0.0931 -0.5107
   60MOL   H19418012   5.482   4.228   6.815  2.1168  0.7207  0.0967
   60MOL   H19518013   5.271   4.356   6.735 -0.2366  0.3018 -0.5440
   60MOL   H19618014   5.276   4.600   6.767 -0.4909  0.3474  3.0715
   60MOL   C19718015   5.738   4.719   6.763  0.1804  0.1874  0.5054
   60MOL   C19818016   5.882   4.779   6.738  0.4520  0.3355  0.1592
   60MOL   C19918017   5.990   4.669   6.729  0.2818 -0.0427  0.0569
   60MOL   C20018018   6.115   4.685   6.794  0.2070 -0.8459 -0.6835
   60MOL   C20118019   6.207   4.577   6.782 -0.1619 -0.2617 -0.2598
   60MOL   C20218020   6.173   4.465   6.702 -0.2435 -0.5606  0.4336
   60MOL   C20318021   6.055   4.470   6.632  0.2272 -0.2005 -0.7621
   60MOL   N20418022   5.962   4.563   6.651 -0.2866 -0.1281 -0.0830
   60MOL   H20518023   5.655   4.789   6.754  0.5727  0.6703  0.6416
   60MOL   H20618024   5.719   4.649   6.681  2.0255 -0.2276  0.4063
   60MOL   H20718025   5.911   4.834   6.828  0.0535  0.8251 -0.0131
   60MOL   H20818026   6.142   4.780   6.837 -0.9213  0.2606 -2.3525
   60MOL   H20918027   6.307   4.579   6.822  0.5936 -1.6437 -2.0321
   60MOL   H21018028   6.253   4.393   6.693 -0.2105 -0.4189 -0.3821
   60MOL   H21118029   6.034   4.388   6.564  1.5076 -2.7657  1.8020
   60MOL   C21218030   5.881   4.883   6.626 -0.6076 -0.5192  0.1428
   60MOL   C21318031   5.884   4.830   6.481  0.7469 -0.4618 -0.9033
   60MOL   C21418032   5.762   4.855   6.389 -0.1463 -0.6469  0.3832
   60MOL   C21518033   5.673   4.754   6.331  0.3072 -0.0859 -0.6240
   60MOL   C21618034   5.556   4.787   6.268  0.4905 -0.9871 -0.2614
   60MOL   C21718035   5.541   4.926   6.240 -0.2598 -0.6069  0.2677
   60MOL   C21818036   5.629   5.018   6.300  0.3381 -0.2979 -0.0306
   60MOL   N21918037   5.742   4.986   6.370  0.2602  0.5537 -0.2829
   60MOL   H22018038   5.961   4.955   6.645 -1.0715 -0.3019  1.2975
   60MOL   H22118039   5.797   4.950   6.643 -0.3705  0.1598 -1.2939
   60MOL   H22218040   5.868   4.723   6.496  0.2093 -0.4218 -1.1954
   60MOL   H22318041   5.689   4.648   6.343  1.1740 -0.0888 -1.7276
   60MOL   H22418042   5.496   4.712   6.218  1.4805 -1.5110 -0.6751
   60MOL   H22518043   5.454   4.960   6.186  0.1652  0.3305  0.1753
   60MOL   H22618044   5.618   5.125   6.294 -1.6777 -0.5339 -1.2870
   60MOL   C22718045   6.027   4.841   6.418 -0.0772 -0.2668 -0.7231
   60MOL   C22818046   6.045   4.767   6.282  0.6730 -0.4842 -0.3546
   60MOL   C22918047   6.184   4.793   6.217  1.0120  0.3165  0.5461
   60MOL   C23018048   6.193   4.850   6.094 -0.5722  0.0977 -0.8958
   60MOL   C23118049   6.317   4.886   6.040  0.4618  0.1283 -0.4039
   60MOL   C23218050   6.429   4.851   6.116  0.0972 -1.1346 -0.6025
   60MOL   C23318051   6.415   4.787   6.242 -0.3993  0.3300  0.2249
   60MOL   N23418052   6.293   4.763   6.296 -0.7648 -0.4070  0.0372
   60MOL   H23518053   6.095   4.808   6.497 -0.7524  3.4433  1.5503
   60MOL   H23618054   6.046   4.948   6.410  1.0206 -0.4455 -0.6287
   60MOL   H23718055   5.976   4.815   6.212  1.4116  1.2817  0.0935
   60MOL   H23818056   6.105   4.896   6.053 -0.4446  1.9594  0.8867
   60MOL   H23918057   6.317   4.945   5.950 -0.8017  1.7247  0.6279
   60MOL   H24018058   6.529   4.864   6.077 -0.5083 -1.0160 -2.1578
   60MOL   H24118059   6.500   4.757   6.302 -1.4677 -0.7021  1.2523
   60MOL   C24218060   6.011   4.612   6.287  0.1729 -0.5297  0.0759
   60MOL   C24318061   5.975   4.543   6.154 -0.1050 -0.0757  1.0583
   60MOL   C24418062   5.937   4.396   6.183  0.0912 -1.3498 -0.2358
   60MOL   C24518063   6.035   4.297   6.178  0.5533  0.5861 -0.0538
   60MOL   C24618064   5.996   4.170   6.221  0.0323 -0.5795  0.5330
   60MOL   C24718065   5.858   4.144   6.252 -0.0681  0.1493 -0.0988
   60MOL   C24818066   5.774   4.255   6.251 -0.0101 -0.3808 -0.9289
   60MOL   N24918067   5.809   4.380   6.228  0.6155 -0.1315 -0.3598
   60MOL   H25018068   5.936   4.592   6.363  2.3394 -2.0150  1.8713
   60MOL   H25118069   6.094   4.564   6.340  1.3141  2.8707  1.4962
   60MOL   H25218070   6.069   4.520   6.103 -0.8736  0.6522 -0.7265
   60MOL   H25318071   6.140   4.318   6.164  0.9718 -0.6467  1.1486
   60MOL   H25418072   6.068   4.089   6.218 -0.5802 -1.0589 -2.2648
   60MOL   H25518073   5.821   4.047   6.281 -0.8229  0.3817 -0.2579
   60MOL   H25618074   5.673   4.253   6.288  1.2541  0.9386  2.7941
   60MOL   C25718075   5.881   4.627   6.064 -0.0061 -0.0031  0.0137
   60MOL   C25818076   5.812   4.559   5.946 -0.3118 -0.5212  0.1441
   60MOL   C25918077   5.705   4.644   5.891 -0.0088 -0.2753  0.1822
   60MOL   C26018078   5.568   4.599   5.888  0.2593 -0.1573  0.2739
   60MOL   C26118079   5.472   4.679   5.828  0.7083  0.0940  0.1696
   60MOL   C26218080   5.514   4.802   5.776 -0.7300  0.1327 -0.0846
   60MOL   C26318081   5.647   4.844   5.794 -0.1979  0.2074  0.1985
   60MOL   N26418082   5.745   4.763   5.837  0.2688 -0.3351 -0.6746
   60MOL   H26518083   5.937   4.712   6.028 -0.9337  0.3966 -0.5129
   60MOL   H26618084   5.803   4.664   6.130  1.4004 -0.3310  1.8975
   60MOL   H26718085   5.759   4.477   5.995 -0.4537 -1.1111 -0.9791
   60MOL   H26818086   5.538   4.497   5.907 -0.4541  0.1619  0.9082
   60MOL   H26918087   5.371   4.639   5.824  1.0567 -0.7543 -0.2975
   60MOL   H27018088   5.462   4.876   5.717  0.3273  1.7567  0.9590
   60MOL   H27118089   5.669   4.942   5.755  1.1798 -0.3034 -0.3547
   60MOL   C27218090   5.916   4.500   5.851  0.3321 -0.1732 -0.5146
   60MOL   C27318091   5.876   4.409   5.727  0.1314 -0.4462 -0.0076
   60MOL   C27418092   5.974   4.422   5.614 -0.0019  0.2045 -0.1636
   60MOL   C27518093   5.935   4.438   5.482 -0.5386 -0.1454 -0.2885
   60MOL   C27618094   6.032   4.424   5.382 -0.0882 -1.0263 -0.2989
   60MOL   C27718095   6.171   4.420   5.415 -0.6024  0.5633 -0.2861
   60MOL   C27818096   6.199   4.433   5.550 -0.0219  0.9139 -0.5769
   60MOL   N27918097   6.105   4.424   5.649  0.2276  0.8439 -0.2928
   60MOL   H28018098   5.987   4.449   5.916  0.4320  1.2941  0.5520
   60MOL   H28118099   5.969   4.588   5.815  2.2238 -1.2049 -0.3077
   60MOL   H28218100   5.783   4.457   5.696  0.1396  1.0474  2.1605
   60MOL   H28318101   5.828   4.429   5.467 -0.5693  0.8047 -0.6595
   60MOL   H28418102   6.006   4.414   5.278  0.8754 -3.1037 -0.3607
   60MOL   H28518103   6.243   4.413   5.335 -1.5162 -0.5866 -1.0395
   60MOL   H28618104   6.301   4.429   5.586 -0.7250 -2.8416  1.3274
   60MOL   C28718105   5.852   4.259   5.752  0.3363  0.0987 -0.9318
   60MOL   C28818106   5.763   4.232   5.873  0.4468 -0.6699 -0.7438
   60MOL   C28918107   5.700   4.092   5.886 -0.4716 -0.5969  0.3083
   60MOL   C29018108   5.777   3.977   5.911 -0.4056 -0.8509  0.3150
   60MOL   C29118109   5.721   3.852   5.892  0.0319 -0.1073 -0.4624
   60MOL   C29218110   5.586   3.843   5.863  0.1583  0.0028  0.1387
   60MOL   C29318111   5.513   3.963   5.845  0.3082 -0.1324  0.9024
   60MOL   N29418112   5.572   4.087   5.848  0.3720  0.5909  0.3746
   60MOL   H29518113   5.947   4.207   5.767  1.2548  2.2203  0.8417
   60MOL   H29618114   5.799   4.220   5.665 -3.0805 -0.1214  1.1238
   60MOL   H29718115   5.669   4.287   5.877 -1.2413 -3.4074 -1.2810
   60MOL   H29818116   5.883   3.977   5.931  0.1683  2.5757 -2.2166
   60MOL   H29918117   5.773   3.759   5.912  0.8444  0.5447  0.5404
   60MOL   H30018118   5.539   3.746   5.859  0.2160  0.0168 -1.2295
   60MOL   H30118119   5.409   3.961   5.817  0.8608 -1.4797 -1.1824
   60MOL   H30218120   5.819   4.256   5.964 -1.1488 -0.2489  0.1504
   61MOL     C118121   6.510   5.659   2.361 -0.2574  0.0680  0.5179
   61MOL     C218122   6.456   5.720   2.491 -0.0576  0.6189  0.6042
   61MOL     C318123   6.526   5.857   2.521  0.6124 -0.2212  0.9395
   61MOL     C418124   6.470   5.986   2.498 -0.7488 -0.2213  0.3142
   61MOL     C518125   6.546   6.101   2.514  0.4912  0.1841  0.8526
   61MOL     C618126   6.674   6.079   2.566 -0.4415  0.2391  0.0251
   61MOL     C718127   6.726   5.949   2.593 -0.1950 -0.6575 -0.3775
   61MOL     N818128   6.651   5.836   2.565 -0.4489 -0.0029  0.3690
   61MOL     H918129   6.618   5.657   2.350 -0.0276  2.0068  2.1851
   61MOL    H1018130   6.470   5.561   2.336 -1.7411  0.4175  1.4378
   61MOL    H1118131   6.483   5.648   2.568 -0.2414  0.1870  0.2691
   61MOL    H1218132   6.368   5.985   2.463 -1.2620 -3.6113  1.6698
   61MOL    H1318133   6.525   6.204   2.489 -0.6680  0.1939  1.8328
   61MOL    H1418134   6.738   6.166   2.569  1.0178 -0.7447 -1.8496
   61MOL    H1518135   6.828   5.941   2.625 -0.5905 -1.0158  0.8114
   61MOL    H1618136   6.491   5.732   2.282 -0.5006 -0.9884 -0.4116
   61MOL    C1718137   6.304   5.730   2.483  0.2900 -0.6665  0.0409
   61MOL    C1818138   6.234   5.616   2.552  0.3049  0.3739 -0.4802
   61MOL    C1918139   6.099   5.662   2.607  0.0569  0.2194 -0.6985
   61MOL    C2018140   6.067   5.670   2.743  0.1156  0.7498  0.2474
   61MOL    C2118141   5.940   5.707   2.786 -0.1360 -0.3374  0.2503
   61MOL    C2218142   5.851   5.735   2.680 -0.3315 -0.0409  0.0275
   61MOL    C2318143   5.888   5.728   2.548 -0.0803  0.4996 -0.4494
   61MOL    N2418144   6.009   5.689   2.512  0.3057  0.1218 -0.0621
   61MOL    H2518145   6.263   5.779   2.394 -1.2090 -1.2049  0.4130
   61MOL    H2618146   6.281   5.807   2.557  0.4319  0.6753 -1.2788
   61MOL    H2718147   6.296   5.585   2.637 -1.0282  0.9684  0.7345
   61MOL    H2818148   6.151   5.652   2.809 -1.1204 -0.5130  1.4889
   61MOL    H2918149   5.910   5.719   2.889 -1.0088 -1.3956  0.1355
   61MOL    H3018150   5.752   5.770   2.703  0.2459  0.5951  1.6408
   61MOL    H3118151   5.818   5.738   2.466 -0.8530  0.3545  0.1859
   61MOL    C3218152   6.213   5.484   2.470  0.0584 -0.3910 -0.2349
   61MOL    C3318153   6.238   5.350   2.551  0.1071  0.1415  0.4609
   61MOL    C3418154   6.138   5.333   2.663  1.1495  0.2784  0.3703
   61MOL    C3518155   6.171   5.293   2.785  0.3601 -0.0961 -0.4190
   61MOL    C3618156   6.079   5.289   2.889 -0.0504 -0.4021  0.3168
   61MOL    C3718157   5.944   5.323   2.846  0.1337  0.4963 -0.7693
   61MOL    C3818158   5.918   5.357   2.713 -0.3168 -0.1369  0.2772
   61MOL    N3918159   6.011   5.361   2.621 -0.2599  0.0899 -0.1594
   61MOL    H4018160   6.297   5.483   2.400  0.7492 -1.4467  0.5799
   61MOL    H4118161   6.120   5.477   2.414 -0.7457  0.8680  0.9193
   61MOL    H4218162   6.339   5.354   2.593  0.3826 -0.7659 -0.0923
   61MOL    H4318163   6.274   5.265   2.800  0.7971  0.7389 -1.7793
   61MOL    H4418164   6.096   5.256   2.990  0.7978  0.0971  0.3386
   61MOL    H4518165   5.867   5.319   2.922  1.6972  0.6816  0.8650
   61MOL    H4618166   5.820   5.381   2.675  0.6411  0.7148 -1.7089
   61MOL    C4718167   6.218   5.232   2.450  0.9897  0.0550 -0.0921
   61MOL    C4818168   6.316   5.231   2.328 -0.0144 -0.1172  0.2313
   61MOL    C4918169   6.461   5.203   2.383  0.4896 -0.7889  0.3771
   61MOL    C5018170   6.570   5.291   2.352  0.6726  0.3343 -0.0224
   61MOL    C5118171   6.695   5.268   2.407 -0.4834 -0.7203 -0.3131
   61MOL    C5218172   6.708   5.163   2.500  0.5938  0.0517  0.2401
   61MOL    C5318173   6.597   5.076   2.519  0.2202 -0.0573  0.2266
   61MOL    N5418174   6.475   5.096   2.460  0.3122  0.0724 -0.0832
   61MOL    H5518175   6.123   5.251   2.401  1.8033  2.2800 -0.8835
   61MOL    H5618176   6.213   5.136   2.502 -0.7125 -0.4387 -1.1126
   61MOL    H5718177   6.319   5.332   2.287  2.7059 -0.2409  0.0277
   61MOL    H5818178   6.558   5.380   2.292  0.6862  0.9530  0.8884
   61MOL    H5918179   6.773   5.339   2.385  0.4551 -1.6691 -0.1077
   61MOL    H6018180   6.801   5.158   2.555  0.9928  0.0885 -0.4134
   61MOL    H6118181   6.597   4.999   2.595 -0.2080  1.3070  1.6541
   61MOL    C6218182   6.289   5.131   2.212  0.1167 -0.3719  0.6303
   61MOL    C6318183   6.158   5.151   2.134  0.1502 -0.0152 -0.0361
   61MOL    C6418184   6.134   5.283   2.068  0.4411  0.4938 -0.7222
   61MOL    C6518185   6.027   5.371   2.105 -0.2977 -0.4474 -0.1173
   61MOL    C6618186   6.017   5.498   2.044 -0.5431 -0.4431 -0.3523
   61MOL    C6718187   6.114   5.534   1.947  0.2694  0.5656 -0.4341
   61MOL    C6818188   6.207   5.437   1.898  0.0963  0.5877  0.5216
   61MOL    N6918189   6.217   5.311   1.963  0.2085  0.0453 -0.5652
   61MOL    H7018190   6.306   5.031   2.251 -0.0338  0.1060  1.9389
   61MOL    H7118191   6.369   5.164   2.146  0.3175  0.3186  1.2047
   61MOL    H7218192   6.093   5.149   2.221 -0.0968  0.1794 -0.2166
   61MOL    H7318193   5.949   5.340   2.173 -1.6245  1.8576 -0.5046
   61MOL    H7418194   5.934   5.563   2.064 -1.8130 -1.9384 -0.6591
   61MOL    H7518195   6.110   5.634   1.906  0.7136 -0.6024 -3.4578
   61MOL    H7618196   6.286   5.452   1.826 -0.4611 -1.3843 -0.5339
   61MOL    C7718197   6.122   5.035   2.034 -0.4752 -0.5657 -0.3455
   61MOL    C7818198   6.084   4.891   2.086 -0.8644 -0.5516 -0.2352
   61MOL    C7918199   6.003   4.908   2.216 -0.0669 -0.3343  0.8015
   61MOL    C8018200   6.066   4.868   2.340 -0.1463 -0.0319  0.5490
   61MOL    C8118201   6.006   4.893   2.463 -0.4505  0.2783  0.6951
   61MOL    C8218202   5.888   4.966   2.458  0.5348 -0.4622  0.6472
   61MOL    C8318203   5.835   5.007   2.333  0.2576  0.0725  0.2750
   61MOL    N8418204   5.884   4.976   2.213 -0.2148  0.1132 -0.4822
   61MOL    H8518205   6.181   5.037   1.943 -2.2872 -0.3130 -1.5385
   61MOL    H8618206   6.029   5.077   1.996  0.3359  3.4942  1.8434
   61MOL    H8718207   6.181   4.842   2.097 -0.3032  1.0300  2.1512
   61MOL    H8818208   6.153   4.804   2.329  1.4963  1.7209  2.7917
   61MOL    H8918209   6.034   4.851   2.558 -1.0438 -2.7549 -0.4104
   61MOL    H9018210   5.842   4.988   2.553  2.1033  1.3955  0.9992
   61MOL    H9118211   5.739   5.056   2.339  0.5923  0.7652  0.1474
   61MOL    C9218212   6.008   4.805   1.982 -0.0322 -0.5705 -0.1219
   61MOL    C9318213   6.090   4.737   1.868  0.1262 -0.6515  0.1372
   61MOL    C9418214   6.159   4.609   1.922 -0.1208  0.3709 -0.5676
   61MOL    C9518215   6.292   4.589   1.904 -0.3489 -0.6869 -0.6709
   61MOL    C9618216   6.353   4.471   1.944  0.7421 -0.1000 -0.4464
   61MOL    C9718217   6.266   4.374   1.999 -0.1853 -0.2207  0.7732
   61MOL    C9818218   6.132   4.402   2.021  0.5532 -0.4721 -0.1122
   61MOL    N9918219   6.078   4.517   1.980  0.1867 -0.5179  0.0104
   61MOL   H10018220   5.939   4.874   1.934  1.9995  1.3362 -0.3749
   61MOL   H10118221   5.951   4.733   2.040  3.3259 -2.1179  1.3716
   61MOL   H10218222   6.159   4.813   1.834  0.4201 -1.1295 -0.3363
   61MOL   H10318223   6.356   4.662   1.857  1.0701 -1.9249 -0.7041
   61MOL   H10418224   6.457   4.460   1.919  0.3924 -1.3886 -1.3967
   61MOL   H10518225   6.307   4.278   2.028  1.1880  0.2222  0.3042
   61MOL   H10618226   6.073   4.325   2.069  1.1861 -0.7839  0.1719
   61MOL   C10718227   6.017   4.682   1.739  0.1043  0.1030  0.0723
   61MOL   C10818228   5.952   4.793   1.658  0.6554 -0.7650 -0.3120
   61MOL   C10918229   6.054   4.896   1.636 -0.7078  0.3922  0.4013
   61MOL   C11018230   6.048   5.028   1.688 -0.5092 -0.1144  0.0810
   61MOL   C11118231   6.158   5.120   1.666 -0.0290  0.0988 -0.0485
   61MOL   C11218232   6.274   5.072   1.595  0.1982 -0.4339  0.4910
   61MOL   C11318233   6.269   4.941   1.550 -0.2545  0.2343  0.0091
   61MOL   N11418234   6.160   4.860   1.558 -0.1936 -1.0252  0.1476
   61MOL   H11518235   5.940   4.610   1.765  0.6463 -0.9143 -1.0955
   61MOL   H11618236   6.099   4.636   1.684  0.4536  0.1658  0.5459
   61MOL   H11718237   5.883   4.848   1.721  0.9344 -1.1301  0.3270
   61MOL   H11818238   5.963   5.052   1.750 -0.9782 -0.3485 -0.4695
   61MOL   H11918239   6.161   5.222   1.702  1.6334  0.6639 -1.7062
   61MOL   H12018240   6.352   5.147   1.596 -0.6651  0.4624  2.6518
   61MOL   H12118241   6.355   4.908   1.493 -0.7537 -1.1616  0.0351
   61MOL   C12218242   5.879   4.737   1.535 -0.4043  0.2121 -0.0119
   61MOL   C12318243   5.758   4.813   1.491 -0.1321 -0.0878  0.0389
   61MOL   C12418244   5.766   4.847   1.340 -0.0814 -0.1426  0.1680
   61MOL   C12518245   5.780   4.977   1.293  0.4188 -0.4107  0.2640
   61MOL   C12618246   5.786   5.011   1.155 -0.1469 -0.1720  0.6323
   61MOL   C12718247   5.777   4.901   1.071  0.3016  0.1746 -0.5002
   61MOL   C12818248   5.757   4.773   1.121 -0.1957 -0.4461  0.4757
   61MOL   N12918249   5.758   4.741   1.251 -0.1772  0.4072  0.1511
   61MOL   H13018250   5.860   4.632   1.555 -0.6213  0.4033  0.8389
   61MOL   H13118251   5.946   4.736   1.449 -0.4875  0.4126 -0.0791
   61MOL   H13218252   5.764   4.916   1.527 -1.2721 -0.2749  0.7813
   61MOL   H13318253   5.789   5.055   1.368 -1.3712  0.2319 -0.1808
   61MOL   H13418254   5.804   5.114   1.129 -0.4125 -0.3203 -0.1446
   61MOL   H13518255   5.774   4.908   0.963 -0.9171 -1.8241 -0.6084
   61MOL   H13618256   5.728   4.695   1.052 -0.2765 -0.1201  0.1410
   61MOL   C13718257   5.621   4.764   1.540 -0.6519  0.2796  0.5081
   61MOL   C13818258   5.582   4.741   1.690  0.3895  1.0683 -0.2303
   61MOL   C13918259   5.570   4.873   1.772 -0.4085 -0.2426 -0.7605
   61MOL   C14018260   5.485   4.978   1.736 -0.5799 -0.4376  0.3313
   61MOL   C14118261   5.469   5.083   1.835 -0.2991  0.6950  0.1159
   61MOL   C14218262   5.549   5.084   1.949 -0.1292  0.1042  0.1734
   61MOL   C14318263   5.652   4.986   1.958 -0.3693  0.1768 -0.2648
   61MOL   N14418264   5.660   4.881   1.876 -0.4136 -0.2728  0.0924
   61MOL   H14518265   5.612   4.664   1.497 -2.4282  0.8726 -0.5498
   61MOL   H14618266   5.539   4.815   1.489 -2.2814 -2.2818  0.4677
   61MOL   H14718267   5.673   4.694   1.726  0.7657 -0.8393 -3.4264
   61MOL   H14818268   5.418   4.979   1.652 -0.4898 -0.1537  0.2622
   61MOL   H14918269   5.384   5.148   1.822 -0.6384  1.1147  3.8530
   61MOL   H15018270   5.537   5.150   2.033  1.0093 -1.3733  1.5099
   61MOL   H15118271   5.716   4.987   2.044 -0.5988 -0.9615 -0.0705
   61MOL   C15218272   5.458   4.646   1.700 -0.1577 -0.4770  0.4017
   61MOL   C15318273   5.391   4.626   1.842 -0.3015 -0.4655 -0.2177
   61MOL   C15418274   5.241   4.660   1.828  0.1501 -0.5662 -0.2450
   61MOL   C15518275   5.187   4.782   1.878 -0.9990  0.2183 -0.5934
   61MOL   C15618276   5.049   4.801   1.863  0.5199  0.4097 -0.3167
   61MOL   C15718277   4.977   4.711   1.792  0.5566  0.0282  0.5029
   61MOL   C15818278   5.045   4.605   1.732 -0.4925 -0.9175 -0.1656
   61MOL   N15918279   5.175   4.573   1.748  0.0854  0.3891 -0.0924
   61MOL   H16018280   5.467   4.551   1.648 -1.1475 -0.2182 -0.2510
   61MOL   H16118281   5.387   4.703   1.641 -0.8250 -1.6261  0.0878
   61MOL   H16218282   5.426   4.701   1.914  0.8369 -1.3950  0.2070
   61MOL   H16318283   5.251   4.850   1.933 -0.8578 -0.3619 -0.0397
   61MOL   H16418284   5.003   4.891   1.901 -0.5079  0.4434 -1.6101
   61MOL   H16518285   4.871   4.714   1.773  0.5837  1.4429  0.5648
   61MOL   H16618286   4.994   4.544   1.659  0.7033 -2.1018 -0.0365
   61MOL   C16718287   5.410   4.489   1.896 -0.9258  0.2255  0.0106
   61MOL   C16818288   5.556   4.445   1.942 -0.3969  0.4698 -0.2967
   61MOL   C16918289   5.593   4.502   2.076  0.6062 -0.1894  0.0696
   61MOL   C17018290   5.713   4.579   2.094 -0.4736 -0.3875 -0.1781
   61MOL   C17118291   5.739   4.631   2.227 -0.0826  0.4749  0.4830
   61MOL   C17218292   5.653   4.601   2.326  0.2281 -0.4077 -0.8934
   61MOL   C17318293   5.545   4.519   2.300  0.4446 -0.3265 -0.0360
   61MOL   N17418294   5.507   4.481   2.175 -0.5163  0.7495 -0.1564
   61MOL   H17518295   5.380   4.415   1.823 -1.2520 -1.4031  1.7605
   61MOL   H17618296   5.338   4.473   1.976 -0.6704 -3.4655 -0.4090
   61MOL   H17718297   5.625   4.475   1.862  1.3610 -1.4659  0.4325
   61MOL   H17818298   5.790   4.585   2.018  2.8168 -2.2347  2.8303
   61MOL   H17918299   5.837   4.673   2.244  0.1174  0.1754  0.0940
   61MOL   H18018300   5.677   4.632   2.427 -2.4815 -0.7084 -0.1150
   61MOL   H18118301   5.487   4.490   2.387  0.4129 -0.4765 -0.1072
   61MOL   C18218302   5.582   4.293   1.960 -0.3116  0.8493  0.4645
   61MOL   C18318303   5.587   4.210   1.836 -0.6854 -0.1204 -0.0167
   61MOL   C18418304   5.697   4.251   1.738 -0.7528 -0.7988 -0.4207
   61MOL   C18518305   5.669   4.316   1.614 -0.5059  0.0767 -0.7825
   61MOL   C18618306   5.773   4.356   1.528 -0.2755 -0.4526 -0.1563
   61MOL   C18718307   5.906   4.323   1.566  0.0473  0.5630  0.5043
   61MOL   C18818308   5.925   4.263   1.692 -0.7496  0.2108 -0.8775
   61MOL   N18918309   5.827   4.230   1.774 -0.0696 -0.4785 -0.1690
   61MOL   H19018310   5.496   4.249   2.011 -1.4840 -0.7808 -2.7660
   61MOL   H19118311   5.663   4.264   2.027 -1.7535 -2.4840  0.8425
   61MOL   H19218312   5.496   4.234   1.781 -0.3737 -3.4299 -2.0806
   61MOL   H19318313   5.567   4.343   1.592 -0.2827  1.6433  0.0249
   61MOL   H19418314   5.756   4.413   1.438 -0.6519 -0.7936 -0.3048
   61MOL   H19518315   5.985   4.340   1.495 -1.0984  0.7633 -0.7454
   61MOL   H19618316   6.025   4.255   1.733 -1.1627  0.2096  0.1519
   61MOL   C19718317   5.576   4.055   1.878 -0.1984  0.1600 -0.2764
   61MOL   C19818318   5.441   4.013   1.952  0.6719  0.0731  0.4412
   61MOL   C19918319   5.314   4.061   1.884 -0.1040 -0.0542 -0.6904
   61MOL   C20018320   5.232   4.168   1.936 -0.4710  0.3788  0.1428
   61MOL   C20118321   5.128   4.216   1.858  0.7130  0.5119 -0.5489
   61MOL   C20218322   5.115   4.157   1.734  0.2291 -0.4964 -0.6258
   61MOL   C20318323   5.196   4.046   1.697  0.8515  0.2937  0.1003
   61MOL   N20418324   5.294   3.999   1.767 -1.0494 -0.5258  0.1464
   61MOL   H20518325   5.659   4.027   1.943 -0.0745  1.0296 -0.0609
   61MOL   H20618326   5.570   3.993   1.788 -1.5405 -3.0330  1.8811
   61MOL   H20718327   5.425   4.063   2.047 -1.5155 -2.1398  1.3081
   61MOL   H20818328   5.262   4.210   2.031 -1.2057  1.8566 -0.2731
   61MOL   H20918329   5.078   4.308   1.885  2.7460  1.1173  1.4054
   61MOL   H21018330   5.031   4.191   1.675 -1.1586 -2.5512  0.1395
   61MOL   H21118331   5.184   3.996   1.602  2.1184  1.7698 -0.8745
   61MOL   C21218332   5.438   3.856   1.986  0.2723 -0.2160  0.0202
   61MOL   C21318333   5.332   3.816   2.090 -1.2338 -0.0211  0.0141
   61MOL   C21418334   5.262   3.683   2.051 -0.4742  0.0244 -0.0912
   61MOL   C21518335   5.124   3.674   2.033  0.1388  0.1520 -0.3620
   61MOL   C21618336   5.077   3.550   1.983 -0.8100  0.3675  0.2741
   61MOL   C21718337   5.165   3.441   1.967  0.1490 -0.3778  0.5016
   61MOL   C21818338   5.303   3.465   1.989  0.3848  0.8622 -0.0300
   61MOL   N21918339   5.346   3.578   2.037  0.8921 -0.0042  0.1189
   61MOL   H22018340   5.533   3.805   1.999  0.1476 -0.0804  1.5833
   61MOL   H22118341   5.417   3.816   1.887 -0.8592  2.1301 -0.7169
   61MOL   H22218342   5.254   3.892   2.093  0.7256  1.9586  2.1398
   61MOL   H22318343   5.060   3.757   2.058 -0.2219 -0.4521  0.7553
   61MOL   H22418344   4.973   3.532   1.960 -0.9452  0.1108  1.0642
   61MOL   H22518345   5.127   3.351   1.921 -1.3026  0.1951  0.5392
   61MOL   H22618346   5.371   3.382   1.989 -1.5291 -0.7520  0.2431
   61MOL   C22718347   5.395   3.811   2.227  0.0796 -0.3246 -0.0179
   61MOL   C22818348   5.461   3.935   2.290 -0.2977 -0.1286 -0.1974
   61MOL   C22918349   5.354   4.035   2.337 -0.3914 -0.0887  0.2608
   61MOL   C23018350   5.369   4.169   2.300  0.3255  0.5001 -0.6842
   61MOL   C23118351   5.274   4.266   2.346 -1.1273  0.0458 -0.2307
   61MOL   C23218352   5.170   4.216   2.424 -0.4160 -0.4907 -0.4942
   61MOL   C23318353   5.166   4.079   2.459  0.6808 -0.9078  0.5346
   61MOL   N23418354   5.264   3.993   2.428  0.0105  0.0917 -0.3077
   61MOL   H23518355   5.476   3.740   2.210  0.2478  0.2621 -1.8019
   61MOL   H23618356   5.334   3.777   2.311 -0.7778 -0.7652 -0.8136
   61MOL   H23718357   5.531   3.978   2.218 -1.0161  1.6667  0.1324
   61MOL   H23818358   5.458   4.196   2.245  1.0899 -1.6602 -0.5322
   61MOL   H23918359   5.285   4.371   2.326 -3.5733  0.1762 -1.0382
   61MOL   H24018360   5.103   4.283   2.475  0.3597  0.3975 -0.6301
   61MOL   H24118361   5.084   4.041   2.518 -0.4226 -1.2709 -1.1920
   61MOL   C24218362   5.567   3.915   2.405  0.3039  0.1373 -0.1199
   61MOL   C24318363   5.710   3.875   2.374  1.1796  0.0287  0.1090
   61MOL   C24418364   5.793   3.997   2.350  0.2194 -0.0690  1.1258
   61MOL   C24518365   5.812   4.032   2.215  0.2203 -0.3341  0.2263
   61MOL   C24618366   5.866   4.160   2.195 -0.0771  0.2065 -0.3873
   61MOL   C24718367   5.904   4.244   2.305 -0.4641  0.6730  0.9113
   61MOL   C24818368   5.878   4.192   2.432 -0.3541  0.3024 -0.2197
   61MOL   N24918369   5.828   4.071   2.458 -0.3847 -0.1160  0.0197
   61MOL   H25018370   5.521   3.837   2.466  1.2251  1.1632  1.9302
   61MOL   H25118371   5.575   4.000   2.473 -2.5860  0.0536  0.4098
   61MOL   H25218372   5.701   3.812   2.285 -2.9774  0.6004  0.0641
   61MOL   H25318373   5.768   3.977   2.133 -2.2064 -1.4117  2.2009
   61MOL   H25418374   5.891   4.183   2.093 -1.1568 -0.9458 -0.9314
   61MOL   H25518375   5.947   4.342   2.292 -0.9810  0.6643 -1.0039
   61MOL   H25618376   5.902   4.247   2.522  0.4041  0.5760 -0.5866
   61MOL   C25718377   5.778   3.790   2.483 -0.1284  1.1475 -0.5174
   61MOL   C25818378   5.733   3.637   2.501  0.3649  0.0405 -0.1526
   61MOL   C25918379   5.737   3.557   2.366  0.3683  0.0472 -0.0125
   61MOL   C26018380   5.856   3.533   2.293 -0.4398 -0.0462  0.1071
   61MOL   C26118381   5.854   3.461   2.173  0.3084 -0.2599  0.7207
   61MOL   C26218382   5.728   3.427   2.122  0.7039 -0.0311 -0.4226
   61MOL   C26318383   5.612   3.459   2.193  0.3044  0.0694 -0.2761
   61MOL   N26418384   5.613   3.527   2.314 -0.1838  1.1652  0.4567
   61MOL   H26518385   5.759   3.836   2.580  2.6496  0.9648  0.1458
   61MOL   H26618386   5.886   3.804   2.475 -0.0532  0.8363 -0.0575
   61MOL   H26718387   5.629   3.632   2.533  0.9602  0.6495  2.0015
   61MOL   H26818388   5.952   3.574   2.322 -0.0628  0.1233 -1.3664
   61MOL   H26918389   5.947   3.441   2.123  0.2433  0.6807  0.2107
   61MOL   H27018390   5.713   3.385   2.023 -1.5945  0.7418 -0.4418
   61MOL   H27118391   5.518   3.422   2.156  0.7505 -1.0132 -0.3348
   61MOL   C27218392   5.808   3.571   2.615  0.0411  0.0418  0.1506
   61MOL   C27318393   5.730   3.455   2.699  0.6510  0.1706  0.4358
   61MOL   C27418394   5.834   3.360   2.768  0.5968 -0.0415  0.4090
   61MOL   C27518395   5.837   3.222   2.733  0.6370  0.1486  0.2325
   61MOL   C27618396   5.933   3.144   2.800  1.3024 -0.1104  0.6008
   61MOL   C27718397   6.022   3.199   2.892  0.4249  0.1896  0.0851
   61MOL   C27818398   6.019   3.337   2.922 -0.2102 -0.7751  0.6391
   61MOL   N27918399   5.918   3.412   2.860 -0.1055  0.0558  0.3785
   61MOL   H28018400   5.838   3.642   2.692  1.0368  0.7903 -0.9074
   61MOL   H28118401   5.901   3.531   2.573 -0.4848 -0.0156 -0.9750
   61MOL   H28218402   5.691   3.394   2.617  0.0974  1.9763 -0.6783
   61MOL   H28318403   5.777   3.167   2.662  0.6285 -0.8036  0.9564
   61MOL   H28418404   5.942   3.045   2.760  3.4265 -0.2900  1.4252
   61MOL   H28518405   6.085   3.128   2.942 -1.4415 -2.0643 -0.6953
   61MOL   H28618406   6.079   3.387   2.997 -0.1279  2.0478 -1.2578
   61MOL   C28718407   5.625   3.519   2.791  0.6518  0.1185  0.2111
   61MOL   C28818408   5.548   3.413   2.873  0.0361 -0.0712 -0.6291
   61MOL   C28918409   5.443   3.487   2.954  0.3605 -0.1657  0.0921
   61MOL   C29018410   5.466   3.527   3.090  0.6657 -0.3809  0.3321
   61MOL   C29118411   5.359   3.601   3.150  0.4018  0.4740 -0.3196
   61MOL   C29218412   5.241   3.623   3.078  0.3130  0.6971 -0.5592
   61MOL   C29318413   5.236   3.582   2.940  0.4666 -0.5369 -0.6636
   61MOL   N29418414   5.333   3.515   2.882 -0.1613 -0.4773 -0.0336
   61MOL   H29518415   5.562   3.579   2.727  1.2533 -0.8514 -1.3138
   61MOL   H29618416   5.674   3.582   2.866 -0.3462  0.9866  0.1299
   61MOL   H29718417   5.620   3.368   2.941 -0.0308  0.2092 -0.3731
   61MOL   H29818418   5.558   3.495   3.136  0.0687 -0.8349  1.2054
   61MOL   H29918419   5.368   3.638   3.251  0.9910  0.3599 -0.3261
   61MOL   H30018420   5.163   3.674   3.132 -1.4296 -0.0848 -2.2761
   61MOL   H30118421   5.151   3.618   2.883  0.4799  2.7644  1.2884
   61MOL   H30218422   5.509   3.332   2.810 -0.5329  0.9953 -1.6666
   62MOL     C118423   7.042   2.412   7.689  0.4383  0.0054 -0.5744
   62MOL     C218424   7.078   2.347   7.551 -0.2759  0.5117 -0.6688
   62MOL     C318425   7.207   2.401   7.488  0.0220  0.2463  0.4693
   62MOL     C418426   7.215   2.476   7.369  0.0290 -0.1259  0.2932
   62MOL     C518427   7.335   2.520   7.321 -0.4114  0.4957  0.1059
   62MOL     C618428   7.450   2.492   7.391  0.2490  0.2667 -0.0399
   62MOL     C718429   7.438   2.429   7.516  0.1073  0.8494  0.1987
   62MOL     N818430   7.319   2.387   7.557 -0.0023  0.8276 -0.4611
   62MOL     H918431   7.084   2.361   7.775  1.4794 -1.9758 -2.2030
   62MOL    H1018432   7.076   2.515   7.693  1.5774 -0.3118 -1.8744
   62MOL    H1118433   7.001   2.385   7.484 -0.0178 -0.0940 -1.3136
   62MOL    H1218434   7.125   2.489   7.309  0.5628 -1.7658 -0.8989
   62MOL    H1318435   7.342   2.588   7.238 -0.3770  0.4457  0.0676
   62MOL    H1418436   7.551   2.523   7.369  0.0259 -0.2967 -1.9520
   62MOL    H1518437   7.516   2.407   7.588  0.1511 -0.3580 -0.2039
   62MOL    H1618438   6.934   2.405   7.703  0.5670 -0.2863  0.2695
   62MOL    C1718439   7.067   2.197   7.553 -0.6113 -0.2490 -0.0452
   62MOL    C1818440   6.931   2.145   7.566 -0.7833  0.6835  0.1862
   62MOL    C1918441   6.852   2.181   7.441  0.2281 -0.5622 -0.6365
   62MOL    C2018442   6.742   2.266   7.451 -0.0424  0.5049 -0.0526
   62MOL    C2118443   6.651   2.279   7.346 -0.2266  0.1481  0.2884
   62MOL    C2218444   6.679   2.213   7.227  0.6157 -0.6001 -0.6794
   62MOL    C2318445   6.799   2.138   7.217  0.3596  0.3834 -0.0086
   62MOL    N2418446   6.879   2.117   7.329  0.0241  0.4539  0.4453
   62MOL    H2518447   7.126   2.148   7.631 -1.4484 -0.6419  0.3509
   62MOL    H2618448   7.107   2.156   7.460 -0.2942  0.3370 -0.1670
   62MOL    H2718449   6.882   2.191   7.651  1.6063  1.6359  1.0989
   62MOL    H2818450   6.716   2.310   7.546  1.0436 -1.0888  1.0074
   62MOL    H2918451   6.561   2.340   7.346  0.5039  1.2336  0.2323
   62MOL    H3018452   6.612   2.229   7.145  1.8159  1.0009 -1.3943
   62MOL    H3118453   6.816   2.092   7.121 -1.4370  2.6167 -1.4453
   62MOL    C3218454   6.925   1.992   7.602  0.5036  0.2683  0.6675
   62MOL    C3318455   6.790   1.917   7.583  0.2822  0.0523 -0.2593
   62MOL    C3418456   6.817   1.770   7.606  0.2175 -0.3763 -0.1716
   62MOL    C3518457   6.832   1.717   7.734 -0.2849  0.2213 -1.5449
   62MOL    C3618458   6.836   1.577   7.756  0.8171  0.7041  0.5198
   62MOL    C3718459   6.832   1.492   7.641 -0.9203  0.0008 -0.2667
   62MOL    C3818460   6.819   1.555   7.518 -0.0963 -0.1213  0.2889
   62MOL    N3918461   6.808   1.692   7.500  0.2097  0.4937  0.5297
   62MOL    H4018462   6.957   1.972   7.704 -0.4455 -0.5711  0.8014
   62MOL    H4118463   6.996   1.942   7.537 -0.6468 -1.6951  0.8844
   62MOL    H4218464   6.750   1.929   7.482  1.2214  0.0240 -0.6449
   62MOL    H4318465   6.828   1.773   7.826 -0.7402 -0.5766 -1.0680
   62MOL    H4418466   6.834   1.532   7.854  1.9035 -1.9345 -0.6132
   62MOL    H4518467   6.822   1.384   7.643 -0.2596 -0.0479  1.6006
   62MOL    H4618468   6.809   1.496   7.428 -1.1765  0.9964 -0.3364
   62MOL    C4718469   6.681   1.978   7.675  0.2059 -0.3674 -0.4760
   62MOL    C4818470   6.543   1.916   7.659 -0.1623  0.6228 -0.7210
   62MOL    C4918471   6.527   1.791   7.751  0.0714 -0.0191  0.2853
   62MOL    C5018472   6.507   1.668   7.694 -0.4909 -0.6149 -0.3946
   62MOL    C5118473   6.449   1.565   7.769 -0.5764  0.0861 -0.6045
   62MOL    C5218474   6.407   1.591   7.903  0.0864  0.4183  0.1155
   62MOL    C5318475   6.439   1.720   7.959  0.0036  1.4730  0.2606
   62MOL    N5418476   6.495   1.814   7.884 -0.5293 -0.2921 -0.2338
   62MOL    H5518477   6.668   2.082   7.645 -0.2301 -0.3166 -0.1045
   62MOL    H5618478   6.707   1.973   7.781 -0.6640 -1.7672 -0.3181
   62MOL    H5718479   6.524   1.878   7.559 -0.4999  2.9827 -1.6078
   62MOL    H5818480   6.517   1.671   7.586  0.7625  0.6890 -0.2482
   62MOL    H5918481   6.426   1.470   7.722  0.1088 -1.2124  1.6082
   62MOL    H6018482   6.355   1.521   7.967 -0.5318 -0.8033 -1.6824
   62MOL    H6118483   6.410   1.727   8.063  0.4379  0.0679  0.4997
   62MOL    C6218484   6.431   2.024   7.691 -0.1012 -0.3731 -0.3244
   62MOL    C6318485   6.389   2.125   7.587  0.2100 -0.6084 -0.0713
   62MOL    C6418486   6.347   2.058   7.455 -0.2689  0.0849  0.1004
   62MOL    C6518487   6.449   2.022   7.358  0.3112 -0.5613  0.4407
   62MOL    C6618488   6.413   1.926   7.265  0.2921 -0.2732  0.5821
   62MOL    C6718489   6.284   1.874   7.260 -0.1218 -0.2141 -0.6813
   62MOL    C6818490   6.194   1.917   7.360 -0.0165  0.1366  0.0658
   62MOL    N6918491   6.222   2.008   7.462  0.1210 -0.4006  0.4710
   62MOL    H7018492   6.461   2.079   7.780 -1.9695  0.0565  0.0748
   62MOL    H7118493   6.338   1.978   7.726  0.6455 -0.9699  0.9409
   62MOL    H7218494   6.484   2.177   7.570  0.6034 -0.9804  0.9196
   62MOL    H7318495   6.554   2.044   7.370  0.2442 -0.6476  1.1657
   62MOL    H7418496   6.499   1.898   7.206  0.4746  1.1980  0.1382
   62MOL    H7518497   6.245   1.799   7.193 -0.7722  0.3187 -0.9068
   62MOL    H7618498   6.095   1.873   7.364  2.1629 -4.8752  2.2877
   62MOL    C7718499   6.278   2.221   7.633 -0.8699  0.2187 -0.8955
   62MOL    C7818500   6.326   2.323   7.734  0.6518 -0.4175  0.3089
   62MOL    C7918501   6.426   2.424   7.686  0.2568 -0.1623 -0.2881
   62MOL    C8018502   6.551   2.435   7.747  1.3906 -0.1107 -0.0353
   62MOL    C8118503   6.637   2.524   7.684 -0.5987  0.4291  0.2748
   62MOL    C8218504   6.600   2.591   7.565 -0.1376  0.1592  0.2198
   62MOL    C8318505   6.465   2.582   7.521 -0.5641 -0.7141 -0.3110
   62MOL    N8418506   6.381   2.493   7.580  0.0636  0.1347 -0.1971
   62MOL    H8518507   6.187   2.178   7.673 -1.5239  1.3152 -1.1958
   62MOL    H8618508   6.235   2.273   7.548  0.5589  3.1290  0.1019
   62MOL    H8718509   6.374   2.267   7.814  2.5388  0.4382 -0.1931
   62MOL    H8818510   6.573   2.392   7.844 -1.3313  1.1945  1.2056
   62MOL    H8918511   6.735   2.537   7.728  0.4967 -2.4808 -1.1513
   62MOL    H9018512   6.665   2.656   7.509 -0.2659 -1.9342 -2.4200
   62MOL    H9118513   6.440   2.647   7.439  1.6573  1.0566  0.3552
   62MOL    C9218514   6.203   2.401   7.792 -0.0830  0.4808  0.2828
   62MOL    C9318515   6.099   2.332   7.881  0.7061  0.5459 -0.3605
   62MOL    C9418516   6.143   2.215   7.962 -0.2049  0.2518 -0.4127
   62MOL    C9518517   6.071   2.092   7.951 -0.1557  0.7914 -0.2199
   62MOL    C9618518   6.128   1.979   8.007 -0.5551  0.2461 -0.9065
   62MOL    C9718519   6.250   1.981   8.078  0.1689  0.2654  0.2174
   62MOL    C9818520   6.314   2.107   8.085  0.1310 -0.4959  0.0945
   62MOL    N9918521   6.259   2.223   8.032 -0.1122 -0.2614 -0.4503
   62MOL   H10018522   6.149   2.456   7.715 -3.1710 -1.7098  0.8159
   62MOL   H10118523   6.247   2.477   7.857 -1.1205 -0.0021  1.5636
   62MOL   H10218524   6.019   2.301   7.813 -1.7260  2.6206  1.4557
   62MOL   H10318525   5.979   2.093   7.895  0.9820 -0.2861 -2.1635
   62MOL   H10418526   6.076   1.885   8.009 -2.2595  1.2056  0.3958
   62MOL   H10518527   6.283   1.895   8.134  1.4373  0.9606  0.5598
   62MOL   H10618528   6.395   2.116   0.004 -0.8964  2.0894  1.0104
   62MOL   C10718529   6.026   2.430   7.978  0.2315 -0.0711 -0.4669
   62MOL   C10818530   5.895   2.509   7.933  0.0709 -0.0583  0.4922
   62MOL   C10918531   5.816   2.562   8.058 -0.4219 -0.3821  0.6943
   62MOL   C11018532   5.690   2.508   8.087  0.2369  0.5376 -0.1396
   62MOL   C11118533   5.624   2.553   0.054  0.2156  0.3092  0.4140
   62MOL   C11218534   5.691   2.646   0.136  0.1301  0.3116 -0.3289
   62MOL   C11318535   5.816   2.692   0.093  0.4175 -0.0771  0.2942
   62MOL   N11418536   5.882   2.654   8.135 -0.5693 -0.8105 -0.2488
   62MOL   H11518537   6.102   2.493   8.024  0.1002 -0.4826  0.3257
   62MOL   H11618538   5.985   2.376   8.064  1.6178 -0.1097  0.1890
   62MOL   H11718539   5.830   2.438   7.882 -0.7304 -0.8198  2.5237
   62MOL   H11818540   5.649   2.439   8.014 -1.1397  2.7485 -1.4991
   62MOL   H11918541   5.522   2.524   0.074  0.2256  0.0893  0.1446
   62MOL   H12018542   5.652   2.673   0.233 -1.3195  0.8754 -1.0588
   62MOL   H12118543   5.854   2.775   0.150  0.9475  1.5136 -2.2606
   62MOL   C12218544   5.925   2.633   7.836 -0.1803  0.2198 -0.5223
   62MOL   C12318545   5.813   2.738   7.821 -0.3641 -0.1385  0.2159
   62MOL   C12418546   5.864   2.861   7.747  0.4532 -0.2347  0.5362
   62MOL   C12518547   5.855   2.992   7.797  0.2621 -0.0976 -0.6645
   62MOL   C12618548   5.900   3.104   7.724  0.8320 -0.5934  0.2184
   62MOL   C12718549   5.953   3.073   7.595  0.7004  0.1039 -0.1531
   62MOL   C12818550   5.963   2.945   7.557  0.7061  0.6384 -0.1904
   62MOL   N12918551   5.918   2.840   7.623 -0.4420 -0.2346  0.4602
   62MOL   H13018552   5.966   2.601   7.740  0.8706  1.2677 -0.4408
   62MOL   H13118553   6.013   2.690   7.867 -0.6547  0.6500  0.0503
   62MOL   H13218554   5.787   2.784   7.916  2.9397  1.7072  0.3065
   62MOL   H13318555   5.797   3.018   7.884 -0.0563 -2.3681 -0.1704
   62MOL   H13418556   5.869   3.204   7.751 -1.8032 -1.6900  1.4388
   62MOL   H13518557   5.994   3.143   7.524  0.0746  1.6919  1.0131
   62MOL   H13618558   6.004   2.915   7.461  0.2400 -1.4887  0.2595
   62MOL   C13718559   5.694   2.676   7.744  0.4165 -0.3142  0.3517
   62MOL   C13818560   5.561   2.755   7.739 -0.5661 -0.1383 -0.0754
   62MOL   C13918561   5.479   2.693   7.633 -0.7620  0.6054 -0.3894
   62MOL   C14018562   5.421   2.779   7.529  0.1503 -0.0573 -0.7436
   62MOL   C14118563   5.326   2.724   7.437 -1.5369 -0.0553 -0.6097
   62MOL   C14218564   5.301   2.591   7.453  0.4002 -0.1741 -0.0037
   62MOL   C14318565   5.375   2.513   7.543 -0.2413  0.1724  0.1857
   62MOL   N14418566   5.457   2.558   7.636 -0.7382 -0.2719 -0.1861
   62MOL   H14518567   5.679   2.574   7.779 -1.9389  0.3344  1.3284
   62MOL   H14618568   5.733   2.673   7.642 -0.2507 -1.5979  0.1267
   62MOL   H14718569   5.574   2.860   7.715  1.4960 -0.2711  0.3197
   62MOL   H14818570   5.442   2.885   7.526  0.3379 -0.0104  1.6688
   62MOL   H14918571   5.286   2.776   7.352  2.6322  1.4885 -1.7840
   62MOL   H15018572   5.238   2.547   7.377  0.9109 -1.8276  0.5021
   62MOL   H15118573   5.380   2.405   7.546  2.3296  0.2287 -0.9759
   62MOL   C15218574   5.495   2.742   7.881 -0.3652 -0.2670 -0.4908
   62MOL   C15318575   5.351   2.809   7.904  0.0019 -0.6097 -0.9460
   62MOL   C15418576   5.311   2.782   8.051 -0.5140  0.2267  1.1370
   62MOL   C15518577   5.210   2.686   8.071  0.1556 -0.2727 -0.5604
   62MOL   C15618578   5.174   2.655   0.054 -0.3042  0.3192 -0.2567
   62MOL   C15718579   5.242   2.728   0.155  0.3476 -0.0457 -0.7061
   62MOL   C15818580   5.346   2.818   0.121 -0.1708 -0.6103  0.2493
   62MOL   N15918581   5.370   2.856   8.146  0.6537  0.1930  0.1659
   62MOL   H16018582   5.563   2.770   7.961 -1.0759  1.5642 -0.5088
   62MOL   H16118583   5.478   2.636   7.902  1.6696 -0.4966  0.1143
   62MOL   H16218584   5.277   2.749   7.852 -1.5790 -0.0255  0.5653
   62MOL   H16318585   5.175   2.621   7.992  0.3268  0.5133 -1.2799
   62MOL   H16418586   5.100   2.578   0.072 -0.4032  0.4531 -0.0895
   62MOL   H16518587   5.219   2.699   0.257 -1.5313  0.4312 -0.9719
   62MOL   H16618588   5.405   2.868   0.196  1.0013  1.5754 -2.0687
   62MOL   C16718589   5.343   2.959   7.867  0.5696  0.3798  0.1223
   62MOL   C16818590   5.214   3.027   7.918  0.4067  0.0657  0.4158
   62MOL   C16918591   5.226   3.174   7.937  0.2322  0.6535 -0.2604
   62MOL   C17018592   5.205   3.226   8.063  0.2617  0.2413 -0.0701
   62MOL   C17118593   5.235   3.365   8.073  0.5453 -0.4371 -0.3146
   62MOL   C17218594   5.279   3.440   7.960  0.4443 -0.0312 -0.6315
   62MOL   C17318595   5.288   3.370   7.835 -0.1557  0.2308  0.3250
   62MOL   N17418596   5.260   3.242   7.824 -0.4000 -0.3144 -0.6442
   62MOL   H17518597   5.352   2.979   7.761 -0.6814  1.3139  0.1694
   62MOL   H17618598   5.425   3.020   7.906  1.3026 -0.0665 -0.7238
   62MOL   H17718599   5.195   2.985   8.016 -1.3532 -0.8982 -0.3135
   62MOL   H17818600   5.177   3.161   8.144  0.4734  0.2522  0.0131
   62MOL   H17918601   5.210   3.408   0.017  1.0864 -0.7001 -0.0534
   62MOL   H18018602   5.304   3.544   7.973 -1.3868  0.3663 -0.2322
   62MOL   H18118603   5.324   3.410   7.741 -0.2403 -0.1505  0.1262
   62MOL   C18218604   5.084   2.990   7.830  0.2889  0.1841 -0.3179
   62MOL   C18318605   4.985   2.895   7.905 -0.0229  0.3440 -0.5969
   62MOL   C18418606   4.904   2.982   8.010  0.5678  0.6281 -0.2527
   62MOL   C18518607   4.912   2.960   8.150  0.0946 -0.4526  0.6416
   62MOL   C18618608   4.840   3.044   0.084  0.9461 -0.4576 -0.2821
   62MOL   C18718609   4.759   3.148   0.023 -0.7814 -0.0065  0.4026
   62MOL   C18818610   4.762   3.161   8.037  0.4977 -0.2063 -0.4337
   62MOL   N18918611   4.829   3.079   7.957 -0.3567  0.6332  0.0726
   62MOL   H19018612   5.115   2.945   7.735  0.1586  2.0652 -1.2712
   62MOL   H19118613   5.034   3.081   7.798  0.0600  0.0346 -0.3825
   62MOL   H19218614   5.034   2.810   7.954  2.8351  0.6015 -2.8416
   62MOL   H19318615   4.978   2.882   0.033 -0.6182 -1.4291 -0.1510
   62MOL   H19418616   4.834   3.021   0.189 -1.0404  0.5973 -0.1482
   62MOL   H19518617   4.702   3.212   0.087 -1.1522 -1.6094  1.7266
   62MOL   H19618618   4.687   3.226   7.994  1.5945 -0.3994 -2.7293
   62MOL   C19718619   4.893   2.821   7.804 -0.6145 -0.6566 -0.9343
   62MOL   C19818620   4.979   2.716   7.723  0.4900  0.0893  0.7949
   62MOL   C19918621   5.016   2.586   7.799 -0.1837 -0.6455 -0.0373
   62MOL   C20018622   4.957   2.542   7.920 -0.5437  0.0356 -0.4694
   62MOL   C20118623   4.995   2.420   7.980 -0.0687  0.4266  0.3692
   62MOL   C20218624   5.097   2.346   7.930 -0.7417 -0.4121  0.5212
   62MOL   C20318625   5.153   2.394   7.808  0.1447  0.2918 -0.3654
   62MOL   N20418626   5.110   2.509   7.749 -1.3101  0.2688  0.2748
   62MOL   H20518627   4.848   2.887   7.730 -0.9760 -0.5845 -0.6510
   62MOL   H20618628   4.810   2.778   7.859 -0.0532  0.0573  0.4890
   62MOL   H20718629   5.076   2.754   7.693 -0.7680  2.2067 -0.7612
   62MOL   H20818630   4.884   2.609   7.963 -1.0777 -0.1565 -1.0774
   62MOL   H20918631   4.949   2.382   8.070  0.5758 -0.4491  0.3364
   62MOL   H21018632   5.133   2.256   7.977  0.4194  0.9402  2.2911
   62MOL   H21118633   5.230   2.337   7.758  0.8325 -0.0485  1.0532
   62MOL   C21218634   4.909   2.678   7.591  0.3365 -0.3220 -0.5741
   62MOL   C21318635   4.833   2.779   7.502 -0.4348 -0.6300  0.5795
   62MOL   C21418636   4.913   2.904   7.465 -0.6392 -1.0097 -0.5762
   62MOL   C21518637   4.867   3.032   7.497  0.1337 -1.2253  0.8383
   62MOL   C21618638   4.953   3.144   7.488 -0.0287  0.3218 -0.1265
   62MOL   C21718639   5.086   3.114   7.459  0.4579 -0.5588 -0.0075
   62MOL   C21818640   5.127   2.981   7.431  0.5270  0.4650 -0.4583
   62MOL   N21918641   5.038   2.882   7.424 -0.1228 -0.7230 -0.2615
   62MOL   H22018642   4.842   2.598   7.623  0.5418  0.6374  2.4356
   62MOL   H22118643   4.977   2.610   7.540  0.8206 -0.3648  0.1222
   62MOL   H22218644   4.738   2.804   7.550 -0.5366 -1.4790  0.8280
   62MOL   H22318645   4.761   3.051   7.513 -0.1321 -0.7176 -1.3791
   62MOL   H22418646   4.912   3.243   7.495  1.4189  1.0454 -1.5301
   62MOL   H22518647   5.158   3.192   7.440 -1.3446  1.5795  1.7478
   62MOL   H22618648   5.229   2.964   7.399  0.5501 -1.6425  0.6458
   62MOL   C22718649   4.797   2.702   7.382 -0.4554  0.1678  0.3932
   62MOL   C22818650   4.717   2.786   7.275  0.0904 -0.3885  1.0861
   62MOL   C22918651   4.723   2.705   7.142  0.1154 -1.0582  0.3175
   62MOL   C23018652   4.821   2.734   7.041  0.0231  0.8386  0.7169
   62MOL   C23118653   4.828   2.647   6.926  0.8362  0.4584  0.8378
   62MOL   C23218654   4.738   2.540   6.918  0.7170 -0.5129 -0.3988
   62MOL   C23318655   4.660   2.515   7.025  0.5357  0.2073 -0.2167
   62MOL   N23418656   4.660   2.587   7.140  0.2721 -0.1864  0.3634
   62MOL   H23518657   4.742   2.611   7.409 -0.6187 -0.3615 -1.6657
   62MOL   H23618658   4.891   2.668   7.339 -1.2927 -1.6759 -0.0298
   62MOL   H23718659   4.772   2.879   7.258  0.0347 -0.5676 -0.1230
   62MOL   H23818660   4.882   2.822   7.027  0.2100  0.7240  0.8028
   62MOL   H23918661   4.895   2.656   6.842  0.7271  2.5344  0.9494
   62MOL   H24018662   4.743   2.468   6.837  1.6461 -2.7722  1.6288
   62MOL   H24118663   4.592   2.431   7.019  1.0744 -0.0928 -3.0449
   62MOL   C24218664   4.574   2.819   7.320 -0.0833  0.1847 -0.3162
   62MOL   C24318665   4.496   2.881   7.207 -0.2594  0.3051  0.5223
   62MOL   C24418666   4.347   2.880   7.255  0.7508 -0.1249 -0.2445
   62MOL   C24518667   4.246   2.849   7.163 -0.1661 -0.7648 -0.0156
   62MOL   C24618668   4.110   2.836   7.210  0.4311  0.9259  0.3943
   62MOL   C24718669   4.089   2.866   7.346  0.2372 -0.4777 -0.4230
   62MOL   C24818670   4.195   2.903   7.428  1.1029  0.3583  0.7757
   62MOL   N24918671   4.324   2.910   7.383  0.1041 -0.0408 -0.3877
   62MOL   H25018672   4.591   2.887   7.404  0.1128  2.9918 -2.5362
   62MOL   H25118673   4.529   2.734   7.372  1.4582  0.1062  0.9306
   62MOL   H25218674   4.490   2.812   7.122  0.9797 -1.5015  1.8616
   62MOL   H25318675   4.274   2.820   7.063 -1.2038  0.2043 -0.5954
   62MOL   H25418676   4.030   2.804   7.145  1.1829 -1.9275  0.7809
   62MOL   H25518677   3.988   2.872   7.385  1.0663  2.5017  1.3546
   62MOL   H25618678   4.189   2.932   7.532 -0.2156 -3.1385  1.7437
   62MOL   C25718679   4.534   3.033   7.163 -0.3696  0.7271  0.6042
   62MOL   C25818680   4.630   3.056   7.047  0.1078  0.1928  0.0832
   62MOL   C25918681   4.612   2.983   6.918  0.2249 -0.8015  0.4572
   62MOL   C26018682   4.718   2.963   6.824  0.5341  0.0875  0.1175
   62MOL   C26118683   4.693   2.909   6.697 -0.1159  0.4972  0.0774
   62MOL   C26218684   4.557   2.883   6.665  0.3753 -0.2521  0.4102
   62MOL   C26318685   4.453   2.910   6.758 -0.6044  0.2787  0.0314
   62MOL   N26418686   4.481   2.959   6.883 -0.3111 -0.0919 -0.5319
   62MOL   H26518687   4.573   3.077   7.254 -1.3869  1.2621  0.7847
   62MOL   H26618688   4.442   3.088   7.143 -1.9946 -1.8292  0.6656
   62MOL   H26718689   4.726   3.024   7.086  1.0567  2.7866 -0.0309
   62MOL   H26818690   4.823   2.984   6.834  0.5638 -1.0093  2.5843
   62MOL   H26918691   4.775   2.887   6.631  0.7349  3.9984 -0.0806
   62MOL   H27018692   4.525   2.839   6.572  0.6565 -4.8444  2.3214
   62MOL   H27118693   4.355   2.873   6.732  0.3630 -1.9361 -0.5163
   62MOL   C27218694   4.641   3.205   7.024 -0.4280  0.6746  0.3248
   62MOL   C27318695   4.752   3.285   7.089  0.4201  0.2206 -0.0743
   62MOL   C27418696   4.887   3.239   7.045  0.0125  0.3722 -0.7040
   62MOL   C27518697   4.969   3.163   7.129  0.4021  0.5314  0.2291
   62MOL   C27618698   5.081   3.100   7.065 -0.0274 -0.7195  0.1709
   62MOL   C27718699   5.092   3.098   6.925 -0.2213  0.2392  0.6872
   62MOL   C27818700   5.007   3.183   6.852 -0.1664  0.2900 -0.1701
   62MOL   N27918701   4.907   3.253   6.912  0.7350 -0.4226 -0.8606
   62MOL   H28018702   4.545   3.253   7.041 -0.8303  1.0352 -2.6230
   62MOL   H28118703   4.657   3.212   6.916  3.1162 -0.4977  0.6909
   62MOL   H28218704   4.743   3.263   7.195  1.3185 -0.0050 -0.0379
   62MOL   H28318705   4.958   3.144   7.235  3.2515  2.1614  0.8746
   62MOL   H28418706   5.154   3.044   7.121  0.6521  0.4124  0.4424
   62MOL   H28518707   5.174   3.042   6.882 -0.8763  0.2962 -0.6379
   62MOL   H28618708   5.014   3.190   6.745 -2.2691  1.5636 -0.2377
   62MOL   C28718709   4.737   3.438   7.078  0.4795  0.7263  0.2340
   62MOL   C28818710   4.602   3.484   7.128 -0.1989  0.5587 -0.8917
   62MOL   C28918711   4.619   3.637   7.150  0.0036  0.1572  0.0651
   62MOL   C29018712   4.561   3.737   7.063 -0.9705 -0.0671 -0.0676
   62MOL   C29118713   4.583   3.878   7.097 -0.3471  0.8507 -0.0988
   62MOL   C29218714   4.643   3.903   7.219 -0.3379  0.3957  0.2260
   62MOL   C29318715   4.706   3.804   7.292  0.1452 -0.4729 -1.1966
   62MOL   N29418716   4.697   3.671   7.253  0.7392  0.3555 -0.1201
   62MOL   H29518717   4.750   3.473   6.976 -0.3030  1.5079  0.3896
   62MOL   H29618718   4.823   3.484   7.126  0.5614  3.1419 -2.0813
   62MOL   H29718719   4.571   3.444   7.224 -0.7882  1.1232 -0.8450
   62MOL   H29818720   4.500   3.710   6.978 -1.2775 -0.4665  0.2795
   62MOL   H29918721   4.555   3.959   7.031  1.5834  1.7225  0.1291
   62MOL   H30018722   4.667   4.004   7.251 -0.1845  0.9789 -1.6952
   62MOL   H30118723   4.785   3.826   7.362 -0.5025 -0.2106 -0.5387
   62MOL   H30218724   4.525   3.473   7.052 -1.8238  1.0569  0.6663
   63MOL     C118725   1.136   0.666   1.894 -0.5275 -0.7858 -0.7471
   63MOL     C218726   1.230   0.770   1.959  0.0768  0.3449 -0.0103
   63MOL     C318727   1.334   0.825   1.862  0.9148 -0.5490  0.1270
   63MOL     C418728   1.469   0.834   1.903  0.0568 -0.4527  0.6975
   63MOL     C518729   1.560   0.895   1.810 -0.2557  0.2796 -0.2955
   63MOL     C618730   1.518   0.937   1.682  0.2739  0.2181 -0.9372
   63MOL     C718731   1.382   0.928   1.656  0.2793 -0.1558 -0.0494
   63MOL     N818732   1.292   0.869   1.740  0.2498 -0.2266  0.4410
   63MOL     H918733   1.186   0.586   1.840  1.8013 -0.3278  0.6527
   63MOL    H1018734   1.060   0.612   1.952 -1.5950  2.1953  0.7501
   63MOL    H1118735   1.290   0.719   2.033 -1.3562 -0.4777  0.6118
   63MOL    H1218736   1.506   0.794   1.996  1.3063  1.8381  1.2309
   63MOL    H1318737   1.665   0.910   1.831 -0.3644  0.3840  0.1883
   63MOL    H1418738   1.585   0.978   1.608 -0.7240 -0.8325 -2.4636
   63MOL    H1518739   1.341   0.960   1.561 -0.0385 -0.6880 -0.0966
   63MOL    H1618740   1.079   0.720   1.818 -3.4720  0.5416  2.2638
   63MOL    C1718741   1.139   0.879   2.031  0.0642  0.1104 -0.2877
   63MOL    C1818742   1.117   0.842   2.181  0.1529  0.6104 -0.3415
   63MOL    C1918743   1.253   0.844   2.265  0.4941 -0.1659 -0.0900
   63MOL    C2018744   1.277   0.745   2.358 -0.7671  0.2876 -0.0264
   63MOL    C2118745   1.401   0.749   2.428  0.1362 -0.3488  0.2706
   63MOL    C2218746   1.490   0.853   2.398  0.2091  0.3581 -0.0600
   63MOL    C2318747   1.447   0.954   2.311  0.4435  0.2110  0.4198
   63MOL    N2418748   1.332   0.952   2.242 -0.5183 -0.0361 -0.0964
   63MOL    H2518749   1.053   0.903   1.969  0.9721  0.0659 -1.5966
   63MOL    H2618750   1.189   0.976   2.032 -1.1162  0.7966 -3.2712
   63MOL    H2718751   1.076   0.741   2.188  0.8939  0.3607  0.4321
   63MOL    H2818752   1.211   0.660   2.369 -0.7910  0.3897  0.6022
   63MOL    H2918753   1.430   0.671   2.497  2.3596  1.6217  1.6228
   63MOL    H3018754   1.590   0.859   2.438  0.6432 -1.5518 -0.7838
   63MOL    H3118755   1.519   1.026   2.276 -0.9369  0.5224 -1.9153
   63MOL    C3218756   1.017   0.938   2.252  0.2447  0.4000  0.0258
   63MOL    C3318757   0.868   0.934   2.211 -0.7797  0.3236 -0.9769
   63MOL    C3418758   0.794   0.795   2.226  0.5749 -0.0880  0.4827
   63MOL    C3518759   0.761   0.729   2.107  0.2943 -0.2833 -0.7079
   63MOL    C3618760   0.728   0.595   2.118 -0.8305 -0.4498 -0.0525
   63MOL    C3718761   0.709   0.537   2.245  0.5730 -0.1093 -0.5804
   63MOL    C3818762   0.731   0.622   2.359  0.0348 -0.4669 -0.4359
   63MOL    N3918763   0.779   0.745   2.349 -0.0541 -0.3927 -0.4906
   63MOL    H4018764   1.060   1.036   2.232 -2.1712  1.4878  0.0141
   63MOL    H4118765   1.018   0.932   2.361 -0.4388  1.5932  0.1128
   63MOL    H4218766   0.871   0.958   2.105 -1.6361  1.1922 -0.8026
   63MOL    H4318767   0.776   0.767   2.006  0.7208 -3.0979 -1.7395
   63MOL    H4418768   0.689   0.536   2.036 -1.1570  0.8907 -0.8912
   63MOL    H4518769   0.675   0.435   2.250  0.9366 -0.2984 -1.8128
   63MOL    H4618770   0.701   0.598   2.461  0.5963  1.6626  0.2540
   63MOL    C4718771   0.785   1.049   2.270 -0.0125 -0.1460  0.2289
   63MOL    C4818772   0.647   1.073   2.212 -0.5254  0.5440  0.3541
   63MOL    C4918773   0.537   1.015   2.301 -0.6277  0.0089  0.1087
   63MOL    C5018774   0.480   0.886   2.278  0.1504 -0.4107 -0.3250
   63MOL    C5118775   0.380   0.844   2.366  0.4330  0.1608 -0.1664
   63MOL    C5218776   0.353   0.922   2.477 -0.5513 -0.1678  0.0777
   63MOL    C5318777   0.419   1.045   2.494 -0.3481 -0.6015  0.5443
   63MOL    N5418778   0.512   1.090   2.406  0.2383 -0.0126  0.4659
   63MOL    H5518779   0.843   1.141   2.278  1.8804 -1.1596 -1.5151
   63MOL    H5618780   0.776   1.040   2.379 -2.7285  0.5257  0.0860
   63MOL    H5718781   0.635   1.025   2.115  0.0034 -1.9585  1.4881
   63MOL    H5818782   0.513   0.827   2.193 -1.9577  0.0475 -1.5019
   63MOL    H5918783   0.337   0.746   2.350 -1.5464  0.8882  0.5547
   63MOL    H6018784   0.289   0.895   2.560 -1.1011  1.6903  0.2749
   63MOL    H6118785   0.396   1.107   2.580 -1.7391  0.2369 -0.4145
   63MOL    C6218786   0.617   1.224   2.178 -0.5262 -0.2938 -0.9342
   63MOL    C6318787   0.710   1.312   2.101  0.3904 -0.0359  0.2917
   63MOL    C6418788   0.787   1.239   1.986  0.3780 -0.1833  0.3298
   63MOL    C6518789   0.926   1.223   1.993  0.5182 -0.2585  0.4795
   63MOL    C6618790   0.999   1.156   1.898  0.3334  0.2495  1.1967
   63MOL    C6718791   0.920   1.104   1.792  0.1585  0.7228 -0.0029
   63MOL    C6818792   0.779   1.103   1.800 -0.4118  0.4530  0.4725
   63MOL    N6918793   0.713   1.170   1.891  0.4591 -0.5531  0.3265
   63MOL    H7018794   0.584   1.280   2.265  1.4424  1.6843 -1.4192
   63MOL    H7118795   0.526   1.222   2.118  0.4004  1.3487 -2.4492
   63MOL    H7218796   0.786   1.337   2.175  1.5342  1.2680 -1.2954
   63MOL    H7318797   0.977   1.277   2.071  2.0494  0.5515 -1.0525
   63MOL    H7418798   1.104   1.179   1.881  0.1967 -0.0640 -0.1346
   63MOL    H7518799   0.965   1.068   1.701 -2.4997 -0.0107 -1.0752
   63MOL    H7618800   0.725   1.059   1.718  3.1067  0.5518 -2.0252
   63MOL    C7718801   0.623   1.441   2.061 -0.1705  0.1617 -0.2281
   63MOL    C7818802   0.700   1.548   1.983 -0.0636 -0.2229  0.1582
   63MOL    C7918803   0.608   1.650   1.914 -0.3811 -0.0024 -0.2752
   63MOL    C8018804   0.588   1.637   1.776  0.0200  0.0291  0.1547
   63MOL    C8118805   0.488   1.716   1.711  0.9050 -0.4550 -0.3802
   63MOL    C8218806   0.414   1.799   1.798  0.0394 -0.0174  0.2116
   63MOL    C8318807   0.442   1.805   1.933 -0.5084  0.2516 -0.4257
   63MOL    N8418808   0.541   1.727   1.990  0.5264 -1.3962  0.2112
   63MOL    H8518809   0.584   1.492   2.149  1.3436 -1.0607  1.1939
   63MOL    H8618810   0.531   1.417   2.008 -1.2206  2.3296  0.5566
   63MOL    H8718811   0.755   1.495   1.906  0.9209  0.8701  0.0790
   63MOL    H8818812   0.646   1.561   1.726  1.9572  0.5188  1.5885
   63MOL    H8918813   0.453   1.703   1.609 -1.9258  0.9707  0.3659
   63MOL    H9018814   0.330   1.849   1.752 -0.5974 -0.2779  1.0759
   63MOL    H9118815   0.381   1.869   1.995  1.9030  1.7076  0.4767
   63MOL    C9218816   0.809   1.630   2.068  0.3544 -0.3322  0.7156
   63MOL    C9318817   0.893   1.731   1.991 -0.1613 -0.1081  0.1596
   63MOL    C9418818   0.961   1.825   2.092  0.3799  0.6073  0.3638
   63MOL    C9518819   0.956   1.966   2.080  0.4988  0.0200  0.2348
   63MOL    C9618820   1.032   2.045   2.167 -0.4605 -0.2917  0.5787
   63MOL    C9718821   1.109   1.975   2.263  0.2330  0.0938  0.0503
   63MOL    C9818822   1.104   1.835   2.269  0.0728  0.7064 -0.2980
   63MOL    N9918823   1.033   1.767   2.186 -0.2937  1.2899  0.5040
   63MOL   H10018824   0.874   1.553   2.110  0.8034 -1.8738 -2.5775
   63MOL   H10118825   0.749   1.677   2.145 -0.9957 -0.1224 -0.4526
   63MOL   H10218826   0.829   1.789   1.924 -2.0285 -0.1650  1.8312
   63MOL   H10318827   0.883   2.005   2.011 -0.6817 -2.5215 -0.0132
   63MOL   H10418828   1.027   2.153   2.161  1.0810 -0.2558 -0.4111
   63MOL   H10518829   1.170   2.027   2.335  0.7249  0.0847 -0.3591
   63MOL   H10618830   1.156   1.790   2.353 -0.7098 -0.7234 -0.5654
   63MOL   C10718831   1.003   1.664   1.904  0.2172  0.6224 -0.1047
   63MOL   C10818832   1.126   1.739   1.848 -0.5787 -0.7216 -0.1983
   63MOL   C10918833   1.251   1.653   1.816 -0.5029 -0.1566  0.1612
   63MOL   C11018834   1.387   1.693   1.843 -0.5006 -0.1471  0.0095
   63MOL   C11118835   1.496   1.607   1.812  0.8636  0.4310  0.2814
   63MOL   C11218836   1.460   1.476   1.759 -0.1606 -0.3800 -0.2754
   63MOL   C11318837   1.322   1.452   1.729  0.4635 -0.7150  0.1292
   63MOL   N11418838   1.221   1.536   1.757 -0.2435 -0.0351  0.8917
   63MOL   H11518839   0.946   1.626   1.819 -1.4573  1.8355  0.4449
   63MOL   H11618840   1.047   1.588   1.968 -1.2924 -0.4546 -0.3050
   63MOL   H11718841   1.162   1.800   1.931  0.8154 -1.2347 -0.4182
   63MOL   H11818842   1.417   1.788   1.884 -1.9684 -0.5360  2.0633
   63MOL   H11918843   1.599   1.636   1.821  0.7358  1.1186 -0.3932
   63MOL   H12018844   1.546   1.413   1.741  0.5200  0.6094 -0.5269
   63MOL   H12118845   1.295   1.353   1.696 -0.7861 -0.1528 -0.5383
   63MOL   C12218846   1.098   1.857   1.745  0.2181 -0.1977  0.1616
   63MOL   C12318847   1.024   1.818   1.613 -1.3431 -0.5819 -0.3080
   63MOL   C12418848   0.919   1.923   1.576 -0.7211  0.5806 -0.5836
   63MOL   C12518849   0.784   1.886   1.576  0.0391  0.3773 -0.3000
   63MOL   C12618850   0.686   1.981   1.524  0.3748 -0.3593 -0.7813
   63MOL   C12718851   0.728   2.102   1.475 -0.4744  0.2082 -0.4894
   63MOL   C12818852   0.866   2.132   1.484  0.8230  0.3684  0.0838
   63MOL   N12918853   0.957   2.048   1.534  0.0028  0.5024 -0.1294
   63MOL   H13018854   1.195   1.906   1.732 -0.7735  1.2849 -1.9556
   63MOL   H13118855   1.038   1.934   1.793  0.5576 -0.5342  1.1369
   63MOL   H13218856   0.978   1.723   1.639 -0.2949 -0.8988  0.3985
   63MOL   H13318857   0.751   1.786   1.601 -0.0238  0.1562 -1.2373
   63MOL   H13418858   0.581   1.958   1.535  0.2237  0.8448  0.3587
   63MOL   H13518859   0.660   2.179   1.443  1.5502  2.4720  0.4363
   63MOL   H13618860   0.909   2.219   1.437  0.4574  0.6770  0.3119
   63MOL   C13718861   1.120   1.773   1.497  0.1661 -1.1923  1.1873
   63MOL   C13818862   1.105   1.628   1.442 -0.0003 -0.3813  0.1957
   63MOL   C13918863   0.962   1.587   1.414  0.0833  0.2658  0.5615
   63MOL   C14018864   0.894   1.498   1.502  0.7491 -0.5791 -0.1367
   63MOL   C14118865   0.776   1.439   1.457  0.0813  0.0968  0.0894
   63MOL   C14218866   0.715   1.481   1.339 -0.5397 -0.6773  0.5695
   63MOL   C14318867   0.780   1.576   1.263  0.5776  0.3194  0.0587
   63MOL   N14418868   0.900   1.634   1.303  0.6273 -0.3632 -0.3202
   63MOL   H14518869   1.218   1.784   1.543 -0.7942  0.6618  2.8891
   63MOL   H14618870   1.118   1.842   1.413  0.5442 -0.3313  1.8727
   63MOL   H14718871   1.136   1.558   1.519 -1.7401  0.8627  2.0894
   63MOL   H14818872   0.950   1.461   1.586 -0.5692 -2.6747 -0.1501
   63MOL   H14918873   0.725   1.369   1.521  0.1229  1.1633  1.3271
   63MOL   H15018874   0.621   1.440   1.307  0.3832 -0.8506 -2.0074
   63MOL   H15118875   0.732   1.624   1.180  1.3284 -3.0392 -2.4309
   63MOL   C15218876   1.206   1.599   1.327 -0.1836  0.3081 -0.1021
   63MOL   C15318877   1.235   1.452   1.292 -0.1670 -0.0057  0.6451
   63MOL   C15418878   1.147   1.341   1.341  0.5643 -0.4191 -0.2162
   63MOL   C15518879   1.038   1.295   1.268  0.3354  0.2574 -0.1972
   63MOL   C15618880   0.964   1.186   1.311  0.4734  0.6260  0.0761
   63MOL   C15718881   1.008   1.116   1.426  0.1181  0.2335 -0.4589
   63MOL   C15818882   1.106   1.176   1.502  0.1859 -0.3461  0.4450
   63MOL   N15918883   1.174   1.283   1.459  0.1526 -0.0540 -0.0077
   63MOL   H16018884   1.290   1.662   1.355 -1.4395  2.7206 -1.5557
   63MOL   H16118885   1.161   1.640   1.236 -2.3435  0.7270  1.0953
   63MOL   H16218886   1.329   1.441   1.348  0.5395  0.6099 -0.4088
   63MOL   H16318887   1.014   1.342   1.173 -2.7223 -1.9595 -0.6023
   63MOL   H16418888   0.877   1.144   1.262 -0.0739  1.6027  0.2060
   63MOL   H16518889   0.962   1.022   1.451 -0.6587  0.9464  0.8059
   63MOL   H16618890   1.145   1.128   1.590 -1.3307  0.4137  1.5687
   63MOL   C16718891   1.284   1.422   1.144 -0.0416 -0.4749 -0.3341
   63MOL   C16818892   1.403   1.511   1.096 -0.4012  0.3250 -0.1401
   63MOL   C16918893   1.517   1.509   1.190 -1.1470 -0.4564 -0.1990
   63MOL   C17018894   1.563   1.629   1.246  0.8695 -0.7852  0.3941
   63MOL   C17118895   1.660   1.615   1.346 -0.3945  0.1636 -0.1635
   63MOL   C17218896   1.699   1.489   1.390  0.1529 -0.0118  0.0346
   63MOL   C17318897   1.646   1.379   1.324 -0.2469  0.1830 -0.4193
   63MOL   N17418898   1.549   1.382   1.225 -0.2045  0.0534 -0.4987
   63MOL   H17518899   1.205   1.427   1.068  1.2733 -0.3053 -1.7086
   63MOL   H17618900   1.313   1.317   1.141 -2.9424 -1.4616  2.7486
   63MOL   H17718901   1.362   1.612   1.088  0.1070  0.6813  1.6972
   63MOL   H17818902   1.526   1.724   1.211  0.1103 -1.2239  0.0008
   63MOL   H17918903   1.699   1.708   1.386 -1.5742  0.5990  0.0086
   63MOL   H18018904   1.774   1.489   1.468  1.4484  1.7147 -1.1730
   63MOL   H18118905   1.661   1.278   1.358 -2.7124 -0.1195 -0.1063
   63MOL   C18218906   1.443   1.469   0.954  0.4082 -0.6969  0.0909
   63MOL   C18318907   1.483   1.573   0.853  0.0799  0.4510 -0.3202
   63MOL   C18418908   1.622   1.606   0.885  0.0614 -1.1067 -0.0543
   63MOL   C18518909   1.729   1.521   0.842 -0.2979  0.2405 -0.2779
   63MOL   C18618910   1.863   1.551   0.879  0.2152 -0.1916  0.8224
   63MOL   C18718911   1.889   1.673   0.943  0.4938  0.0382 -0.1773
   63MOL   C18818912   1.777   1.750   0.982 -0.0127 -0.2629 -0.3314
   63MOL   N18918913   1.650   1.720   0.948  0.0020 -0.3560 -0.4715
   63MOL   H19018914   1.350   1.442   0.905  0.6872 -0.0488 -0.8078
   63MOL   H19118915   1.508   1.383   0.939  1.9393  0.4613 -0.0898
   63MOL   H19218916   1.425   1.660   0.884 -0.1613 -0.5786  2.2661
   63MOL   H19318917   1.717   1.425   0.792 -1.3849  0.5986 -0.7135
   63MOL   H19418918   1.946   1.493   0.840  0.4613  0.4290  0.4167
   63MOL   H19518919   1.990   1.708   0.952  0.4679 -0.0601  0.5528
   63MOL   H19618920   1.795   1.847   1.026 -0.5716 -0.9476  1.4320
   63MOL   C19718921   1.458   1.529   0.708  0.9290  0.7686  0.1023
   63MOL   C19818922   1.522   1.625   0.604 -0.2133  0.4045 -0.3523
   63MOL   C19918923   1.603   1.545   0.497  0.1652  0.4367  0.2548
   63MOL   C20018924   1.742   1.545   0.486  0.6345  0.6262 -0.2150
   63MOL   C20118925   1.800   1.478   0.381 -0.3440  0.6424  0.2458
   63MOL   C20218926   1.728   1.398   0.292  0.9448 -0.0673  0.7077
   63MOL   C20318927   1.591   1.400   0.317  0.4638  0.7505 -0.6995
   63MOL   N20418928   1.528   1.477   0.412 -0.6712  0.0438  0.2245
   63MOL   H20518929   1.355   1.517   0.672  1.4290  1.6355 -1.6951
   63MOL   H20618930   1.506   1.435   0.683 -1.1485  0.1427 -1.7679
   63MOL   H20718931   1.600   1.685   0.651  0.6868 -1.5977  0.7928
   63MOL   H20818932   1.797   1.596   0.564 -0.9341  0.6174  0.9406
   63MOL   H20918933   1.908   1.479   0.369 -0.0195  0.2692  2.8319
   63MOL   H21018934   1.773   1.337   0.214  1.5678 -1.6973  2.3052
   63MOL   H21118935   1.527   1.330   0.266 -0.6257  0.8804  0.4928
   63MOL   C21218936   1.429   1.726   0.537  0.6824  0.0289 -0.1337
   63MOL   C21318937   1.487   1.821   0.429  0.4599 -0.4976 -0.2086
   63MOL   C21418938   1.374   1.875   0.341 -0.0841  0.3679 -0.1613
   63MOL   C21518939   1.237   1.877   0.370 -0.5828 -0.3770  0.0447
   63MOL   C21618940   1.147   1.939   0.290  1.0665 -0.1938 -0.6490
   63MOL   C21718941   1.184   1.973   0.161 -0.0558 -0.3398  0.4022
   63MOL   C21818942   1.321   1.966   0.130 -0.1683 -0.5246  0.1707
   63MOL   N21918943   1.416   1.920   0.222 -0.2492 -0.5019  0.4898
   63MOL   H22018944   1.383   1.788   0.614  1.0532  2.5387 -1.8891
   63MOL   H22118945   1.343   1.665   0.507 -0.5454  1.4785  0.3769
   63MOL   H22218946   1.548   1.768   0.356  1.0855 -0.5436  0.3457
   63MOL   H22318947   1.198   1.839   0.463 -1.5018 -0.5180 -0.3927
   63MOL   H22418948   1.045   1.944   0.326  1.4298 -1.7706  0.6777
   63MOL   H22518949   1.116   2.012   0.086  0.2127  0.8599  0.7616
   63MOL   H22618950   1.350   1.998   0.031  0.1120  1.8823  0.9879
   63MOL   C22718951   1.586   1.934   0.478 -0.5587  0.3434 -0.6889
   63MOL   C22818952   1.553   2.002   0.613  0.1501  0.5215  0.1018
   63MOL   C22918953   1.666   2.078   0.673  0.2188 -0.4683 -0.2061
   63MOL   C23018954   1.708   2.059   0.802 -0.5817 -0.1599  0.7301
   63MOL   C23118955   1.811   2.139   0.853  0.8417 -0.0921  0.0756
   63MOL   C23218956   1.854   2.247   0.778 -0.4581 -0.0500 -0.1416
   63MOL   C23318957   1.800   2.271   0.653  0.3781  0.1902 -0.2572
   63MOL   N23418958   1.712   2.183   0.600  0.7487 -0.7137 -0.2449
   63MOL   H23518959   1.594   2.014   0.405  0.4073  1.8700  1.0486
   63MOL   H23618960   1.685   1.889   0.485 -1.3443 -1.6980 -2.2058
   63MOL   H23718961   1.519   1.928   0.686 -0.7240 -1.3127 -2.0806
   63MOL   H23818962   1.670   1.972   0.853  2.3103 -2.3003 -0.5632
   63MOL   H23918963   1.853   2.116   0.950 -0.6245  0.1323  0.7753
   63MOL   H24018964   1.933   2.309   0.817  0.4462 -0.2883 -1.5532
   63MOL   H24118965   1.843   2.349   0.592  2.7540 -0.1479  0.8961
   63MOL   C24218966   1.423   2.082   0.610  0.1634 -0.2097  0.4703
   63MOL   C24318967   1.403   2.171   0.734  0.1225  0.6023  0.3181
   63MOL   C24418968   1.297   2.278   0.699 -0.5702 -1.5206 -0.0137
   63MOL   C24518969   1.327   2.418   0.679  0.7150  0.0745 -0.7082
   63MOL   C24618970   1.223   2.507   0.646 -0.1090 -0.0660  0.5124
   63MOL   C24718971   1.089   2.461   0.657  0.1648  0.3513  0.0241
   63MOL   C24818972   1.066   2.325   0.685 -0.0821 -0.7750 -0.1734
   63MOL   N24918973   1.169   2.237   0.701 -0.2520  0.2477  0.1655
   63MOL   H25018974   1.331   2.030   0.585  0.3866 -0.2062 -0.3676
   63MOL   H25118975   1.431   2.139   0.518 -3.0811  1.1802  0.9809
   63MOL   H25218976   1.494   2.226   0.760  0.3767  0.7309 -0.8001
   63MOL   H25318977   1.423   2.466   0.686  0.1609  1.1992 -0.7436
   63MOL   H25418978   1.236   2.612   0.624  1.9029 -0.5720 -0.8803
   63MOL   H25518979   1.001   2.518   0.632  0.3534  2.3278  3.4938
   63MOL   H25618980   0.966   2.285   0.689 -0.7279  1.0206  2.6710
   63MOL   C25718981   1.368   2.088   0.866  0.0486  0.1723  0.4881
   63MOL   C25818982   1.344   2.161   0.996  0.4705 -0.6307 -0.1635
   63MOL   C25918983   1.212   2.118   1.061  0.4613 -0.4717  0.1654
   63MOL   C26018984   1.115   2.215   1.093  0.6713 -0.0779 -1.0136
   63MOL   C26118985   0.988   2.174   1.136 -0.5162 -0.2742 -0.3612
   63MOL   C26218986   0.970   2.039   1.172  0.0414 -0.6466 -0.4851
   63MOL   C26318987   1.080   1.954   1.151  0.5536  0.2195  0.2644
   63MOL   N26418988   1.195   1.984   1.090  0.1322 -0.4576  0.5012
   63MOL   H26518989   1.441   2.009   0.880 -0.7125 -1.2157 -2.8570
   63MOL   H26618990   1.283   2.024   0.843 -0.6617  1.4116 -0.4159
   63MOL   H26718991   1.336   2.268   0.976 -0.2169 -0.6998 -0.2548
   63MOL   H26818992   1.136   2.321   1.094 -1.8520  0.4660 -0.0796
   63MOL   H26918993   0.906   2.238   1.165  0.6851  1.6025 -1.0438
   63MOL   H27018994   0.884   1.996   1.220  2.1554 -3.8500  0.6820
   63MOL   H27118995   1.056   1.849   1.160 -0.8488  0.4595 -0.4707
   63MOL   C27218996   1.474   2.153   1.089 -0.4118  0.0061 -0.4632
   63MOL   C27318997   1.481   2.216   1.227  0.6555 -0.3592  0.0903
   63MOL   C27418998   1.624   2.207   1.270  0.5767 -0.1804 -0.5847
   63MOL   C27518999   1.658   2.157   1.400  0.1550  0.7712  0.0522
   63MOL   C27619000   1.792   2.154   1.445 -0.4650  0.3287 -0.3586
   63MOL   C27719001   1.895   2.181   1.350  0.1371  0.0819  0.3294
   63MOL   C27819002   1.856   2.227   1.225  0.0393  0.7531  0.7867
   63MOL   N27919003   1.725   2.244   1.184 -0.2041  0.2348 -0.4222
   63MOL   H28019004   1.558   2.181   1.024 -0.4745  2.5554  0.4954
   63MOL   H28119005   1.488   2.048   1.111 -1.8703  0.0814  0.8913
   63MOL   H28219006   1.416   2.155   1.289 -3.4629  1.7006 -2.0457
   63MOL   H28319007   1.571   2.133   1.460  0.0809  0.9169  0.0037
   63MOL   H28419008   1.813   2.123   1.546  1.2159 -0.4722 -0.9324
   63MOL   H28519009   1.997   2.158   1.377  0.1488 -0.6815 -0.3493
   63MOL   H28619010   1.934   2.248   1.154  1.7851  0.9911  2.7078
   63MOL   C28719011   1.442   2.367   1.232  0.1142  0.2547  0.1867
   63MOL   C28819012   1.417   2.420   1.379 -0.1888 -0.4548 -0.6343
   63MOL   C28919013   1.390   2.564   1.392 -0.2280  0.2009 -0.5215
   63MOL   C29019014   1.263   2.607   1.432 -0.0039 -0.5548  0.4340
   63MOL   C29119015   1.244   2.749   1.438  0.6296 -0.5145 -0.5093
   63MOL   C29219016   1.356   2.835   1.411 -0.2348  0.3514  0.1947
   63MOL   C29319017   1.479   2.771   1.386  0.7646  0.3004 -0.1719
   63MOL   N29419018   1.502   2.641   1.378  0.3210  0.6812  0.0448
   63MOL   H29519019   1.350   2.372   1.174 -0.9164  0.7023  1.8165
   63MOL   H29619020   1.511   2.428   1.175  1.0084 -0.3467  0.6130
   63MOL   H29719021   1.499   2.394   1.446 -2.0313  3.0808  3.2016
   63MOL   H29819022   1.180   2.540   1.445 -0.8871  0.9719  2.9248
   63MOL   H29919023   1.148   2.796   1.458 -0.0190 -1.7097 -0.7789
   63MOL   H30019024   1.349   2.938   1.442 -2.9608  0.2254  0.1662
   63MOL   H30119025   1.560   2.841   1.371 -0.1055  1.0656 -1.3845
   63MOL   H30219026   1.332   2.361   1.412  0.6124 -0.8647  0.7157
   64MOL     C119027   2.742   1.022   4.330 -0.1919  0.2377  0.2441
   64MOL     C219028   2.840   0.942   4.237  0.3954  0.4852 -0.4101
   64MOL     C319029   2.945   1.038   4.178  0.5106  0.2104 -0.5112
   64MOL     C419030   2.963   1.049   4.042 -0.2033 -0.1961 -0.3351
   64MOL     C519031   3.066   1.138   4.001 -1.2111 -0.4594  0.6383
   64MOL     C619032   3.144   1.207   4.096 -0.1171  0.4139  0.1960
   64MOL     C719033   3.125   1.179   4.227  0.2535  0.2896 -0.0874
   64MOL     N819034   3.027   1.100   4.268 -0.3662 -0.5002  0.3189
   64MOL     H919035   2.684   1.097   4.274  1.7685 -0.3376 -2.6685
   64MOL    H1019036   2.669   0.948   4.364 -1.4600  1.6812  0.7528
   64MOL    H1119037   2.769   0.908   4.162 -0.7707  3.1811 -0.5983
   64MOL    H1219038   2.906   1.002   3.963 -0.5755  1.9359 -1.3609
   64MOL    H1319039   3.073   1.163   3.896  0.3925 -0.0829  0.8262
   64MOL    H1419040   3.218   1.278   4.060 -1.5967  1.6254 -0.5010
   64MOL    H1519041   3.181   1.237   4.299 -1.9198  0.9765  1.0884
   64MOL    H1619042   2.794   1.075   4.409  0.5474 -3.5449  2.3979
   64MOL    C1719043   2.910   0.827   4.316  0.1322 -0.5555  0.0844
   64MOL    C1819044   2.984   0.727   4.226 -0.2475  0.1532  0.6508
   64MOL    C1919045   3.084   0.643   4.307 -0.0272 -0.3662 -0.1553
   64MOL    C2019046   3.219   0.627   4.267 -0.8017 -0.2409 -0.1766
   64MOL    C2119047   3.300   0.529   4.329  0.2307 -0.2631  0.4161
   64MOL    C2219048   3.254   0.467   4.446  1.1821 -0.3969  0.5037
   64MOL    C2319049   3.118   0.489   4.484  1.1928 -0.5994 -0.4805
   64MOL    N2419050   3.033   0.582   4.416 -0.8121 -0.2756 -0.1905
   64MOL    H2519051   2.827   0.777   4.365 -1.2544 -0.5794 -2.2001
   64MOL    H2619052   2.985   0.866   4.384  0.7397 -0.6029 -0.5520
   64MOL    H2719053   3.054   0.788   4.169  0.3071 -1.4460 -0.4232
   64MOL    H2819054   3.260   0.675   4.179 -0.8912  1.8980  0.8985
   64MOL    H2919055   3.403   0.518   4.301 -0.9443 -0.4807 -4.0809
   64MOL    H3019056   3.323   0.401   4.497  1.0374  0.6704  2.1413
   64MOL    H3119057   3.076   0.433   4.566  0.7453 -0.1239 -0.3787
   64MOL    C3219058   2.897   0.646   4.129  0.2335 -0.5191  0.2572
   64MOL    C3319059   2.979   0.560   4.028 -0.2923  0.2243  0.6331
   64MOL    C3419060   2.908   0.427   3.992  0.4109  0.1463  0.1139
   64MOL    C3519061   2.974   0.307   4.003 -0.7805  0.5713 -0.1098
   64MOL    C3619062   2.913   0.189   3.963 -0.8211 -0.0924 -0.2091
   64MOL    C3719063   2.777   0.194   3.931  0.7816  0.2676  0.0866
   64MOL    C3819064   2.708   0.317   3.933 -0.2287  1.1905 -0.3919
   64MOL    N3919065   2.775   0.434   3.954 -0.6592 -0.4041 -1.2109
   64MOL    H4019066   2.822   0.708   4.079 -0.2471  1.2711  3.0612
   64MOL    H4119067   2.827   0.586   4.186 -0.9333  0.9694  0.4217
   64MOL    H4219068   3.076   0.525   4.064 -0.1385 -1.6777 -1.4744
   64MOL    H4319069   3.079   0.308   4.028 -0.7788  0.1443 -0.0977
   64MOL    H4419070   2.970   0.098   3.953  1.1135  1.0483  0.3287
   64MOL    H4519071   2.713   0.111   3.905 -0.2855  1.0173  0.3073
   64MOL    H4619072   2.603   0.315   3.908 -0.9503  2.6534  2.3192
   64MOL    C4719073   3.011   0.649   3.905 -0.2847  0.3505 -0.3215
   64MOL    C4819074   3.147   0.620   3.823 -0.3090  0.1022  0.2413
   64MOL    C4919075   3.159   0.724   3.704  0.4880 -0.0920 -0.4614
   64MOL    C5019076   3.154   0.677   3.567  0.8506  0.4965  0.1840
   64MOL    C5119077   3.150   0.766   3.463  0.1477  0.5176  0.4399
   64MOL    C5219078   3.176   0.905   3.497  0.1285  0.4202 -0.6061
   64MOL    C5319079   3.178   0.941   3.637  0.0019 -0.3834 -0.4438
   64MOL    N5419080   3.168   0.853   3.740 -1.0947 -0.6996  0.5001
   64MOL    H5519081   3.024   0.746   3.954  0.5719  0.6929 -1.2144
   64MOL    H5619082   2.922   0.646   3.842  0.2806 -1.0820 -1.0607
   64MOL    H5719083   3.129   0.522   3.777 -0.6813 -0.2194  1.0708
   64MOL    H5819084   3.163   0.574   3.535  0.7052  0.5208  0.0644
   64MOL    H5919085   3.159   0.734   3.360  0.4419  0.2896  0.5362
   64MOL    H6019086   3.186   0.988   3.429  1.6931  0.9287  0.2044
   64MOL    H6119087   3.188   1.044   3.666 -2.0533 -0.1303 -0.6037
   64MOL    C6219088   3.279   0.617   3.907  0.3355 -0.0704 -0.5227
   64MOL    C6319089   3.406   0.585   3.826 -0.5831  0.2374 -0.3031
   64MOL    C6419090   3.515   0.620   3.922 -0.1197  0.3344 -0.7243
   64MOL    C6519091   3.609   0.718   3.887 -0.0599  0.7301 -0.1965
   64MOL    C6619092   3.716   0.749   3.969 -0.2673  0.8180 -0.2526
   64MOL    C6719093   3.720   0.683   4.091 -0.0759 -0.5338 -0.0519
   64MOL    C6819094   3.625   0.580   4.120 -0.5418  0.7306 -0.2244
   64MOL    N6919095   3.523   0.551   4.035 -0.7337 -0.0438 -0.0739
   64MOL    H7019096   3.265   0.549   3.991  1.1904  0.7690  0.3083
   64MOL    H7119097   3.295   0.716   3.949  0.2593 -0.2886  0.0215
   64MOL    H7219098   3.416   0.654   3.742 -1.9169 -1.2031 -1.6769
   64MOL    H7319099   3.604   0.762   3.788 -1.1507 -3.8430 -2.3269
   64MOL    H7419100   3.795   0.810   3.930  0.7311 -1.2906 -1.6067
   64MOL    H7519101   3.800   0.702   4.161 -0.2486  0.4361 -0.1090
   64MOL    H7619102   3.637   0.533   4.217  0.9817 -1.3256 -1.3610
   64MOL    C7719103   3.415   0.441   3.771 -0.8423  0.5090  0.1615
   64MOL    C7819104   3.438   0.422   3.615  0.0039 -0.3001  0.4572
   64MOL    C7919105   3.559   0.493   3.558 -0.2883  0.5958  0.4352
   64MOL    C8019106   3.550   0.607   3.485  0.5930 -0.8232 -0.1927
   64MOL    C8119107   3.665   0.678   3.449 -0.9929 -0.3563 -0.1936
   64MOL    C8219108   3.790   0.623   3.468  0.4751  0.3478  0.5025
   64MOL    C8319109   3.792   0.499   3.530  0.0706  0.1122 -0.1463
   64MOL    N8419110   3.679   0.441   3.586 -0.4730  0.3610  0.2690
   64MOL    H8519111   3.328   0.379   3.793 -0.7732 -0.7137 -2.8403
   64MOL    H8619112   3.501   0.394   3.819 -0.9157  1.9798  1.8044
   64MOL    H8719113   3.357   0.455   3.550  1.2451 -1.0075 -1.5040
   64MOL    H8819114   3.453   0.653   3.471  0.5455 -0.5990  0.8051
   64MOL    H8919115   3.668   0.775   3.402  1.4537 -0.4930 -0.4196
   64MOL    H9019116   3.879   0.670   3.430  0.8889 -0.4973  0.4069
   64MOL    H9119117   3.886   0.453   3.559 -0.7620 -0.4137  1.7804
   64MOL    C9219118   3.434   0.281   3.561  0.4299 -0.1775 -0.2310
   64MOL    C9319119   3.311   0.188   3.583  0.0192  0.0948  0.5523
   64MOL    C9419120   3.178   0.260   3.539  0.3717 -0.2391  0.6435
   64MOL    C9519121   3.077   0.301   3.632 -0.1081  0.3687  0.3000
   64MOL    C9619122   2.958   0.354   3.577  0.3551  0.6936 -0.0938
   64MOL    C9719123   2.951   0.388   3.438 -0.3224 -0.0281 -0.1267
   64MOL    C9819124   3.055   0.339   3.360  0.3168  0.0034 -0.6719
   64MOL    N9919125   3.168   0.283   3.409  0.0947 -0.1688 -0.7773
   64MOL   H10019126   3.521   0.235   3.609  0.6331  0.9940  0.5808
   64MOL   H10119127   3.439   0.286   3.453  4.0571 -0.1930 -0.1176
   64MOL   H10219128   3.301   0.185   3.692  0.2211  0.3543  0.5793
   64MOL   H10319129   3.086   0.283   3.738 -0.8291 -0.7029  0.1840
   64MOL   H10419130   2.865   0.358   3.633 -0.2196  1.0917 -1.0584
   64MOL   H10519131   2.861   0.428   3.393  0.1135 -1.1452 -2.0493
   64MOL   H10619132   3.060   0.346   3.252  1.4256 -2.0830 -0.7797
   64MOL   C10719133   3.322   0.046   3.518  0.4975 -0.1633  0.3818
   64MOL   C10819134   3.419   8.106   3.592  0.1076  0.7625  0.2263
   64MOL   C10919135   3.364   8.066   3.728 -0.6906  0.1063 -0.1923
   64MOL   C11019136   3.427   8.098   3.853  0.0890 -0.7478 -0.5846
   64MOL   C11119137   3.366   8.050   3.973 -0.1370  0.9575 -0.5252
   64MOL   C11219138   3.242   7.974   3.959 -0.3143 -0.0635 -0.3120
   64MOL   C11319139   3.193   7.947   3.826 -0.2659  0.1593 -0.2093
   64MOL   N11419140   3.253   7.991   3.715  0.1622 -0.2821  0.2978
   64MOL   H11519141   3.350   0.072   3.416  1.5778  1.0434  0.9830
   64MOL   H11619142   3.227   8.144   3.510 -0.7088  2.1104 -1.1170
   64MOL   H11719143   3.511   0.010   3.611  0.9373 -0.8080  0.9310
   64MOL   H11819144   3.521   8.152   3.855 -0.0064 -0.5486 -1.2623
   64MOL   H11919145   3.397   8.068   4.075 -1.0471 -2.1321  0.3686
   64MOL   H12019146   3.185   7.949   4.048 -1.5158  3.2251 -0.1008
   64MOL   H12119147   3.103   7.889   3.814 -0.7949  0.7903  0.6626
   64MOL   C12219148   3.463   7.982   3.506 -0.1577  0.6160 -0.3135
   64MOL   C12319149   3.552   8.013   3.388 -0.5104  0.6178 -0.2577
   64MOL   C12419150   3.658   8.120   3.409 -0.4509  0.5642 -1.2245
   64MOL   C12519151   3.645   0.091   3.340  0.4540  0.1680 -0.2652
   64MOL   C12619152   3.744   0.189   3.360 -0.0149 -0.0510 -0.0096
   64MOL   C12719153   3.834   0.167   3.465 -0.2543  0.4086 -0.0604
   64MOL   C12819154   3.832   0.041   3.533 -0.3232  0.6537  0.3641
   64MOL   N12919155   3.751   8.087   3.505  0.7419 -0.0367 -0.3569
   64MOL   H13019156   3.376   7.922   3.482  0.2299 -0.1706  0.2325
   64MOL   H13119157   3.516   7.923   3.581 -1.5799 -0.3149 -0.0378
   64MOL   H13219158   3.494   8.058   3.308  0.2678  0.5019 -0.8895
   64MOL   H13319159   3.564   0.116   3.274 -2.3375 -2.8866  1.8280
   64MOL   H13419160   3.735   0.285   3.312  0.5341 -0.6954 -1.4518
   64MOL   H13519161   3.898   0.244   3.504  1.2792 -1.4263  1.1723
   64MOL   H13619162   3.909   0.021   3.607  0.6223 -0.6451 -0.9333
   64MOL   C13719163   3.602   7.889   3.305 -0.4346  0.7711  0.5869
   64MOL   C13819164   3.673   7.921   3.164 -0.0802 -0.1791  0.2239
   64MOL   C13919165   3.726   7.791   3.115  0.4067 -0.2055  0.9262
   64MOL   C14019166   3.860   7.774   3.102 -0.3961  0.2022 -0.2178
   64MOL   C14119167   3.907   7.653   3.056 -0.0433  1.0701 -0.1897
   64MOL   C14219168   3.813   7.554   3.020 -0.4999 -0.2074 -0.1803
   64MOL   C14319169   3.679   7.578   3.034  0.3818  0.1355  0.0180
   64MOL   N14419170   3.637   7.698   3.078  0.1412  0.0904 -0.1436
   64MOL   H14519171   3.519   7.818   3.306  0.8776 -0.7959  0.6587
   64MOL   H14619172   3.678   7.838   3.364 -2.3277 -1.5354  1.1021
   64MOL   H14719173   3.754   7.992   3.176  0.3355 -0.8136  1.2878
   64MOL   H14819174   3.923   7.857   3.129 -0.0768 -0.2655  0.4838
   64MOL   H14919175   4.014   7.642   3.049 -0.4182 -1.8472 -2.4538
   64MOL   H15019176   3.839   7.450   3.007 -1.3756 -0.3616 -0.6808
   64MOL   H15119177   3.603   7.502   3.022  1.0273 -0.5360  0.1070
   64MOL   C15219178   3.579   8.003   3.067  1.1774  0.1591 -0.2096
   64MOL   C15319179   3.440   7.942   3.037  0.1450  0.5970  0.4762
   64MOL   C15419180   3.317   8.009   3.102  0.3380 -0.0462  0.5591
   64MOL   C15519181   3.251   7.936   3.206  0.5363 -0.3452 -0.1364
   64MOL   C15619182   3.139   8.007   3.257 -0.0890  0.6750 -0.0694
   64MOL   C15719183   3.124   8.139   3.238 -0.0085 -0.2281  0.3051
   64MOL   C15819184   3.202   0.055   3.139 -0.2984  0.0414  0.0504
   64MOL   N15919185   3.297   8.137   3.070  0.1482 -0.3131 -0.1404
   64MOL   H16019186   3.632   8.014   2.972 -1.8052 -2.3736 -2.2609
   64MOL   H16119187   3.566   8.108   3.092 -0.8478 -0.0467 -0.3253
   64MOL   H16219188   3.443   7.840   3.076 -1.1371 -0.1962 -1.4202
   64MOL   H16319189   3.258   7.831   3.228 -0.3091 -0.4327 -0.2937
   64MOL   H16419190   3.067   7.957   3.320  1.3542 -0.1739  0.9420
   64MOL   H16519191   3.041   0.040   3.281 -0.1331  0.0904 -0.3123
   64MOL   H16619192   3.179   0.154   3.104 -0.3794  0.2150  0.5880
   64MOL   C16719193   3.410   7.932   2.889  0.0874 -0.2298  0.3036
   64MOL   C16819194   3.261   7.900   2.842 -0.1056 -0.5001 -0.3254
   64MOL   C16919195   3.188   8.003   2.762  0.0084  0.1754 -0.2039
   64MOL   C17019196   3.049   8.027   2.778  0.1479 -0.1585  0.2421
   64MOL   C17119197   2.992   8.133   2.705  0.2855 -0.5870  0.4006
   64MOL   C17219198   3.076   0.051   2.613  0.0907 -0.3813  0.1117
   64MOL   C17319199   3.205   0.003   2.594  0.5385 -0.4059  0.4088
   64MOL   N17419200   3.260   8.055   2.661 -0.0388 -0.7682 -0.5212
   64MOL   H17519201   3.481   7.879   2.825 -0.2018 -2.6417  1.9339
   64MOL   H17619202   3.413   8.035   2.852  1.4010 -0.8687 -1.4400
   64MOL   H17719203   3.196   7.882   2.928 -1.2819  0.9844 -0.8607
   64MOL   H17819204   2.989   7.973   2.849  0.0769  0.8167  0.9411
   64MOL   H17919205   2.886   0.004   2.714  0.6967  1.4230  0.3690
   64MOL   H18019206   3.043   0.142   2.566 -0.5614 -0.3958  0.5324
   64MOL   H18119207   3.266   0.050   2.517  2.9842 -2.2971  1.1390
   64MOL   C18219208   3.257   7.763   2.767 -0.7307  0.2257  0.1668
   64MOL   C18319209   3.302   7.645   2.845 -0.2141  0.5561 -0.3998
   64MOL   C18419210   3.217   7.619   2.969  0.4368 -0.1096 -0.0707
   64MOL   C18519211   3.291   7.600   3.085  0.2210  0.3404 -0.4495
   64MOL   C18619212   3.224   7.552   3.199 -0.2585  0.1314 -0.1089
   64MOL   C18719213   3.083   7.549   3.194  0.3792  0.4102  0.1228
   64MOL   C18819214   3.020   7.572   3.073 -0.0194 -0.0328 -0.6998
   64MOL   N18919215   3.086   7.609   2.958  0.0200 -1.3157  0.4280
   64MOL   H19019216   3.310   7.781   2.674  1.5436  1.2417  1.5949
   64MOL   H19119217   3.156   7.726   2.748  0.0058 -2.3286  1.1112
   64MOL   H19219218   3.404   7.665   2.877  0.2082  0.7843 -1.8367
   64MOL   H19319219   3.398   7.600   3.067  0.9365  3.3353  3.2092
   64MOL   H19419220   3.277   7.522   3.288  0.1772 -1.1312 -0.7873
   64MOL   H19519221   3.026   7.503   3.274  0.0878  2.0587  0.8789
   64MOL   H19619222   2.913   7.555   3.071 -0.3792  2.0231 -0.1882
   64MOL   C19719223   3.314   7.531   2.742  0.3978  0.5828 -0.2282
   64MOL   C19819224   3.360   7.388   2.785  0.1150  0.0829  0.3039
   64MOL   C19919225   3.250   7.297   2.844 -0.8596 -0.0583  0.6482
   64MOL   C20019226   3.255   7.263   2.980  0.1843  0.3643  0.0478
   64MOL   C20119227   3.162   7.172   3.030  0.2953  0.7459 -0.3901
   64MOL   C20219228   3.069   7.118   2.937 -0.0418  0.2073  0.0959
   64MOL   C20319229   3.070   7.160   2.807  0.5694 -0.8331  0.0419
   64MOL   N20419230   3.165   7.247   2.757 -0.6323 -0.3980 -0.2809
   64MOL   H20519231   3.393   7.559   2.673  0.8444 -1.7066 -0.6897
   64MOL   H20619232   3.224   7.518   2.681  1.0837 -0.1337 -1.1002
   64MOL   H20719233   3.425   7.415   2.867 -0.9352  2.1230  0.4964
   64MOL   H20819234   3.323   7.315   3.047  1.6460 -0.6285 -0.6346
   64MOL   H20919235   3.148   7.137   3.131 -1.7437 -2.1185 -1.5717
   64MOL   H21019236   2.989   7.051   2.968  1.8280 -1.6230  1.0943
   64MOL   H21119237   2.988   7.144   2.739 -0.3954  2.0860  0.4474
   64MOL   C21219238   3.455   7.318   2.688  0.4348 -0.8674 -0.1222
   64MOL   C21319239   3.513   7.176   2.723 -0.0456 -0.5394 -0.0348
   64MOL   C21419240   3.565   7.116   2.593 -0.0191  0.2240 -0.6810
   64MOL   C21519241   3.490   7.006   2.556 -0.1227 -0.2317  0.2723
   64MOL   C21619242   3.525   6.947   2.435 -0.5075 -0.0020 -0.0207
   64MOL   C21719243   3.615   7.008   2.348 -0.1485 -0.3314 -0.2363
   64MOL   C21819244   3.682   7.126   2.397 -0.3551  0.2090  0.1334
   64MOL   N21919245   3.659   7.181   2.518  0.1860 -0.7187 -0.6493
   64MOL   H22019246   3.532   7.392   2.663 -0.2677 -0.1903 -0.2854
   64MOL   H22119247   3.392   7.304   2.601 -1.0849  0.0484  0.8126
   64MOL   H22219248   3.426   7.116   2.751 -1.1872  1.5039  0.8568
   64MOL   H22319249   3.415   6.965   2.623  0.4056 -0.9919  0.3951
   64MOL   H22419250   3.475   6.859   2.399  0.8250 -0.1662 -1.5012
   64MOL   H22519251   3.630   6.966   2.250 -0.0734  0.7967 -0.7090
   64MOL   H22619252   3.758   7.175   2.338  0.0318 -0.7049 -0.1394
   64MOL   C22719253   3.607   7.170   2.844  0.2048  0.5479  0.0915
   64MOL   C22819254   3.694   7.045   2.866  0.0334  0.0075 -0.3770
   64MOL   C22919255   3.837   7.063   2.822 -0.2075 -0.0203  0.5424
   64MOL   C23019256   3.891   7.014   2.702  0.4525 -0.5236 -0.2034
   64MOL   C23119257   4.021   7.041   2.662 -0.5049 -0.5316 -0.6603
   64MOL   C23219258   4.101   7.124   2.745 -0.5504 -0.0649  0.2458
   64MOL   C23319259   4.040   7.179   2.860  0.7493 -0.7317 -0.2418
   64MOL   N23419260   3.911   7.147   2.898 -0.4352  0.2181  0.1437
   64MOL   H23519261   3.543   7.189   2.930  0.3288  0.6983  0.1531
   64MOL   H23619262   3.678   7.253   2.845  0.2658  0.5205 -1.0770
   64MOL   H23719263   3.659   6.963   2.803 -2.8049  2.0692 -1.5806
   64MOL   H23819264   3.833   6.953   2.634 -1.6741  2.3732 -1.0707
   64MOL   H23919265   4.079   7.006   2.577  1.6486 -3.9382  2.0862
   64MOL   H24019266   4.205   7.134   2.716 -0.5844 -1.0955 -0.2655
   64MOL   H24119267   4.102   7.246   2.919  1.2554 -2.8860  1.7562
   64MOL   C24219268   3.696   6.988   3.015 -0.1527  0.1989  0.0512
   64MOL   C24319269   3.562   6.919   3.069 -0.1019 -0.1026  0.2487
   64MOL   C24419270   3.486   6.852   2.957 -0.1201  0.5000  0.6701
   64MOL   C24519271   3.359   6.892   2.917 -0.1276 -0.1032  0.1434
   64MOL   C24619272   3.297   6.825   2.809  0.3893  0.5395 -0.7731
   64MOL   C24719273   3.360   6.715   2.755 -0.2118 -0.1087 -0.0922
   64MOL   C24819274   3.491   6.681   2.803  0.4717 -0.0409 -0.0370
   64MOL   N24919275   3.552   6.752   2.901 -0.4404 -0.1098  0.1401
   64MOL   H25019276   3.725   7.063   3.088 -1.0802  0.2568  0.3704
   64MOL   H25119277   3.773   6.912   3.020  1.3771  1.7174 -0.0400
   64MOL   H25219278   3.493   7.001   3.092  0.6175  0.6417 -0.1997
   64MOL   H25319279   3.300   6.971   2.961  0.1473  0.4048 -0.3915
   64MOL   H25419280   3.196   6.848   2.780 -0.1021 -1.3685 -0.6791
   64MOL   H25519281   3.307   6.660   2.679 -0.2463  0.8746 -0.7815
   64MOL   H25619282   3.551   6.600   2.763 -0.1293 -1.0469  1.0559
   64MOL   C25719283   3.572   6.835   3.196 -0.3912 -0.1664 -0.0705
   64MOL   C25819284   3.549   6.908   3.334  0.4849  0.4205  0.6980
   64MOL   C25919285   3.409   6.871   3.392 -0.4609  0.0540  0.1986
   64MOL   C26019286   3.394   6.778   3.496  0.4706 -0.6553  0.0568
   64MOL   C26119287   3.263   6.750   3.533 -0.0801  0.3435  0.2813
   64MOL   C26219288   3.151   6.805   3.470 -0.2617  0.0307  0.1098
   64MOL   C26319289   3.178   6.895   3.359  0.0791  0.8263  0.7598
   64MOL   N26419290   3.305   6.931   3.333  0.5010 -0.3979 -0.6627
   64MOL   H26519291   3.671   6.790   3.196 -1.0504 -1.6842  1.3197
   64MOL   H26619292   3.509   6.746   3.188  0.2560 -0.7567  1.1041
   64MOL   H26719293   3.548   7.015   3.312 -3.2686  0.6938  1.7680
   64MOL   H26819294   3.473   6.720   3.542 -1.3122 -0.2480  3.8259
   64MOL   H26919295   3.233   6.690   3.617 -3.8803  1.8590  0.0795
   64MOL   H27019296   3.047   6.780   3.488 -1.2762  1.7389 -2.9484
   64MOL   H27119297   3.094   6.941   3.309 -0.4896  0.5525  1.4419
   64MOL   C27219298   3.661   6.889   3.434 -0.3577 -0.6600 -0.0750
   64MOL   C27319299   3.792   6.955   3.409  0.0383 -0.0568 -0.1894
   64MOL   C27419300   3.796   7.110   3.429 -0.5775 -1.0004  0.5652
   64MOL   C27519301   3.851   7.198   3.328 -0.2288 -0.0507 -0.4173
   64MOL   C27619302   3.851   7.335   3.352  0.0575 -0.4148 -0.7631
   64MOL   C27719303   3.817   7.377   3.479 -0.1557  0.7529  0.1128
   64MOL   C27819304   3.769   7.285   3.571 -0.0592 -0.4955 -0.9892
   64MOL   N27919305   3.761   7.153   3.552 -0.5236 -0.3199 -0.1495
   64MOL   H28019306   3.682   6.782   3.432 -1.0990 -0.8130 -0.0318
   64MOL   H28119307   3.631   6.919   3.534  0.3098 -1.0733  0.2523
   64MOL   H28219308   3.820   6.938   3.305  0.3833 -1.3616  0.1078
   64MOL   H28319309   3.875   7.147   3.235  1.8921  1.0054 -0.4793
   64MOL   H28419310   3.883   7.408   3.278 -2.6037  1.8306  0.2374
   64MOL   H28519311   3.811   7.483   3.501 -1.0700  0.8335 -0.5073
   64MOL   H28619312   3.729   7.317   3.666  1.8132  0.9358 -0.6486
   64MOL   C28719313   3.902   6.894   3.489  0.3330 -0.2686 -0.2352
   64MOL   C28819314   3.966   6.764   3.435 -0.1030 -0.2665  0.0070
   64MOL   C28919315   3.989   6.765   3.284  0.0335  0.1481  0.9025
   64MOL   C29019316   4.086   6.843   3.216  0.4188  0.2134 -0.7659
   64MOL   C29119317   4.093   6.837   3.074  0.5438 -0.8308 -0.2834
   64MOL   C29219318   4.015   6.750   3.001  0.4454 -0.1576 -0.2335
   64MOL   C29319319   3.920   6.679   3.076  0.0034  0.5346  0.4006
   64MOL   N29419320   3.908   6.692   3.211 -0.0072  0.8063 -0.3291
   64MOL   H29519321   3.880   6.885   3.596  0.2399  2.6545  0.0293
   64MOL   H29619322   3.980   6.970   3.481 -0.1577  0.0125 -2.7615
   64MOL   H29719323   3.894   6.687   3.459 -1.1438  0.1001 -1.7999
   64MOL   H29819324   4.153   6.906   3.273  0.0923 -0.9312  0.9466
   64MOL   H29919325   4.173   6.885   3.019  0.0595 -2.6470 -2.6709
   64MOL   H30019326   4.028   6.732   2.896  2.2262  0.3236 -0.1119
   64MOL   H30119327   3.846   6.613   3.033  0.0992 -1.7864  3.5346
   64MOL   H30219328   4.059   6.757   3.491 -0.3169  0.7904  0.5116
   65MOL     C119329   3.316   2.001   7.313  0.8786 -0.4059 -0.4570
   65MOL     C219330   3.447   2.023   7.238  0.5206 -0.6720 -0.7235
   65MOL     C319331   3.534   1.900   7.245  0.2893 -0.0228 -0.0714
   65MOL     C419332   3.670   1.904   7.266 -0.2342  0.1305 -0.1731
   65MOL     C519333   3.745   1.789   7.271 -0.1664  0.3261  0.3845
   65MOL     C619334   3.690   1.672   7.233 -0.7397 -0.4004 -0.1461
   65MOL     C719335   3.552   1.671   7.204  0.0168  0.1013 -0.2526
   65MOL     N819336   3.474   1.780   7.215 -0.6141 -0.4682  0.0099
   65MOL     H919337   3.254   1.924   7.267 -0.7871 -0.1319  1.2647
   65MOL    H1019338   3.322   1.966   7.416  0.1217 -1.4372 -0.7572
   65MOL    H1119339   3.499   2.110   7.277  0.0792 -1.0840  0.8242
   65MOL    H1219340   3.710   2.001   7.293 -2.9951  1.4567 -0.6664
   65MOL    H1319341   3.848   1.787   7.301  0.3049 -1.9117 -1.2155
   65MOL    H1419342   3.744   1.578   7.237  3.4644  1.8378 -1.2853
   65MOL    H1519343   3.511   1.573   7.185 -1.8322  0.8541 -0.1740
   65MOL    H1619344   3.256   2.092   7.312 -0.5194 -1.3166 -1.3901
   65MOL    C1719345   3.411   2.041   7.085  0.0835 -0.0805 -0.2415
   65MOL    C1819346   3.354   2.188   7.041  0.0881  0.3304  0.4360
   65MOL    C1919347   3.428   2.305   7.106 -0.5682 -0.0031  0.7626
   65MOL    C2019348   3.564   2.321   7.082 -0.4245 -0.1262  0.1461
   65MOL    C2119349   3.636   2.416   7.159 -0.1990  0.6351 -0.1775
   65MOL    C2219350   3.561   2.501   7.235  0.0578 -0.0924  0.1378
   65MOL    C2319351   3.425   2.486   7.241 -0.0343 -0.3938  0.3413
   65MOL    N2419352   3.358   2.384   7.186  0.1332 -0.0006 -0.0813
   65MOL    H2519353   3.349   1.959   7.048 -2.7377  1.3719  1.1161
   65MOL    H2619354   3.508   2.042   7.035  0.8437 -0.5488  1.2181
   65MOL    H2719355   3.252   2.192   7.079 -0.9884  0.6902 -2.3712
   65MOL    H2819356   3.609   2.256   7.009  2.8343  0.8302  1.2406
   65MOL    H2919357   3.744   2.413   7.152 -0.2734  1.2054 -1.8282
   65MOL    H3019358   3.623   2.570   7.291 -0.3328  0.8665 -0.5969
   65MOL    H3119359   3.374   2.568   7.289  0.0548 -1.2186  1.8648
   65MOL    C3219360   3.337   2.198   6.885  0.0549 -0.1882 -0.7531
   65MOL    C3319361   3.253   2.325   6.840 -0.2989 -0.5209 -0.7814
   65MOL    C3419362   3.338   2.450   6.844  0.1718  0.0013 -0.0555
   65MOL    C3519363   3.306   2.564   6.915 -0.3600  0.4442 -0.1513
   65MOL    C3619364   3.392   2.676   6.919 -0.6619  0.0339 -0.1308
   65MOL    C3719365   3.505   2.670   6.836 -0.1117  0.7428  0.1503
   65MOL    C3819366   3.522   2.555   6.757 -0.1327 -0.2138 -0.6193
   65MOL    N3919367   3.442   2.447   6.765  0.0107 -0.4375  0.3706
   65MOL    H4019368   3.295   2.104   6.849  0.4648 -0.3582 -0.7832
   65MOL    H4119369   3.436   2.199   6.840  1.4375 -0.1917  2.2098
   65MOL    H4219370   3.174   2.352   6.910  0.5702  0.3915 -0.1238
   65MOL    H4319371   3.215   2.563   6.973 -2.0379  0.9895 -2.6849
   65MOL    H4419372   3.365   2.761   6.979  2.2443  1.7144 -1.1241
   65MOL    H4519373   3.575   2.752   6.831 -1.4156  1.8963  0.6591
   65MOL    H4619374   3.602   2.540   6.685 -0.3615  1.3073 -1.2092
   65MOL    C4719375   3.196   2.307   6.703  0.3554 -0.1872  0.3548
   65MOL    C4819376   3.082   2.200   6.691  0.4052 -0.2050 -0.0688
   65MOL    C4919377   2.959   2.258   6.766  0.0495 -0.0851 -0.6231
   65MOL    C5019378   2.916   2.198   6.886  0.2426  0.5697  0.0636
   65MOL    C5119379   2.810   2.259   6.957  0.2425 -0.4938  0.2840
   65MOL    C5219380   2.752   2.373   6.900  0.3239 -0.1095  0.0276
   65MOL    C5319381   2.807   2.422   6.784 -1.5403  0.0287  0.1729
   65MOL    N5419382   2.901   2.362   6.711  0.1767 -0.0888  0.0354
   65MOL    H5519383   3.280   2.286   6.636  0.3787  0.5378  0.1563
   65MOL    H5619384   3.154   2.399   6.662  2.7625  0.1612 -1.4133
   65MOL    H5719385   3.109   2.105   6.736 -2.1157 -1.3202 -0.8528
   65MOL    H5819386   2.969   2.123   6.942 -1.9668 -1.3027 -0.2765
   65MOL    H5919387   2.776   2.222   7.052 -1.5935 -1.4641 -0.7108
   65MOL    H6019388   2.678   2.426   6.958 -1.1467 -1.4332 -0.6025
   65MOL    H6119389   2.758   2.506   6.737 -1.1879  1.9235  3.1424
   65MOL    C6219390   3.041   2.167   6.546  0.0250  0.1268 -0.0463
   65MOL    C6319391   3.103   2.047   6.466 -0.2897  0.4247 -0.1202
   65MOL    C6419392   3.256   2.045   6.469 -0.6573 -0.0342  0.4983
   65MOL    C6519393   3.331   2.075   6.350 -0.0618 -0.0826  0.2155
   65MOL    C6619394   3.468   2.054   6.355 -0.8771  0.3792  0.1110
   65MOL    C6719395   3.529   2.017   6.475  0.1796  0.5905  0.0719
   65MOL    C6819396   3.451   2.004   6.589  0.7009 -0.1245 -0.1606
   65MOL    N6919397   3.316   2.010   6.584 -0.0319 -0.6249  0.5507
   65MOL    H7019398   3.055   2.262   6.494 -0.9697  1.0459  1.2930
   65MOL    H7119399   2.934   2.147   6.545  0.0452 -0.1341  1.5168
   65MOL    H7219400   3.078   2.064   6.361  1.1488  1.0613 -0.3683
   65MOL    H7319401   3.273   2.105   6.263  0.4643 -1.3627 -0.5936
   65MOL    H7419402   3.522   2.085   6.267 -0.0704 -2.0517 -0.3018
   65MOL    H7519403   3.637   2.019   6.482  0.1147  2.2393  0.7297
   65MOL    H7619404   3.493   1.977   6.685  0.4706 -1.3194 -0.3875
   65MOL    C7719405   3.041   1.909   6.506 -0.1480 -0.2010  0.4626
   65MOL    C7819406   2.904   1.870   6.439  0.2161 -0.0589  0.3824
   65MOL    C7919407   2.914   1.855   6.285 -0.2387 -0.2506  0.6729
   65MOL    C8019408   2.954   1.735   6.222  0.6666 -0.3112 -0.5382
   65MOL    C8119409   2.971   1.727   6.086 -0.2727 -0.1640 -0.2997
   65MOL    C8219410   2.940   1.843   6.008 -1.1689  0.3104  0.1267
   65MOL    C8319411   2.899   1.960   6.079 -0.6802  0.6376 -0.4025
   65MOL    N8419412   2.894   1.963   6.217  0.3326 -0.0627  0.1070
   65MOL    H8519413   3.058   1.891   6.613  1.0793 -1.0140  0.1411
   65MOL    H8619414   3.112   1.839   6.463 -0.5902  0.3509 -1.2027
   65MOL    H8719415   2.832   1.950   6.450  1.2179  1.0575 -0.9071
   65MOL    H8819416   2.970   1.645   6.280 -0.1777  0.0637  0.3011
   65MOL    H8919417   3.003   1.639   6.033  1.1717 -2.4570  4.1455
   65MOL    H9019418   2.948   1.844   5.901  0.3885 -1.4699  0.1930
   65MOL    H9119419   2.877   2.052   6.028 -0.1931 -0.2518 -2.2722
   65MOL    C9219420   2.844   1.752   6.512 -0.5569  0.3632  0.4195
   65MOL    C9319421   2.789   1.786   6.651  0.0552 -0.6947 -0.6256
   65MOL    C9419422   2.662   1.870   6.637 -0.3705  0.6651 -0.0931
   65MOL    C9519423   2.657   2.004   6.692  0.7977  0.0732  0.0439
   65MOL    C9619424   2.533   2.073   6.678 -0.2567  0.3237 -0.1198
   65MOL    C9719425   2.433   2.013   6.605  0.5768  0.9325 -0.7357
   65MOL    C9819426   2.453   1.894   6.540 -0.8138 -0.7651  0.1635
   65MOL    N9919427   2.565   1.820   6.554  0.3460  0.1630 -0.3977
   65MOL   H10019428   2.902   1.661   6.522  0.2733  0.8486  0.0988
   65MOL   H10119429   2.761   1.715   6.452  0.0688  1.5650 -1.2436
   65MOL   H10219430   2.872   1.838   6.699  0.9747 -1.8489 -0.9228
   65MOL   H10319431   2.730   2.040   6.763 -1.6417  1.8512  1.7268
   65MOL   H10419432   2.512   2.167   6.727  1.3474 -0.0775  1.4123
   65MOL   H10519433   2.336   2.059   6.600 -0.1850 -0.8141 -2.7586
   65MOL   H10619434   2.374   1.848   6.481 -0.7443 -1.3724  0.5405
   65MOL   C10719435   2.776   1.665   6.750 -0.0867  0.1202 -0.2288
   65MOL   C10819436   2.891   1.565   6.770  0.5933 -0.2017 -0.4731
   65MOL   C10919437   3.025   1.635   6.780 -0.4712  0.3067  0.5549
   65MOL   C11019438   3.119   1.606   6.684  0.2471  0.5843  0.2401
   65MOL   C11119439   3.242   1.670   6.684  0.1662  0.4822  0.3945
   65MOL   C11219440   3.263   1.763   6.791  0.2212  0.1852  0.2879
   65MOL   C11319441   3.166   1.775   6.888 -0.0050  0.1017  0.1430
   65MOL   N11419442   3.049   1.710   6.885 -0.7055 -0.6488 -0.2792
   65MOL   H11519443   2.692   1.616   6.702 -0.3152  0.5736 -0.2946
   65MOL   H11619444   2.732   1.709   6.839  0.1427 -0.5831  0.2335
   65MOL   H11719445   2.883   1.502   6.682  2.5400 -2.2911  0.7623
   65MOL   H11819446   3.107   1.537   6.601 -0.8960  1.0121  0.0402
   65MOL   H11919447   3.323   1.644   6.618  0.8105 -1.4389  1.8765
   65MOL   H12019448   3.357   1.815   6.804  0.6646 -0.0186 -1.9161
   65MOL   H12119449   3.183   1.852   6.962 -0.8112  0.3503  0.0689
   65MOL   C12219450   2.857   1.469   6.886  0.1457 -0.4748  0.4561
   65MOL   C12319451   2.951   1.351   6.914 -0.6801  0.0685  0.7406
   65MOL   C12419452   2.976   1.344   7.068  0.0218 -0.7159  0.1250
   65MOL   C12519453   3.093   1.386   7.124  0.2761 -0.9346  0.1932
   65MOL   C12619454   3.115   1.374   7.262 -0.4611 -0.0810 -0.0688
   65MOL   C12719455   3.014   1.320   7.340 -0.4507  0.3724 -0.4802
   65MOL   C12819456   2.899   1.278   7.274  0.5906 -0.3922  1.1018
   65MOL   N12919457   2.875   1.295   7.143  0.1596  0.5417 -0.1008
   65MOL   H13019458   2.756   1.432   6.870  0.0963  0.4330 -1.5401
   65MOL   H13119459   2.861   1.540   6.968 -0.2800  1.0274 -0.7999
   65MOL   H13219460   3.050   1.365   6.871 -1.8383  0.4006 -1.9577
   65MOL   H13319461   3.176   1.416   7.063 -0.5550  0.0489 -0.4819
   65MOL   H13419462   3.211   1.401   7.304 -0.2570  1.0993 -1.2684
   65MOL   H13519463   3.021   1.293   7.444 -0.7418 -2.0273 -1.0440
   65MOL   H13619464   2.817   1.235   7.330 -0.7503  2.0760  1.0795
   65MOL   C13719465   2.908   1.210   6.855  0.2669 -0.2045 -0.1173
   65MOL   C13819466   2.927   1.202   6.699  0.2360 -0.1173 -0.1983
   65MOL   C13919467   3.069   1.190   6.648 -0.7145 -0.2237 -0.1215
   65MOL   C14019468   3.118   1.282   6.556  0.8433 -0.4504 -0.1719
   65MOL   C14119469   3.253   1.270   6.518 -0.6544  0.2500 -0.3405
   65MOL   C14219470   3.331   1.164   6.576  0.2639 -0.3226 -0.1903
   65MOL   C14319471   3.271   1.080   6.664 -0.4285 -0.2260 -0.8479
   65MOL   N14419472   3.146   1.087   6.699  0.2587  0.5776 -0.2383
   65MOL   H14519473   2.801   1.199   6.869  0.1905  0.0346 -0.5130
   65MOL   H14619474   2.953   1.126   6.909 -1.8968 -0.4084  1.4363
   65MOL   H14719475   2.875   1.287   6.655  1.9390  0.1955 -1.6189
   65MOL   H14819476   3.058   1.360   6.511  0.4571 -0.6793 -0.0622
   65MOL   H14919477   3.298   1.341   6.451 -0.2125 -0.2162 -0.5359
   65MOL   H15019478   3.435   1.148   6.549  0.6444  0.1580  0.9657
   65MOL   H15119479   3.326   0.998   6.707  1.0905  0.5165 -1.3158
   65MOL   C15219480   2.855   1.083   6.636  0.2415  0.0968  0.3976
   65MOL   C15319481   2.698   1.084   6.621  0.1122 -0.2692  0.2147
   65MOL   C15419482   2.657   1.213   6.540  0.0907  0.2345 -0.4721
   65MOL   C15519483   2.587   1.314   6.601  0.2550  0.2341 -0.0785
   65MOL   C15619484   2.572   1.432   6.527  0.4646  0.5080  0.0914
   65MOL   C15719485   2.616   1.440   6.391  0.1992  0.1336 -0.5479
   65MOL   C15819486   2.686   1.334   6.340  0.3763  0.3622 -0.2754
   65MOL   N15919487   2.711   1.220   6.416 -0.8140  0.3945 -0.5446
   65MOL   H16019488   2.889   0.983   6.667 -0.1100  0.2333  1.2606
   65MOL   H16119489   2.890   1.074   6.534  0.2536  1.6970  0.2500
   65MOL   H16219490   2.653   1.105   6.718  1.7187 -2.3630  1.4834
   65MOL   H16319491   2.548   1.314   6.702  1.5976 -0.6662  0.4518
   65MOL   H16419492   2.505   1.512   6.556 -0.7769 -0.2439 -0.6328
   65MOL   H16519493   2.600   1.527   6.330  3.5365  0.3011 -1.2666
   65MOL   H16619494   2.722   1.334   6.238 -1.5955  0.7568 -0.9891
   65MOL   C16719495   2.644   0.945   6.568  0.5539 -0.2391  0.2249
   65MOL   C16819496   2.652   0.817   6.656  0.0041 -0.0261  0.1774
   65MOL   C16919497   2.655   0.847   6.806 -0.2521  0.2196 -0.8266
   65MOL   C17019498   2.774   0.822   6.876 -0.5866 -0.4953  0.1931
   65MOL   C17119499   2.790   0.881   7.000 -0.5903 -0.0874 -0.0507
   65MOL   C17219500   2.689   0.954   7.057  1.2444  0.1670 -0.1655
   65MOL   C17319501   2.573   0.980   6.983  0.3420 -0.7427 -0.6064
   65MOL   N17419502   2.555   0.925   6.862  0.3316 -0.4712  0.2922
   65MOL   H17519503   2.690   0.927   6.471  0.3837  0.0636  0.0858
   65MOL   H17619504   2.540   0.967   6.545  0.1736 -1.7176  0.4669
   65MOL   H17719505   2.750   0.776   6.634  0.1884  1.5352 -2.0405
   65MOL   H17819506   2.857   0.775   6.826  0.6502  1.0475  0.7311
   65MOL   H17919507   2.878   0.873   7.062 -1.3271  0.9473  1.1598
   65MOL   H18019508   2.691   1.005   7.152  0.0027 -3.0123  1.6549
   65MOL   H18119509   2.501   1.046   7.029 -1.2195 -2.8265  0.0342
   65MOL   C18219510   2.543   0.715   6.626 -0.7578 -0.1748  0.2959
   65MOL   C18319511   2.506   0.691   6.476  0.6658 -0.3709 -0.9981
   65MOL   C18419512   2.626   0.653   6.388  0.1675  0.7768  0.9064
   65MOL   C18519513   2.646   0.717   6.266 -0.1781  0.4781 -0.4406
   65MOL   C18619514   2.757   0.684   6.186 -0.4990 -0.3938 -0.1788
   65MOL   C18719515   2.839   0.577   6.226 -0.2214 -0.3146  0.5672
   65MOL   C18819516   2.801   0.513   6.348  0.7623  0.3736  0.8067
   65MOL   N18919517   2.703   0.550   6.430  0.7376  0.3682 -0.0982
   65MOL   H19019518   2.460   0.749   6.688  0.1778 -0.1396  1.5426
   65MOL   H19119519   2.584   0.623   6.667  3.0411 -0.1831 -3.1791
   65MOL   H19219520   2.464   0.782   6.434 -0.3533 -0.2747  0.1715
   65MOL   H19319521   2.575   0.793   6.236 -1.4771 -1.2483 -1.8534
   65MOL   H19419522   2.766   0.725   6.087 -0.3590  0.6075  0.2459
   65MOL   H19519523   2.922   0.540   6.168  0.3618 -1.0922  1.8791
   65MOL   H19619524   2.865   0.432   6.379 -2.6167 -2.9652 -0.4070
   65MOL   C19719525   2.400   0.579   6.472 -0.3076  0.2291  0.1710
   65MOL   C19819526   2.253   0.613   6.508  0.1757 -0.2629  0.2876
   65MOL   C19919527   2.186   0.701   6.407  0.4301  0.2069 -0.2975
   65MOL   C20019528   2.198   0.684   6.269 -0.2898 -0.2390 -0.5164
   65MOL   C20119529   2.127   0.763   6.178 -0.3756 -0.0685  0.1208
   65MOL   C20219530   2.038   0.852   6.244 -0.1217 -0.1193  0.0213
   65MOL   C20319531   2.039   0.875   6.384  0.3183 -0.2929 -0.5332
   65MOL   N20419532   2.109   0.794   6.468 -0.2033  0.0625 -0.1532
   65MOL   H20519533   2.440   0.508   6.544 -0.5201  0.9173  0.9818
   65MOL   H20619534   2.395   0.521   6.380 -1.8522 -1.6998  1.4079
   65MOL   H20719535   2.253   0.674   6.598 -0.3199  0.8345 -0.4514
   65MOL   H20819536   2.272   0.615   6.232  0.6998  0.9859 -0.8620
   65MOL   H20919537   2.136   0.758   6.071 -1.4149  2.3926 -0.1078
   65MOL   H21019538   1.985   0.919   6.178  2.0355  0.9689 -0.6358
   65MOL   H21119539   1.992   0.962   6.426  1.5922  0.1963 -0.0772
   65MOL   C21219540   2.170   0.502   6.565 -0.3931  0.6720 -0.0561
   65MOL   C21319541   2.215   0.427   6.691 -0.2969 -0.8069 -0.0581
   65MOL   C21419542   2.263   0.509   6.810 -0.5064 -0.0158 -0.0283
   65MOL   C21519543   2.177   0.599   6.881  0.0873 -0.8898  0.1295
   65MOL   C21619544   2.236   0.690   6.972  0.3840 -0.0724  0.5390
   65MOL   C21719545   2.377   0.679   6.999 -0.1669  0.1247 -0.1539
   65MOL   C21819546   2.449   0.582   6.925 -0.1296 -0.6056 -0.4332
   65MOL   N21919547   2.392   0.502   6.833 -0.1684 -0.9491 -0.3466
   65MOL   H22019548   2.179   0.425   6.488  1.0718 -1.0568  1.7739
   65MOL   H22119549   2.069   0.541   6.577 -0.6333 -0.1763  0.7108
   65MOL   H22219550   2.300   0.365   6.663 -0.6842 -0.6258 -1.7221
   65MOL   H22319551   2.073   0.610   6.852  0.5489  0.3523 -1.1171
   65MOL   H22419552   2.174   0.766   7.015 -1.2748 -0.3135 -1.3401
   65MOL   H22519553   2.420   0.753   7.065 -0.1999  1.4058 -1.5431
   65MOL   H22619554   2.555   0.565   6.926 -0.1658 -0.9371  1.6990
   65MOL   C22719555   2.106   0.328   6.733  0.0794  0.3806  0.0014
   65MOL   C22819556   2.112   0.191   6.655 -0.1466 -0.3229  0.1728
   65MOL   C22919557   2.235   0.113   6.679 -0.1198  0.5777  0.2337
   65MOL   C23019558   2.331   0.098   6.578  0.3252 -0.1173 -0.3464
   65MOL   C23119559   2.441   0.021   6.606 -0.0459  0.0195 -0.7854
   65MOL   C23219560   2.448   8.109   6.734  0.1028  0.3854  0.6362
   65MOL   C23319561   2.342   8.129   6.824 -0.3852 -0.3868  0.7021
   65MOL   N23419562   2.240   0.054   6.799  0.2122  0.0041  0.3294
   65MOL   H23519563   2.008   0.374   6.718 -0.2715 -0.2070  0.4615
   65MOL   H23619564   2.108   0.305   6.840  0.3956  0.4956  0.0202
   65MOL   H23719565   2.123   0.211   6.548 -1.6479 -1.4886 -0.2040
   65MOL   H23819566   2.316   0.156   6.489  1.8017 -0.0410 -0.5512
   65MOL   H23919567   2.523   0.010   6.536 -0.1324  0.0330 -0.8894
   65MOL   H24019568   2.524   8.039   6.765  0.7639  0.6833 -0.3087
   65MOL   H24119569   2.344   8.096   6.927  1.8850  2.3583  1.6210
   65MOL   C24219570   1.985   0.104   6.666 -0.4374 -0.3150  0.1789
   65MOL   C24319571   1.855   0.172   6.602 -0.0135 -0.0696 -0.2253
   65MOL   C24419572   1.887   0.255   6.478  0.3460 -0.0643 -0.0875
   65MOL   C24519573   1.852   0.389   6.472 -0.0371 -0.4492 -0.2494
   65MOL   C24619574   1.905   0.472   6.371 -0.1307  0.8942 -0.3585
   65MOL   C24719575   1.973   0.412   6.258  0.0531 -0.1371 -0.3038
   65MOL   C24819576   2.000   0.270   6.265  0.5450  0.6123 -0.5518
   65MOL   N24919577   1.962   0.199   6.378  0.1300 -0.5352 -0.2167
   65MOL   H25019578   1.966   0.080   6.771  1.3350  0.8710  0.8070
   65MOL   H25119579   2.012   0.015   6.610 -0.6282 -0.7478  0.7673
   65MOL   H25219580   1.811   0.237   6.678 -1.0770  1.7613 -2.3388
   65MOL   H25319581   1.790   0.426   6.552  0.1025 -0.5760 -0.0809
   65MOL   H25419582   1.875   0.576   6.367 -1.4221  0.6214  1.4515
   65MOL   H25519583   2.015   0.470   6.178  1.0133 -2.0507 -1.2314
   65MOL   H25619584   2.056   0.217   6.189 -1.4038  1.1977 -2.4657
   65MOL   C25719585   1.741   0.073   6.573  0.7099 -0.5135 -0.3236
   65MOL   C25819586   1.597   0.133   6.544  0.1711 -0.0944  0.3057
   65MOL   C25919587   1.502   0.013   6.496  0.4832  0.1605  0.1640
   65MOL   C26019588   1.436   0.033   6.374  0.2798 -0.1488 -0.4152
   65MOL   C26119589   1.347   8.085   6.324 -0.3122 -0.1274  0.4711
   65MOL   C26219590   1.341   7.960   6.394 -0.3355  0.4759  0.2181
   65MOL   C26319591   1.418   7.948   6.513  0.1241  1.0718  0.4605
   65MOL   N26419592   1.490   8.051   6.565  0.4246 -0.1883 -0.0591
   65MOL   H26519593   1.738   8.145   6.647 -0.4257  0.4092  0.6315
   65MOL   H26619594   1.777   0.032   6.478 -0.5698  0.7860 -1.3965
   65MOL   H26719595   1.603   0.203   6.461  1.3694 -0.9670 -0.3759
   65MOL   H26819596   1.450   0.126   6.321 -0.1183  1.0910  1.6036
   65MOL   H26919597   1.282   8.099   6.239 -0.6605  2.3913  1.1226
   65MOL   H27019598   1.287   7.873   6.359  1.7824 -0.8133  0.0614
   65MOL   H27119599   1.417   7.858   6.572 -3.6930 -0.6153 -2.0158
   65MOL   C27219600   1.538   0.206   6.668  0.1396  0.4999  0.2386
   65MOL   C27319601   1.395   0.253   6.672  0.3038  1.0764  0.2600
   65MOL   C27419602   1.359   0.301   6.812  0.4686 -0.1916 -0.9556
   65MOL   C27519603   1.258   0.230   6.884  0.1789 -0.0771 -0.1329
   65MOL   C27619604   1.238   0.269   7.016 -0.1040 -0.4500 -0.7173
   65MOL   C27719605   1.327   0.369   7.074 -0.0735  0.2298 -0.6188
   65MOL   C27819606   1.420   0.434   6.991 -0.6437  0.1892  0.7986
   65MOL   N27919607   1.429   0.405   6.859 -0.0624  0.5987 -0.4308
   65MOL   H28019608   1.596   0.296   6.689 -0.5080  0.8628  0.4874
   65MOL   H28119609   1.554   0.137   6.750  2.1899  0.1593 -0.3922
   65MOL   H28219610   1.335   0.162   6.660  2.2483 -0.5298  2.3177
   65MOL   H28319611   1.200   0.156   6.830  0.4146  0.2697 -0.8753
   65MOL   H28419612   1.161   0.223   7.076  0.2187  1.7291  1.4525
   65MOL   H28519613   1.327   0.393   7.179 -1.2436  0.6679 -0.7105
   65MOL   H28619614   1.491   0.510   7.019 -0.2136  0.4991 -1.0626
   65MOL   C28719615   1.362   0.361   6.569 -0.1880 -0.0574  0.3745
   65MOL   C28819616   1.221   0.435   6.579 -0.0784  0.2710  0.7669
   65MOL   C28919617   1.099   0.335   6.563 -0.8148  0.0217  0.4135
   65MOL   C29019618   1.076   0.278   6.439 -0.1239 -0.7838  0.3474
   65MOL   C29119619   0.968   0.185   6.431 -0.0537 -0.2061  0.0271
   65MOL   C29219620   0.893   0.154   6.546 -0.1816 -0.4386  0.2279
   65MOL   C29319621   0.930   0.222   6.667  0.0273  0.2417  0.3263
   65MOL   N29419622   1.032   0.307   6.676  0.8657 -0.3171  0.3073
   65MOL   H29519623   1.380   0.316   6.472  1.8898  1.3092  0.0835
   65MOL   H29619624   1.444   0.431   6.585 -1.3426  1.0013  1.8069
   65MOL   H29719625   1.215   0.516   6.506 -2.0942 -0.1101  0.4709
   65MOL   H29819626   1.126   0.312   6.349 -0.3144  1.1907  0.9636
   65MOL   H29919627   0.950   0.148   6.331  1.4370 -0.1014 -0.2922
   65MOL   H30019628   0.807   0.089   6.539 -1.8419  1.7421 -0.2164
   65MOL   H30119629   0.871   0.205   6.755  0.9153 -0.2934  0.8266
   65MOL   H30219630   1.230   0.492   6.672  1.5212  0.5338  0.4569
   66MOL     C119631   5.149   4.726   5.592 -0.3632  0.2315  0.1817
   66MOL     C219632   5.060   4.631   5.678 -0.1251  0.1665 -0.5050
   66MOL     C319633   5.108   4.628   5.824  0.2075  0.0923  0.1506
   66MOL     C419634   5.136   4.513   5.894  0.1505  0.4689  0.0713
   66MOL     C519635   5.172   4.523   6.029 -0.7752  0.0974  0.0392
   66MOL     C619636   5.169   4.648   6.092 -0.1509  0.3057 -0.5189
   66MOL     C719637   5.139   4.761   6.016 -0.1693 -0.1090 -0.4587
   66MOL     N819638   5.111   4.755   5.883 -0.3146 -0.1250  0.1009
   66MOL     H919639   5.249   4.718   5.634 -0.2467  2.4971  0.4472
   66MOL    H1019640   5.131   4.712   5.486  2.8732 -2.1921 -0.1145
   66MOL    H1119641   5.074   4.528   5.645 -0.6692  0.2000 -0.8273
   66MOL    H1219642   5.124   4.412   5.859 -1.1332  0.0746  1.6101
   66MOL    H1319643   5.192   4.430   6.080  1.0517 -0.9224 -2.4210
   66MOL    H1419644   5.172   4.653   6.200  2.4644  2.6037 -0.6657
   66MOL    H1519645   5.128   4.859   6.060  1.8723 -0.1146  0.1663
   66MOL    H1619646   5.125   4.830   5.617 -0.7802 -0.1232  1.2961
   66MOL    C1719647   4.913   4.653   5.678  0.4778 -0.1238  0.3744
   66MOL    C1819648   4.836   4.623   5.548 -0.0712 -0.0477  0.1972
   66MOL    C1919649   4.861   4.480   5.499  0.2001 -0.3592  0.3710
   66MOL    C2019650   4.946   4.451   5.389  0.7100 -1.1983  0.4059
   66MOL    C2119651   4.963   4.314   5.350 -0.2533  0.1424  0.4247
   66MOL    C2219652   4.892   4.213   5.417 -0.3964  0.2675  0.1757
   66MOL    C2319653   4.807   4.257   5.527  0.5699  0.4666 -0.6063
   66MOL    N2419654   4.801   4.386   5.571  0.1570 -0.2473 -0.1125
   66MOL    H2519655   4.886   4.752   5.714  0.7740  0.3861 -0.7622
   66MOL    H2619656   4.862   4.592   5.752  0.0448  1.6249  1.5473
   66MOL    H2719657   4.882   4.695   5.480  0.5662 -0.4694  0.1714
   66MOL    H2819658   4.994   4.524   5.326 -0.2280 -0.4448  0.5622
   66MOL    H2919659   5.028   4.285   5.269  1.2504 -1.4844  2.1699
   66MOL    H3019660   4.909   4.112   5.380 -1.6164  0.5673 -1.2360
   66MOL    H3119661   4.758   4.181   5.586 -0.7679  2.3807  0.8079
   66MOL    C3219662   4.685   4.658   5.544  0.6808 -0.6519 -0.5488
   66MOL    C3319663   4.616   4.614   5.407  0.3914 -0.4649  0.3190
   66MOL    C3419664   4.468   4.629   5.409  0.0879  0.3004  0.6097
   66MOL    C3519665   4.390   4.543   5.322 -0.0592  0.0250  0.0152
   66MOL    C3619666   4.248   4.548   5.334 -0.0806  0.0809 -0.1349
   66MOL    C3719667   4.190   4.659   5.402 -0.2088  0.0685  0.5491
   66MOL    C3819668   4.276   4.738   5.482 -0.9400 -0.5376  0.5240
   66MOL    N3919669   4.411   4.728   5.482 -0.1398 -0.0625 -0.0889
   66MOL    H4019670   4.690   4.764   5.567  2.8677 -0.9170  0.3088
   66MOL    H4119671   4.634   4.604   5.624 -1.8283 -1.3487 -2.5229
   66MOL    H4219672   4.630   4.506   5.402 -0.4634 -0.6271  1.2346
   66MOL    H4319673   4.429   4.470   5.252  0.3159  0.4921 -0.2588
   66MOL    H4419674   4.194   4.478   5.271  3.3789 -0.4110 -2.7723
   66MOL    H4519675   4.084   4.678   5.416 -0.3595 -1.2959  1.3771
   66MOL    H4619676   4.225   4.818   5.534  2.1495  0.8984  1.4308
   66MOL    C4719677   4.680   4.676   5.283 -0.4231 -0.4287  0.3016
   66MOL    C4819678   4.647   4.830   5.254  0.4338  0.5164  0.4417
   66MOL    C4919679   4.700   4.936   5.350  0.2561 -0.5798 -0.7804
   66MOL    C5019680   4.617   5.019   5.438  0.0243  0.4234  0.1957
   66MOL    C5119681   4.672   5.122   5.516 -0.1813 -0.1163 -0.3769
   66MOL    C5219682   4.811   5.129   5.522 -0.3416  0.1631 -0.5028
   66MOL    C5319683   4.889   5.042   5.440  0.4069  0.3760 -0.4461
   66MOL    N5419684   4.831   4.948   5.357  0.0523 -0.4406 -0.2234
   66MOL    H5519685   4.645   4.619   5.197 -0.1889 -2.9814  1.8783
   66MOL    H5619686   4.787   4.672   5.263 -0.2012 -1.7044  1.7369
   66MOL    H5719687   4.538   4.837   5.254  0.4066  0.2374  1.5974
   66MOL    H5819688   4.510   5.003   5.440 -0.2012  1.6655 -1.1389
   66MOL    H5919689   4.611   5.198   5.562 -0.7494 -0.9529  0.2669
   66MOL    H6019690   4.847   5.211   5.582 -0.2919  0.5260 -1.0225
   66MOL    H6119691   4.997   5.044   5.442  0.4106 -0.1963  2.2503
   66MOL    C6219692   4.695   4.859   5.107 -0.4758  0.5528 -0.3162
   66MOL    C6319693   4.618   4.792   4.994  0.7743 -0.0208 -0.1275
   66MOL    C6419694   4.467   4.826   5.003 -0.1360  0.7837  1.0534
   66MOL    C6519695   4.372   4.722   5.025 -0.9351  0.2293  0.6497
   66MOL    C6619696   4.242   4.766   5.052  0.1341  0.0504  0.1416
   66MOL    C6719697   4.212   4.902   5.061  0.2379  0.4455 -0.5332
   66MOL    C6819698   4.317   4.991   5.035 -0.4431 -0.2529 -0.6559
   66MOL    N6919699   4.441   4.955   5.004  0.2057 -0.3270 -0.2233
   66MOL    H7019700   4.802   4.840   5.099 -0.0622  3.1303 -1.3496
   66MOL    H7119701   4.677   4.966   5.097 -0.5052  0.3359 -3.0478
   66MOL    H7219702   4.616   4.683   5.004  0.9380 -0.0211 -0.0921
   66MOL    H7319703   4.390   4.616   5.036  0.6669  0.4389  0.1868
   66MOL    H7419704   4.168   4.690   5.074 -0.3330  0.6440  0.6311
   66MOL    H7519705   4.121   4.950   5.093  1.3037  1.5452  0.9384
   66MOL    H7619706   4.295   5.095   5.051  0.4682 -0.1637  0.0299
   66MOL    C7719707   4.672   4.828   4.852  0.1452 -0.7813 -0.2504
   66MOL    C7819708   4.823   4.795   4.827  0.1665 -0.2866 -0.7493
   66MOL    C7919709   4.843   4.642   4.846 -0.4552  0.2638 -0.7011
   66MOL    C8019710   4.910   4.603   4.961 -0.6732 -0.2819  0.4904
   66MOL    C8119711   4.928   4.463   4.989  0.1205 -0.2148  0.0015
   66MOL    C8219712   4.864   4.375   4.903  0.0148 -0.3868 -0.4645
   66MOL    C8319713   4.798   4.425   4.785  0.2732  0.6450  0.6015
   66MOL    N8419714   4.782   4.554   4.760 -0.8359  0.4985  0.5760
   66MOL    H8519715   4.654   4.932   4.826  2.3177 -0.9548 -2.6823
   66MOL    H8619716   4.606   4.771   4.786 -1.2340 -0.5559  0.9082
   66MOL    H8719717   4.882   4.854   4.897  1.7894  0.6919 -2.8837
   66MOL    H8819718   4.946   4.686   5.020  1.8742 -0.2299 -1.0762
   66MOL    H8919719   4.969   4.422   5.080 -0.5254 -2.2003 -0.5815
   66MOL    H9019720   4.861   4.270   4.927 -1.2144 -0.2303  0.1229
   66MOL    H9119721   4.761   4.350   4.716  0.2652  1.3894 -0.2062
   66MOL    C9219722   4.876   4.830   4.690  0.1604 -0.1498 -0.4918
   66MOL    C9319723   4.879   4.981   4.654  0.4817 -0.0759 -0.3424
   66MOL    C9419724   4.945   5.065   4.768  0.3962 -0.5758  0.2781
   66MOL    C9519725   4.872   5.125   4.870 -0.2167 -0.2920 -0.0373
   66MOL    C9619726   4.936   5.203   4.969 -0.0463 -0.1621  0.2843
   66MOL    C9719727   5.084   5.206   4.972 -0.6534 -0.2385  1.2536
   66MOL    C9819728   5.146   5.141   4.865 -0.0842  0.2244  0.2540
   66MOL    N9919729   5.078   5.076   4.768  0.4403 -0.0464 -0.2553
   66MOL   H10019730   4.820   4.775   4.614  0.9521  1.5719 -2.3749
   66MOL   H10119731   4.976   4.788   4.700  0.4873  1.5218  4.3668
   66MOL   H10219732   4.774   5.012   4.659  0.2930 -1.0682  3.9627
   66MOL   H10319733   4.765   5.126   4.880 -0.1873  0.5486  0.2703
   66MOL   H10419734   4.885   5.254   5.050 -0.6328  0.4896 -0.4932
   66MOL   H10519735   5.142   5.269   5.037  0.8480 -0.0279 -0.2374
   66MOL   H10619736   5.252   5.160   4.854  0.0324  0.0989  1.1296
   66MOL   C10719737   4.942   5.020   4.520  0.2399 -0.0525  0.1278
   66MOL   C10819738   4.871   4.991   4.390  1.1581 -0.6317  0.9114
   66MOL   C10919739   4.719   4.989   4.401  0.5459  0.1408 -0.2868
   66MOL   C11019740   4.644   4.872   4.386 -0.1780  0.4175 -0.8126
   66MOL   C11119741   4.510   4.879   4.405  0.1734  0.2208 -0.5281
   66MOL   C11219742   4.443   5.003   4.430 -0.1227  0.1039 -0.3486
   66MOL   C11319743   4.522   5.118   4.427 -0.9109  0.3999 -0.0625
   66MOL   N11419744   4.660   5.111   4.417  0.2896 -0.4413 -0.3659
   66MOL   H11519745   5.046   4.988   4.529  0.5308 -0.1484 -2.8960
   66MOL   H11619746   4.942   5.129   4.529 -3.7843  0.1002 -0.6210
   66MOL   H11719747   4.897   4.887   4.369 -0.0861 -0.2780 -2.8171
   66MOL   H11819748   4.697   4.780   4.364 -0.8516 -0.3542  0.7010
   66MOL   H11919749   4.447   4.792   4.394  2.5550 -1.3994 -1.6174
   66MOL   H12019750   4.336   5.000   4.448 -0.0822 -4.0362 -0.3949
   66MOL   H12119751   4.475   5.215   4.433 -0.4707  0.8708 -3.4944
   66MOL   C12219752   4.928   5.078   4.277  0.3032 -0.0910  0.9982
   66MOL   C12319753   4.859   5.081   4.130 -0.1197  0.6973  0.2824
   66MOL   C12419754   4.931   5.190   4.051  0.7885  0.0602 -0.7134
   66MOL   C12519755   4.858   5.289   3.984 -0.1049 -0.0834 -0.2980
   66MOL   C12619756   4.935   5.378   3.910 -0.5178 -0.0499  0.3610
   66MOL   C12719757   5.074   5.379   3.926  0.1392 -0.2906  0.2381
   66MOL   C12819758   5.134   5.282   4.007 -0.4719 -0.2457  0.1991
   66MOL   N12919759   5.063   5.186   4.070  0.2045 -0.8307  0.9692
   66MOL   H13019760   5.031   5.042   4.272  0.7608  1.3051 -0.0493
   66MOL   H13119761   4.929   5.183   4.308 -2.2146 -0.1588  1.4111
   66MOL   H13219762   4.757   5.118   4.142 -0.5768  0.0588 -1.4260
   66MOL   H13319763   4.752   5.296   3.967 -0.5914 -1.5332  1.9660
   66MOL   H13419764   4.894   5.454   3.846 -0.3678 -0.7039 -0.5262
   66MOL   H13519765   5.135   5.454   3.876 -2.5684  1.4211 -0.6393
   66MOL   H13619766   5.242   5.290   4.017 -0.4442  3.1768 -1.9970
   66MOL   C13719767   4.839   4.952   4.056 -0.1796  0.1958  0.6373
   66MOL   C13819768   4.768   4.954   3.919 -0.5449  0.6074 -0.1266
   66MOL   C13919769   4.784   4.814   3.850 -0.0933  0.2436 -0.4638
   66MOL   C14019770   4.890   4.778   3.767  0.0314 -0.3678 -0.1686
   66MOL   C14119771   4.903   4.639   3.726  0.2466  0.1494 -0.4004
   66MOL   C14219772   4.821   4.543   3.780  0.1216 -0.3308 -0.2882
   66MOL   C14319773   4.719   4.593   3.860 -0.1612  0.0078 -0.2482
   66MOL   N14419774   4.708   4.720   3.905  0.3494 -0.1121 -0.7304
   66MOL   H14519775   4.776   4.887   4.118 -0.8309  0.0295 -0.1980
   66MOL   H14619776   4.938   4.913   4.035  0.1585  1.8560 -0.9473
   66MOL   H14719777   4.824   5.024   3.856 -2.4027 -0.7957 -3.4262
   66MOL   H14819778   4.961   4.846   3.721  1.9908 -3.1910 -1.4776
   66MOL   H14919779   4.988   4.614   3.665 -0.5810 -0.6293 -1.2506
   66MOL   H15019780   4.841   4.438   3.766 -1.8523 -0.7971  0.3218
   66MOL   H15119781   4.657   4.527   3.918 -0.4981  0.8170  0.3289
   66MOL   C15219782   4.615   4.997   3.929  0.4262 -0.2041  0.1364
   66MOL   C15319783   4.533   4.973   3.793 -0.1860 -0.1905 -0.5375
   66MOL   C15419784   4.382   4.990   3.835 -0.3203 -0.1702 -0.7138
   66MOL   C15519785   4.290   4.884   3.830 -0.4081 -0.8178  0.1786
   66MOL   C15619786   4.157   4.900   3.868 -0.6864  0.1503 -0.0676
   66MOL   C15719787   4.123   5.027   3.921 -0.0023 -0.4209 -0.0180
   66MOL   C15819788   4.222   5.133   3.926  0.7719  0.6939  0.4298
   66MOL   N15919789   4.347   5.111   3.889  0.0672  0.2174 -0.5045
   66MOL   H16019790   4.611   5.102   3.957 -1.4642  0.3287 -1.9507
   66MOL   H16119791   4.568   4.938   4.008 -1.3261 -0.6213 -1.1846
   66MOL   H16219792   4.552   4.868   3.774  2.9774  0.0595  0.8354
   66MOL   H16319793   4.314   4.782   3.803  0.7627 -0.4128 -0.3485
   66MOL   H16419794   4.086   4.819   3.854  0.2257 -0.6800  0.0991
   66MOL   H16519795   4.019   5.043   3.947  0.4463 -0.6874  2.0242
   66MOL   H16619796   4.202   5.230   3.969  0.2439  0.9119 -0.2999
   66MOL   C16719797   4.582   5.078   3.689  0.3356 -0.5625  0.0129
   66MOL   C16819798   4.533   5.062   3.544  0.0808  0.2619  0.6929
   66MOL   C16919799   4.471   5.187   3.489  0.0064  0.0273 -0.1144
   66MOL   C17019800   4.331   5.204   3.461 -0.3521  0.5341  0.1773
   66MOL   C17119801   4.281   5.324   3.405  0.1859 -0.4544 -0.1404
   66MOL   C17219802   4.376   5.415   3.362  0.5563 -0.0993 -0.7446
   66MOL   C17319803   4.513   5.394   3.392  0.7066 -0.2830  0.3629
   66MOL   N17419804   4.560   5.285   3.460  0.2520 -0.3087  0.3339
   66MOL   H17519805   4.691   5.086   3.694  0.3079 -1.1531  1.8555
   66MOL   H17619806   4.551   5.180   3.715 -0.7180  0.0548 -3.4127
   66MOL   H17719807   4.456   4.986   3.541 -0.5516  0.9501 -1.0555
   66MOL   H17819808   4.268   5.122   3.493 -0.9269  0.4877 -1.0300
   66MOL   H17919809   4.180   5.350   3.378  1.1632  1.9752 -1.7416
   66MOL   H18019810   4.332   5.503   3.317  1.7386 -0.6613 -3.0457
   66MOL   H18119811   4.584   5.471   3.365  0.0825  1.2442  2.9228
   66MOL   C18219812   4.651   5.008   3.453 -0.4436 -0.1274 -0.2273
   66MOL   C18319813   4.701   4.867   3.475 -0.0835 -0.3537  0.1273
   66MOL   C18419814   4.596   4.763   3.432  0.0480 -0.5909 -0.3525
   66MOL   C18519815   4.539   4.683   3.532 -0.5223 -1.0462  0.1139
   66MOL   C18619816   4.431   4.590   3.494  0.5054 -0.3317 -0.1859
   66MOL   C18719817   4.388   4.585   3.361 -0.1379  0.1887  0.0422
   66MOL   C18819818   4.455   4.663   3.265  0.2027  0.0100 -0.3221
   66MOL   N18919819   4.552   4.754   3.307  0.7563  0.3378  0.5381
   66MOL   H19019820   4.733   5.079   3.453 -0.4668 -0.0822  1.3699
   66MOL   H19119821   4.615   5.006   3.350 -2.5580  0.9491  0.4521
   66MOL   H19219822   4.707   4.851   3.583 -0.2582 -0.1935  0.1631
   66MOL   H19319823   4.562   4.689   3.637  1.8758 -1.0427 -0.3930
   66MOL   H19419824   4.396   4.521   3.569  0.9509  1.1897  1.4577
   66MOL   H19519825   4.312   4.511   3.338  0.6506 -0.3864 -0.7555
   66MOL   H19619826   4.431   4.653   3.160 -2.4309 -0.3072  0.2818
   66MOL   C19719827   4.839   4.843   3.416  0.5820 -0.1096 -0.5391
   66MOL   C19819828   4.864   4.865   3.267 -0.2719  0.0667  0.5978
   66MOL   C19919829   4.865   5.014   3.229 -0.3941 -0.3476  0.8643
   66MOL   C20019830   4.794   5.050   3.109  1.0753  0.0712  0.3611
   66MOL   C20119831   4.790   5.182   3.068 -0.3667 -0.8691 -0.5708
   66MOL   C20219832   4.852   5.282   3.154 -0.5171  0.5818 -0.2151
   66MOL   C20319833   4.917   5.231   3.274 -0.1095 -0.2161 -0.5327
   66MOL   N20419834   4.931   5.104   3.304 -0.0918  0.3358  0.0301
   66MOL   H20519835   4.863   4.741   3.445 -0.9756 -0.7764 -1.5170
   66MOL   H20619836   4.915   4.896   3.473 -0.4436 -0.7296  1.4600
   66MOL   H20719837   4.792   4.821   3.198 -0.3209  1.7393 -0.4577
   66MOL   H20819838   4.772   4.966   3.045  1.3291  3.5221 -4.4886
   66MOL   H20919839   4.735   5.207   2.978  2.0677  0.0442 -1.8506
   66MOL   H21019840   4.847   5.387   3.128 -0.5568  0.1895 -1.8615
   66MOL   H21119841   4.974   5.300   3.335 -1.4401  0.5692 -0.1544
   66MOL   C21219842   4.992   4.796   3.219 -0.0798  0.2336  0.3197
   66MOL   C21319843   4.988   4.644   3.239 -0.7935 -0.4256 -0.4245
   66MOL   C21419844   4.990   4.566   3.110 -0.4185  0.8088  0.9495
   66MOL   C21519845   4.879   4.491   3.061 -0.0039 -0.1209 -0.0672
   66MOL   C21619846   4.892   4.414   2.947  0.4140 -0.1399 -0.2699
   66MOL   C21719847   5.011   4.433   2.874 -0.9487  0.5842  0.0503
   66MOL   C21819848   5.110   4.513   2.920  0.6819  0.1637 -0.0650
   66MOL   N21919849   5.109   4.572   3.039 -0.5837 -0.3930  0.0781
   66MOL   H22019850   5.080   4.846   3.259 -0.8388  0.5879  1.6019
   66MOL   H22119851   4.974   4.815   3.114 -0.6065 -1.7086  0.0442
   66MOL   H22219852   4.896   4.609   3.285 -1.2942  0.8816 -0.4085
   66MOL   H22319853   4.791   4.485   3.123  1.1599  1.5530  1.7892
   66MOL   H22419854   4.810   4.353   2.913 -0.4499  1.3273 -0.8674
   66MOL   H22519855   5.012   4.388   2.775  0.3659  0.3441  0.1770
   66MOL   H22619856   5.192   4.541   2.855 -0.2079  1.2412 -0.7462
   66MOL   C22719857   5.099   4.602   3.331  0.5004 -0.7775 -0.1293
   66MOL   C22819858   5.113   4.445   3.358  0.3465 -0.3418 -0.0487
   66MOL   C22919859   5.255   4.404   3.389  0.5150  0.4280 -0.1984
   66MOL   C23019860   5.325   4.323   3.301 -0.3924 -0.4790  0.3317
   66MOL   C23119861   5.458   4.295   3.341 -0.1113 -0.3207  0.1811
   66MOL   C23219862   5.520   4.355   3.454  0.2897 -0.0210 -0.7543
   66MOL   C23319863   5.437   4.435   3.531  1.1014  0.3205  0.2691
   66MOL   N23419864   5.306   4.459   3.502  0.2569 -0.2479 -0.1149
   66MOL   H23519865   5.103   4.649   3.430  0.2907  0.0828 -0.5253
   66MOL   H23619866   5.196   4.632   3.293 -1.0106  0.7831 -2.8926
   66MOL   H23719867   5.085   4.382   3.273  0.6251  0.0180 -0.4040
   66MOL   H23819868   5.277   4.290   3.210  2.1230  2.3536 -2.1231
   66MOL   H23919869   5.524   4.232   3.283  0.3025  0.5949 -0.3479
   66MOL   H24019870   5.625   4.340   3.477  0.4609  2.5622  0.3542
   66MOL   H24119871   5.468   4.467   3.630  0.7472 -0.6108  0.6901
   66MOL   C24219872   5.012   4.382   3.459  0.1279 -0.3758 -0.3573
   66MOL   C24319873   4.977   4.228   3.451 -0.1065  0.2588  0.4077
   66MOL   C24419874   4.949   4.175   3.594  0.6574  0.0176 -0.1580
   66MOL   C24519875   5.032   4.083   3.655 -0.3916 -0.1179 -0.0073
   66MOL   C24619876   4.995   4.035   3.782 -1.1291 -0.3937 -0.1430
   66MOL   C24719877   4.870   4.069   3.830  0.3815 -0.0217 -0.1014
   66MOL   C24819878   4.784   4.157   3.762 -0.5634  0.2577  0.3901
   66MOL   N24919879   4.825   4.213   3.646  0.1443  0.2394 -0.8807
   66MOL   H25019880   4.917   4.435   3.451  1.4474  2.1445 -0.0246
   66MOL   H25119881   5.054   4.399   3.558 -0.2171  0.2781 -0.3172
   66MOL   H25219882   5.061   4.172   3.410 -0.0255  1.9261 -1.8125
   66MOL   H25319883   5.120   4.036   3.613  0.3776 -0.0887  1.5292
   66MOL   H25419884   5.056   3.963   3.836 -1.2013  0.4000  1.0255
   66MOL   H25519885   4.838   4.029   3.925 -0.0802  0.9665  0.1714
   66MOL   H25619886   4.693   4.202   3.799 -2.6254 -1.0478 -2.9128
   66MOL   C25719887   4.864   4.205   3.347  0.6338 -0.2036  0.3012
   66MOL   C25819888   4.877   4.069   3.282  0.0468 -0.2059  0.0665
   66MOL   C25919889   4.850   3.953   3.380  0.0415 -0.3089  0.4126
   66MOL   C26019890   4.723   3.943   3.449  0.3278 -0.0746 -0.2442
   66MOL   C26119891   4.705   3.836   3.536 -0.2585  0.5549  0.4669
   66MOL   C26219892   4.813   3.751   3.565 -0.7198 -0.6011  0.1174
   66MOL   C26319893   4.936   3.775   3.499 -0.1918 -0.5468 -0.4957
   66MOL   N26419894   4.949   3.865   3.402  0.1330 -0.0042 -0.3032
   66MOL   H26519895   4.876   4.282   3.271 -2.7913 -0.7523 -0.8811
   66MOL   H26619896   4.765   4.213   3.392  0.0798 -0.4285 -0.8546
   66MOL   H26719897   4.976   4.063   3.236  0.0360 -0.8095  0.1177
   66MOL   H26819898   4.647   4.018   3.438 -1.0530 -1.4400 -0.2702
   66MOL   H26919899   4.609   3.818   3.583 -0.0497  0.9008  1.0283
   66MOL   H27019900   4.803   3.678   3.644 -0.1231  0.0839  0.8337
   66MOL   H27119901   5.027   3.724   3.529  1.2281  2.2602  0.1711
   66MOL   C27219902   4.780   4.056   3.163  0.0648  0.1494  0.4972
   66MOL   C27319903   4.803   3.938   3.072 -0.3882  0.8742 -0.2856
   66MOL   C27419904   4.700   3.928   2.958 -0.1147 -0.4438 -0.0631
   66MOL   C27519905   4.631   3.809   2.929 -0.0180  0.2514 -0.0129
   66MOL   C27619906   4.543   3.811   2.820 -0.5799  0.3932  0.6130
   66MOL   C27719907   4.522   3.931   2.749  0.4906  0.0660  0.2561
   66MOL   C27819908   4.594   4.039   2.786 -0.8843 -0.1744 -0.7727
   66MOL   N27919909   4.678   4.039   2.894 -0.1616 -0.1974 -0.2935
   66MOL   H28019910   4.806   4.144   3.105 -0.1525  0.5660  1.0241
   66MOL   H28119911   4.671   4.051   3.173 -0.4028 -1.7603 -4.4924
   66MOL   H28219912   4.776   3.850   3.132  0.6760 -1.5725 -3.2640
   66MOL   H28319913   4.636   3.718   2.986  2.6244  1.2766  1.4457
   66MOL   H28419914   4.490   3.721   2.795 -0.9994  0.4667  1.2292
   66MOL   H28519915   4.455   3.936   2.665 -0.4698 -3.5380  0.7134
   66MOL   H28619916   4.596   4.136   2.739 -0.3739  0.7726  1.1648
   66MOL   C28719917   4.945   3.914   3.023 -0.6136 -0.6231  0.4650
   66MOL   C28819918   5.012   4.019   2.940  0.3665 -0.9933  0.4699
   66MOL   C28919919   5.138   3.968   2.876  0.0551  0.6295  0.3586
   66MOL   C29019920   5.137   3.896   2.755 -0.3064 -0.0295  0.2329
   66MOL   C29119921   5.262   3.844   2.698 -0.1460 -0.1445 -1.0403
   66MOL   C29219922   5.380   3.881   2.763  0.1953 -0.0404  0.3495
   66MOL   C29319923   5.369   3.962   2.880  0.2367  0.7514  0.2862
   66MOL   N29419924   5.252   3.997   2.939 -0.2135  0.6071  0.7341
   66MOL   H29519925   4.939   3.827   2.958 -0.4736  0.8498 -1.5775
   66MOL   H29619926   5.018   3.880   3.096  0.2128 -0.6868 -0.3775
   66MOL   H29719927   5.027   4.119   2.980  0.1123 -0.6280 -0.3304
   66MOL   H29819928   5.037   3.880   2.718  1.4480 -0.6355 -4.5612
   66MOL   H29919929   5.263   3.781   2.611 -2.8973 -0.2299 -1.0631
   66MOL   H30019930   5.475   3.854   2.719  0.5865  0.4044  0.9163
   66MOL   H30119931   5.453   3.983   2.945  0.9033  0.4631 -0.4694
   66MOL   H30219932   4.948   4.058   2.860  0.0989 -0.2673  1.0340
   67MOL     C119933   7.738   5.047   7.936  0.1884 -0.3593  0.1587
   67MOL     C219934   7.618   4.997   7.856 -0.0722  0.2087 -0.9053
   67MOL     C319935   7.659   4.918   7.729  1.0723 -0.2125 -0.8828
   67MOL     C419936   7.629   4.959   7.596 -0.1396  0.2567 -0.2333
   67MOL     C519937   7.676   4.887   7.485  0.2237  0.6439  0.2644
   67MOL     C619938   7.751   4.776   7.513 -0.8480 -0.0097  0.8024
   67MOL     C719939   7.775   4.730   7.645 -0.4326  0.9861  0.3146
   67MOL     N819940   7.727   4.806   7.747  0.0276 -0.0240  0.3141
   67MOL     H919941   7.805   5.106   7.874 -0.6489 -0.9240 -1.3191
   67MOL    H1019942   7.719   5.123   8.013 -1.9865 -0.2739 -0.4249
   67MOL    H1119943   7.555   5.081   7.825  1.1853  0.9538 -1.4788
   67MOL    H1219944   7.568   5.046   7.576  1.3915  1.0086 -1.7504
   67MOL    H1319945   7.649   4.894   7.381 -0.3724 -1.1053  0.2718
   67MOL    H1419946   7.779   4.726   7.422 -1.4581  0.6629  0.2397
   67MOL    H1519947   7.839   4.648   7.671 -2.7826 -0.4438  1.8042
   67MOL    H1619948   7.791   4.962   7.979  1.1112  0.8830  1.5334
   67MOL    C1719949   7.514   4.923   7.944  0.4699 -0.2744  0.1420
   67MOL    C1819950   7.396   4.864   7.861  0.0994  0.3303  0.4849
   67MOL    C1919951   7.334   4.743   7.940 -0.0685 -0.3636 -0.6710
   67MOL    C2019952   7.348   4.611   7.888  0.4581  1.1183  0.2322
   67MOL    C2119953   7.295   4.503   7.965 -0.4555 -0.2988 -0.0684
   67MOL    C2219954   7.240   4.532   8.094 -0.2668  0.8223 -0.0195
   67MOL    C2319955   7.243   4.663   8.143  0.6760  0.7136  0.6649
   67MOL    N2419956   7.280   4.767   8.063 -0.2586  0.0046  0.2160
   67MOL    H2519957   7.479   4.993   8.020 -0.3639 -1.6116  0.9954
   67MOL    H2619958   7.559   4.837   7.994 -1.7534  0.6495  3.9572
   67MOL    H2719959   7.445   4.815   7.777 -1.6533 -0.3250 -0.1694
   67MOL    H2819960   7.393   4.599   7.791  1.4227 -1.3417  0.9413
   67MOL    H2919961   7.313   4.406   7.922 -0.2721 -0.9290  1.3949
   67MOL    H3019962   7.212   4.456   0.013  2.7115 -0.5120 -0.2462
   67MOL    H3119963   7.204   4.683   0.089 -2.2562 -0.1985 -0.2772
   67MOL    C3219964   7.285   4.957   7.809  0.9249 -0.6045  0.1315
   67MOL    C3319965   7.183   4.918   7.701  0.1272  0.6873 -0.6631
   67MOL    C3419966   7.243   4.899   7.564  0.1516  0.0799 -0.1346
   67MOL    C3519967   7.207   4.997   7.470 -0.7927 -0.5322 -0.6421
   67MOL    C3619968   7.250   4.987   7.339  0.1841 -0.3701 -0.5144
   67MOL    C3719969   7.331   4.884   7.311 -0.5800  0.2485  0.1489
   67MOL    C3819970   7.378   4.803   7.412  0.2392  0.0397 -0.4718
   67MOL    N3919971   7.341   4.810   7.536  0.5064 -0.5594  0.1427
   67MOL    H4019972   7.326   5.052   7.774  2.5806 -2.5698 -3.6128
   67MOL    H4119973   7.230   4.987   7.898 -0.0958 -0.1948 -0.6267
   67MOL    H4219974   7.109   4.996   7.684 -0.4191  0.4582  0.6068
   67MOL    H4319975   7.133   5.075   7.485 -1.3098 -0.8335 -1.5845
   67MOL    H4419976   7.211   5.060   7.270  0.2197  0.7773  0.6504
   67MOL    H4519977   7.371   4.862   7.213  1.3547 -0.2718  1.0377
   67MOL    H4619978   7.452   4.727   7.392 -1.5420 -1.8171 -0.2605
   67MOL    C4719979   7.093   4.796   7.733 -0.5726 -0.7722  0.0297
   67MOL    C4819980   6.994   4.827   7.844 -0.0649  0.3549  0.4154
   67MOL    C4919981   6.905   4.944   7.807  0.1592  0.0390  0.1370
   67MOL    C5019982   6.816   4.932   7.705 -0.1082  0.1377 -0.3086
   67MOL    C5119983   6.733   5.041   7.677  0.7162 -0.3824  0.4379
   67MOL    C5219984   6.755   5.164   7.745 -0.3385  0.3530 -0.3258
   67MOL    C5319985   6.850   5.165   7.850  0.1567 -0.2252  0.3656
   67MOL    N5419986   6.917   5.059   7.879  0.2768  0.7805  0.4745
   67MOL    H5519987   7.162   4.713   7.744  0.6439  0.2578  0.2166
   67MOL    H5619988   7.035   4.774   7.643 -1.7383  4.1152 -0.5623
   67MOL    H5719989   7.044   4.864   7.934  0.0108 -0.3851  0.6814
   67MOL    H5819990   6.825   4.845   7.641 -2.5191 -0.4420  0.0869
   67MOL    H5919991   6.665   5.033   7.594  0.4275  0.1096  0.6292
   67MOL    H6019992   6.701   5.255   7.725 -0.4632  0.4332  0.3555
   67MOL    H6119993   6.859   5.254   7.911  0.3629  1.9797 -2.7377
   67MOL    C6219994   6.927   4.702   7.898 -0.0248 -0.1522 -0.9929
   67MOL    C6319995   6.887   4.710   8.048 -0.4129 -0.3828  0.3413
   67MOL    C6419996   6.772   4.796   8.071  0.5550 -0.6055  0.5732
   67MOL    C6519997   6.788   4.917   8.146  0.1728 -0.4785  0.5847
   67MOL    C6619998   6.669   4.989   0.017  0.1110 -0.9253 -0.2280
   67MOL    C6719999   6.545   4.944   8.124  0.6679  0.2668 -0.0420
   67MOL    C6820000   6.537   4.819   8.062 -0.0074  0.0949  0.0888
   67MOL    N6920001   6.649   4.751   8.026 -0.7489 -0.0108 -0.0635
   67MOL    H7020002   6.993   4.618   7.874 -1.1594 -0.7670 -2.0142
   67MOL    H7120003   6.840   4.668   7.841 -1.6286 -0.1256  1.3772
   67MOL    H7220004   6.972   4.758   8.097  0.3194 -0.3975 -0.8884
   67MOL    H7320005   6.879   4.966   0.027 -0.3344  0.6914  0.2859
   67MOL    H7420006   6.673   5.080   0.076  0.8625 -1.0588 -0.0663
   67MOL    H7520007   6.460   5.004   0.001 -0.3610 -0.3574 -1.7366
   67MOL    H7620008   6.439   4.780   8.035  0.5084 -0.6164 -0.7607
   67MOL    C7720009   6.869   4.562   8.103  0.0109  0.6662 -0.0073
   67MOL    C7820010   6.836   4.551   0.104  0.4047 -0.7893  0.0865
   67MOL    C7920011   6.794   4.405   0.138  0.2655 -0.5169 -0.2046
   67MOL    C8020012   6.882   4.300   0.098  0.5455 -1.4104 -0.6305
   67MOL    C8120013   6.846   4.167   0.128  0.3637 -0.0877 -0.8149
   67MOL    C8220014   6.728   4.146   0.199 -0.1955  0.4634  0.5139
   67MOL    C8320015   6.645   4.257   0.228 -0.3278  0.2345  0.3863
   67MOL    N8420016   6.675   4.376   0.193 -0.4177 -0.6482  0.0891
   67MOL    H8520017   6.958   4.505   8.079 -1.5018 -2.0290  0.5364
   67MOL    H8620018   6.786   4.519   8.045 -0.9720  3.1915 -0.5188
   67MOL    H8720019   6.748   4.611   0.126  0.6195 -0.0925 -0.9056
   67MOL    H8820020   6.980   4.308   0.055  1.3331  1.6817  1.5958
   67MOL    H8920021   6.910   4.081   0.120 -0.6067 -0.8739 -0.3123
   67MOL    H9020022   6.710   4.045   0.231  2.3602 -0.3387 -0.4081
   67MOL    H9120023   6.564   4.228   0.294 -1.2320  0.9607 -0.3764
   67MOL    C9220024   6.948   4.599   0.194 -0.3757 -1.3927 -0.0603
   67MOL    C9320025   6.887   4.636   0.325  0.0125  0.1177  1.2179
   67MOL    C9420026   6.990   4.641   0.435 -0.4741  0.5595 -0.0810
   67MOL    C9520027   6.957   4.587   0.556  0.1455 -0.5036 -0.4078
   67MOL    C9620028   7.037   4.605   0.665  0.1335  0.5423 -0.1498
   67MOL    C9720029   7.157   4.673   0.646 -0.2630  0.2229  0.4232
   67MOL    C9820030   7.191   4.717   0.520  0.1493  0.5082  0.4228
   67MOL    N9920031   7.107   4.702   0.413  0.5606 -0.2685  0.2729
   67MOL   H10020032   7.004   4.681   0.149  0.1425 -0.9238  1.4297
   67MOL   H10120033   7.014   4.516   0.217 -0.2343 -2.2186 -3.2353
   67MOL   H10220034   6.820   4.555   0.356  0.4224 -1.3851 -1.6465
   67MOL   H10320035   6.864   4.535   0.572 -0.5774  0.0823 -2.5932
   67MOL   H10420036   6.997   4.574   0.760 -2.7449  1.4334 -1.0207
   67MOL   H10520037   7.221   4.701   0.728  0.0747 -1.4584  0.7470
   67MOL   H10620038   7.282   4.770   0.498 -0.7473  1.2213 -1.8191
   67MOL   C10720039   6.813   4.773   0.324  0.1003  0.0181  0.0361
   67MOL   C10820040   6.718   4.810   0.448  0.4353 -0.6295 -0.1375
   67MOL   C10920041   6.713   4.953   0.471 -0.6811 -0.2339  0.3918
   67MOL   C11020042   6.773   5.008   0.581 -0.0990 -0.1847  0.4140
   67MOL   C11120043   6.784   5.150   0.590 -0.1399 -0.1714  0.7535
   67MOL   C11220044   6.716   5.225   0.498 -0.3507 -0.6036  0.3659
   67MOL   C11320045   6.648   5.160   0.394  0.8752 -0.2145  0.2827
   67MOL   N11420046   6.648   5.026   0.380  0.0277 -1.3056 -0.1592
   67MOL   H11520047   6.757   4.787   0.231  0.3351 -1.8235 -0.3950
   67MOL   H11620048   6.897   4.841   0.310  0.5324 -0.2695  1.1756
   67MOL   H11720049   6.756   4.772   0.542 -1.4704 -0.2308  0.8241
   67MOL   H11820050   6.815   4.946   0.660  1.0554 -0.8565 -0.7068
   67MOL   H11920051   6.832   5.195   0.675  0.6845  1.3416 -0.4807
   67MOL   H12020052   6.721   5.333   0.506  0.2972 -0.3699 -2.4862
   67MOL   H12120053   6.587   5.216   0.326  2.1387  0.4155 -0.3420
   67MOL   C12220054   6.573   4.763   0.427 -0.2406  0.0176 -0.4315
   67MOL   C12320055   6.534   4.615   0.462  0.3056  0.6858 -0.1833
   67MOL   C12420056   6.578   4.564   0.606  0.1148 -0.0887 -0.5876
   67MOL   C12520057   6.617   4.430   0.629  0.5436  0.3883 -0.7481
   67MOL   C12620058   6.666   4.399   0.760  0.2885 -0.8124 -0.3357
   67MOL   C12720059   6.670   4.502   0.857 -0.7542  0.6532 -0.0129
   67MOL   C12820060   6.618   4.630   0.822  0.2210  0.3540 -0.7237
   67MOL   N12920061   6.574   4.658   0.701  0.1128 -0.4737 -0.0955
   67MOL   H13020062   6.540   4.791   0.327 -0.2866  0.8417 -0.1904
   67MOL   H13120063   6.511   4.827   0.490  2.4883  0.1111  2.2412
   67MOL   H13220064   6.583   4.550   0.391  1.2823  1.0668  0.1264
   67MOL   H13320065   6.612   4.358   0.548 -0.8925  0.3090 -0.6044
   67MOL   H13420066   6.698   4.301   0.792  1.4258 -0.1344  0.6526
   67MOL   H13520067   6.709   4.492   0.957  0.5218 -0.6911 -0.6287
   67MOL   H13620068   6.620   4.702   0.902  0.8080 -1.9511  1.4243
   67MOL   C13720069   6.381   4.614   0.450  0.4833 -0.6439  0.1795
   67MOL   C13820070   6.299   4.491   0.491  0.3197 -0.5612 -0.0479
   67MOL   C13920071   6.151   4.523   0.486 -0.1454  0.5085  0.3369
   67MOL   C14020072   6.086   4.528   0.610  0.5017 -0.5177 -0.0702
   67MOL   C14120073   5.956   4.569   0.610  0.1649  0.3524 -0.0298
   67MOL   C14220074   5.891   4.606   0.491  0.3363  0.2034 -0.2455
   67MOL   C14320075   5.967   4.595   0.370  0.2169  0.0167  1.1489
   67MOL   N14420076   6.091   4.563   0.372 -0.8825 -0.1607  0.0574
   67MOL   H14520077   6.364   4.637   0.345  0.8047 -1.8594 -0.1485
   67MOL   H14620078   6.341   4.698   0.508  0.0803  1.1951 -2.6784
   67MOL   H14720079   6.335   4.481   0.593 -0.4746 -0.1563  0.2789
   67MOL   H14820080   6.132   4.500   0.703  1.3413  3.1920  0.6924
   67MOL   H14920081   5.899   4.574   0.702 -2.0319  0.5800 -1.3581
   67MOL   H15020082   5.786   4.627   0.486  0.6138  1.1926 -2.1228
   67MOL   H15120083   5.923   4.606   0.272  0.3011 -0.3643  1.0684
   67MOL   C15220084   6.333   4.367   0.422  0.1318  0.0213 -0.0228
   67MOL   C15320085   6.239   4.242   0.441 -0.4125  0.3094  0.2472
   67MOL   C15420086   6.287   4.120   0.367 -0.2151 -0.5239  0.4473
   67MOL   C15520087   6.238   4.093   0.237 -0.2300  0.3004 -0.5598
   67MOL   C15620088   6.293   3.985   0.167  0.0866 -0.7673 -0.4086
   67MOL   C15720089   6.395   3.910   0.225 -0.5461 -0.1353 -0.0694
   67MOL   C15820090   6.435   3.947   0.353  0.1522 -0.2393 -0.2329
   67MOL   N15920091   6.390   4.052   0.426  0.7100 -0.2898 -0.6053
   67MOL   H16020092   6.432   4.324   0.440 -0.7696 -0.8332  3.0893
   67MOL   H16120093   6.345   4.389   0.316 -2.9836 -1.4606 -0.7472
   67MOL   H16220094   6.147   4.273   0.392  0.0380 -2.2828 -2.4113
   67MOL   H16320095   6.157   4.142   0.186  1.6050  2.1637 -1.7606
   67MOL   H16420096   6.254   3.957   0.071  1.0083 -1.6468 -0.5349
   67MOL   H16520097   6.440   3.826   0.174 -0.2946  0.4876 -0.8723
   67MOL   H16620098   6.515   3.898   0.408 -0.2968  2.4264  2.9084
   67MOL   C16720099   6.222   4.209   0.596 -0.1303  0.6507  0.0271
   67MOL   C16820100   6.091   4.133   0.623  0.3299 -0.1411 -0.1521
   67MOL   C16920101   6.113   4.063   0.752  0.4137 -0.0907  0.0271
   67MOL   C17020102   6.115   3.922   0.767 -0.2217  0.0652  0.2785
   67MOL   C17120103   6.122   3.871   0.893 -0.1874  0.0344 -0.3101
   67MOL   C17220104   6.128   3.959   1.005 -0.4502 -0.2632 -0.2671
   67MOL   C17320105   6.120   4.097   0.985  0.3719 -0.4555  0.0815
   67MOL   N17420106   6.117   4.146   0.856 -0.4564  0.3947 -0.0067
   67MOL   H17520107   6.214   4.297   0.660 -1.2727  0.7097 -0.1841
   67MOL   H17620108   6.311   4.158   0.632 -0.3981  1.9346  2.5975
   67MOL   H17720109   6.093   4.056   0.546  0.3718  0.9001 -1.2037
   67MOL   H17820110   6.094   3.861   0.680 -1.5121  0.3655  0.3581
   67MOL   H17920111   6.131   3.764   0.902 -0.6529  0.1311  1.3764
   67MOL   H18020112   6.126   3.914   1.103  0.2605 -1.6963 -0.9031
   67MOL   H18120113   6.118   4.167   1.068 -2.4951 -1.4004  0.8706
   67MOL   C18220114   5.958   4.215   0.616  0.0247 -0.1389 -0.3136
   67MOL   C18320115   5.829   4.143   0.672 -0.3504 -0.3118  0.0971
   67MOL   C18420116   5.716   4.244   0.704 -0.5486 -0.1310  0.0441
   67MOL   C18520117   5.635   4.224   0.813 -0.1451  0.8686  0.3039
   67MOL   C18620118   5.533   4.306   0.839  0.1390 -0.4245  0.0251
   67MOL   C18720119   5.520   4.424   0.767 -0.6579  0.0098  0.2867
   67MOL   C18820120   5.606   4.446   0.657  0.0937  0.3899  0.0932
   67MOL   N18920121   5.697   4.353   0.621  0.0796 -0.0101  0.8478
   67MOL   H19020122   5.941   4.266   0.522  1.0444  0.2909 -0.2764
   67MOL   H19120123   5.990   4.299   0.677 -0.4905 -0.4726  0.4161
   67MOL   H19220124   5.856   4.096   0.766 -0.4990 -0.8085 -0.1030
   67MOL   H19320125   5.643   4.143   0.884 -1.9307  1.4386  1.1831
   67MOL   H19420126   5.458   4.285   0.914  0.3520  1.0499  0.6698
   67MOL   H19520127   5.443   4.498   0.782 -1.2111 -0.6225  0.5419
   67MOL   H19620128   5.598   4.522   0.581  1.4189  0.1923 -0.2572
   67MOL   C19720129   5.780   4.044   0.565 -0.2101  0.1658  0.2986
   67MOL   C19820130   5.666   3.944   0.598 -0.3716 -0.2647 -0.1857
   67MOL   C19920131   5.609   3.890   0.463  0.5168  0.6263 -0.4511
   67MOL   C20020132   5.699   3.829   0.372  0.2434 -0.1556 -0.8923
   67MOL   C20120133   5.649   3.789   0.243 -0.3170  0.2164 -0.7350
   67MOL   C20220134   5.518   3.822   0.218 -0.8498 -0.1311  0.2138
   67MOL   C20320135   5.440   3.897   0.309 -0.5424 -0.5482  0.0802
   67MOL   N20420136   5.486   3.929   0.427  0.7681 -0.1748  0.4785
   67MOL   H20520137   5.865   3.997   0.515 -0.8312  0.5797 -1.1745
   67MOL   H20620138   5.754   4.119   0.490 -0.1953 -0.2292 -0.1080
   67MOL   H20720139   5.581   3.990   0.648  0.2123  1.5953 -0.8779
   67MOL   H20820140   5.801   3.811   0.402  0.0585  0.5512  0.2013
   67MOL   H20920141   5.705   3.717   0.185 -0.0179 -0.3149  0.1984
   67MOL   H21020142   5.469   3.781   0.131 -0.4694  1.5095 -0.7997
   67MOL   H21120143   5.336   3.918   0.287 -0.1778  1.8991  0.5879
   67MOL   C21220144   5.715   3.828   0.685  0.2980 -0.2737  0.3636
   67MOL   C21320145   5.611   3.721   0.740  0.4522 -0.0242 -0.0800
   67MOL   C21420146   5.514   3.789   0.840 -0.2188 -0.4168  0.0015
   67MOL   C21520147   5.516   3.755   0.979 -0.0758  0.6350  1.4382
   67MOL   C21620148   5.429   3.818   1.072  0.4957  0.0148 -0.0989
   67MOL   C21720149   5.338   3.910   1.025 -0.3414 -0.5526  0.3865
   67MOL   C21820150   5.341   3.931   0.887  0.2790 -0.0678  0.7260
   67MOL   N21920151   5.424   3.874   0.798 -0.4348 -0.0390  0.1245
   67MOL   H22020152   5.774   3.872   0.765  3.1773  0.8983 -2.3067
   67MOL   H22120153   5.795   3.778   0.630 -0.3312  0.5332 -1.3355
   67MOL   H22220154   5.672   3.640   0.780  0.7143 -0.1767 -0.7878
   67MOL   H22320155   5.587   3.681   1.014 -2.1417 -2.7917 -1.3474
   67MOL   H22420156   5.429   3.793   1.177  3.4254 -2.1084 -0.5531
   67MOL   H22520157   5.253   3.948   1.080  0.3880 -0.8118  1.7188
   67MOL   H22620158   5.266   3.997   0.847  1.1285  0.6312  0.2584
   67MOL   C22720159   5.529   3.649   0.629  0.3005 -0.1692  0.1288
   67MOL   C22820160   5.436   3.541   0.681 -1.2614  0.5025  0.4938
   67MOL   C22920161   5.298   3.554   0.622 -0.2040  0.5759 -0.2014
   67MOL   C23020162   5.202   3.629   0.692 -0.3740  0.5257  0.0858
   67MOL   C23120163   5.071   3.637   0.636 -0.8495 -0.2232  0.0091
   67MOL   C23220164   5.048   3.575   0.514  0.2624 -0.5806  0.3236
   67MOL   C23320165   5.150   3.515   0.446 -0.2014  0.4452 -0.1233
   67MOL   N23420166   5.269   3.500   0.499  0.2178 -0.5180 -0.2691
   67MOL   H23520167   5.599   3.615   0.552 -0.2687 -0.8075 -0.1114
   67MOL   H23620168   5.472   3.717   0.565 -0.1176 -0.3839  0.2775
   67MOL   H23720169   5.427   3.546   0.789  2.8980 -2.3399  1.0711
   67MOL   H23820170   5.227   3.679   0.784  0.2987  0.9073 -0.3037
   67MOL   H23920171   4.988   3.684   0.687  0.6510  1.3841  1.0256
   67MOL   H24020172   4.946   3.573   0.481 -0.2642 -0.8478  1.9110
   67MOL   H24120173   5.143   3.469   0.349 -0.8454 -1.1211  0.6519
   67MOL   C24220174   5.486   3.397   0.662 -0.2720 -0.6673 -0.5398
   67MOL   C24320175   5.595   3.341   0.761  0.4698 -0.2584 -0.4298
   67MOL   C24420176   5.574   3.371   0.913 -0.5516 -0.5769 -0.0641
   67MOL   C24520177   5.451   3.342   0.970 -0.6028  0.6691 -1.0406
   67MOL   C24620178   5.425   3.378   1.103 -0.4195 -0.0798  0.3202
   67MOL   C24720179   5.531   3.431   1.177 -0.3053  0.9633 -0.0428
   67MOL   C24820180   5.662   3.439   1.119 -0.2063 -0.2713  0.0899
   67MOL   N24920181   5.683   3.414   0.985 -0.5788  0.2433  0.7647
   67MOL   H25020182   5.516   3.390   0.557  0.7404 -1.1938 -0.2257
   67MOL   H25120183   5.407   3.322   0.672 -0.5317 -0.8301 -3.3507
   67MOL   H25220184   5.686   3.395   0.735  0.2560 -0.4152 -1.5297
   67MOL   H25320185   5.368   3.305   0.911  0.6001 -2.1470 -1.0561
   67MOL   H25420186   5.325   3.362   1.139  0.0613 -2.2778  0.7491
   67MOL   H25520187   5.511   3.457   1.280 -1.1641 -2.1426  0.6287
   67MOL   H25620188   5.751   3.469   1.173 -0.7163  2.0312 -0.2722
   67MOL   C25720189   5.621   3.192   0.725  0.2143  0.6990  0.2244
   67MOL   C25820190   5.752   3.121   0.765  0.4607 -0.4331 -0.1141
   67MOL   C25920191   5.757   2.969   0.749  0.1047  0.2872 -0.7161
   67MOL   C26020192   5.753   2.882   0.855 -0.0875 -0.1680 -0.4496
   67MOL   C26120193   5.753   2.734   0.844  0.2549 -0.9333  0.3327
   67MOL   C26220194   5.754   2.690   0.708  0.2864 -0.0556  0.4040
   67MOL   C26320195   5.747   2.786   0.597  0.4335  0.3752 -0.2363
   67MOL   N26420196   5.744   2.921   0.622  0.3773  0.2360  0.7624
   67MOL   H26520197   5.604   3.178   0.619  1.2921  1.5875 -0.0688
   67MOL   H26620198   5.549   3.134   0.782  1.4181  1.6230  2.7819
   67MOL   H26720199   5.769   3.133   0.872  0.8613 -1.5973 -0.0368
   67MOL   H26820200   5.748   2.926   0.954 -0.6594 -2.4471  0.5692
   67MOL   H26920201   5.730   2.670   0.928  0.3084 -0.9185  0.3583
   67MOL   H27020202   5.755   2.584   0.692 -1.7657 -0.5380  3.1799
   67MOL   H27120203   5.743   2.742   0.499  0.1583 -1.1128  0.4345
   67MOL   C27220204   5.879   3.184   0.694  0.1119  0.2179 -0.2074
   67MOL   C27320205   5.942   3.299   0.769  0.5940  0.6056  0.4230
   67MOL   C27420206   6.034   3.255   0.880  0.0044  0.2391  0.2917
   67MOL   C27520207   6.011   3.297   1.013  0.3211  0.2788 -0.5561
   67MOL   C27620208   6.106   3.266   1.111  0.4246  0.4244 -0.4979
   67MOL   C27720209   6.225   3.203   1.070  0.0196 -0.1373 -0.1298
   67MOL   C27820210   6.240   3.177   0.939  0.5069  0.5080 -0.7154
   67MOL   N27920211   6.151   3.205   0.844 -0.4020 -0.3690  0.5273
   67MOL   H28020212   5.860   3.205   0.589  1.3639  0.8753 -0.3105
   67MOL   H28120213   5.960   3.113   0.678  0.3193  0.7882 -1.7942
   67MOL   H28220214   5.862   3.362   0.809  2.1025  2.8875 -0.0911
   67MOL   H28320215   5.919   3.349   1.037 -0.2174 -1.5759  1.5537
   67MOL   H28420216   6.086   3.292   1.214  0.8755 -1.6678  0.1362
   67MOL   H28520217   6.303   3.174   1.139  0.7775 -0.6288 -1.1711
   67MOL   H28620218   6.336   3.141   0.906  1.2869  0.3470  1.6011
   67MOL   C28720219   6.008   3.402   0.675 -0.6990  0.2642  0.2623
   67MOL   C28820220   5.914   3.487   0.596 -0.1212 -0.2576  0.9340
   67MOL   C28920221   5.965   3.561   0.472  0.3687 -0.2798 -0.7886
   67MOL   C29020222   6.065   3.658   0.484 -0.3117  0.0180  1.1932
   67MOL   C29120223   6.116   3.711   0.363 -0.0965  0.3272 -0.2644
   67MOL   C29220224   6.045   3.682   0.244 -0.3766  0.6641 -0.1875
   67MOL   C29320225   5.936   3.597   0.249 -0.1217 -0.2656 -0.2936
   67MOL   N29420226   5.893   3.539   0.360  0.2994  0.3576  0.1248
   67MOL   H29520227   6.079   3.353   0.609  2.3561  1.9199  2.2491
   67MOL   H29620228   6.062   3.463   0.747  1.4832 -2.1600  0.7378
   67MOL   H29720229   5.866   3.562   0.660 -1.2962 -0.5517  0.4151
   67MOL   H29820230   6.115   3.671   0.579 -0.3078 -1.6383  1.4442
   67MOL   H29920231   6.199   3.781   0.364  0.1188  0.0655  0.3547
   67MOL   H30020232   6.081   3.731   0.155  1.1526 -0.5671 -0.2616
   67MOL   H30120233   5.879   3.573   0.161  0.0174 -1.4240 -0.0764
   67MOL   H30220234   5.840   3.419   0.552  1.1950 -0.7181 -0.5822
   68MOL     C120235   5.733   6.695   4.697 -0.0917 -0.2043 -0.5382
   68MOL     C220236   5.816   6.756   4.810 -0.0198 -0.0678 -0.4677
   68MOL     C320237   5.829   6.904   4.790  0.0526  0.0016  0.4262
   68MOL     C420238   5.947   6.960   4.735  0.2047  0.8445 -0.3285
   68MOL     C520239   5.960   7.103   4.735 -0.3970 -0.0207  0.1325
   68MOL     C620240   5.847   7.183   4.765 -0.8803  0.0723 -0.3843
   68MOL     C720241   5.728   7.123   4.813  0.3322 -0.6136  0.1660
   68MOL     N820242   5.724   6.989   4.826  0.5148  0.3721  0.3862
   68MOL     H920243   5.762   6.733   4.599 -3.7939  0.7830 -1.3589
   68MOL    H1020244   5.750   6.588   4.687  2.1777  0.1695 -0.8792
   68MOL    H1120245   5.916   6.714   4.802  0.7807  1.7221 -0.1281
   68MOL    H1220246   6.037   6.901   4.723 -0.1278  0.5331 -1.3126
   68MOL    H1320247   6.038   7.161   4.688  0.6412 -0.0399  1.7801
   68MOL    H1420248   5.856   7.290   4.752 -2.3971  0.4236  1.2867
   68MOL    H1520249   5.644   7.182   4.846  0.2007 -0.8428  0.2455
   68MOL    H1620250   5.624   6.704   4.701 -0.0117  0.6129 -0.1986
   68MOL    C1720251   5.761   6.735   4.949 -0.0052 -0.6070  0.9202
   68MOL    C1820252   5.747   6.593   5.001 -0.7689 -0.3764  0.3442
   68MOL    C1920253   5.873   6.508   4.973 -0.3103 -0.1492  0.2715
   68MOL    C2020254   5.859   6.378   4.920  0.4659  0.4407 -0.3179
   68MOL    C2120255   5.974   6.295   4.929  0.2908 -0.5649 -0.3646
   68MOL    C2220256   6.098   6.349   4.979 -0.8896  0.3759  0.4695
   68MOL    C2320257   6.087   6.474   5.050  0.5055  0.4049  0.3034
   68MOL    N2420258   5.981   6.554   5.042  0.2857 -0.0230  0.1048
   68MOL    H2520259   5.663   6.782   4.957  1.1377  2.0478 -0.0620
   68MOL    H2620260   5.832   6.788   5.013  0.6159 -1.8376  1.2662
   68MOL    H2720261   5.671   6.543   4.942 -1.0635  1.6903 -1.1113
   68MOL    H2820262   5.766   6.339   4.883  0.3753 -2.3169  2.5975
   68MOL    H2920263   5.964   6.192   4.900  0.6297 -0.7818  0.2760
   68MOL    H3020264   6.188   6.292   4.994 -0.7977  0.4214  0.0792
   68MOL    H3120265   6.179   6.507   5.097  0.1838  0.0844  1.1664
   68MOL    C3220266   5.698   6.591   5.144  0.5174 -0.2240 -0.8618
   68MOL    C3320267   5.667   6.447   5.207  0.4808  0.5099 -0.2543
   68MOL    C3420268   5.667   6.456   5.352 -0.8910 -0.6484 -0.3707
   68MOL    C3520269   5.778   6.421   5.426 -0.3002  1.1922  0.1536
   68MOL    C3620270   5.766   6.437   5.570 -0.4241  0.2433  0.1825
   68MOL    C3720271   5.646   6.490   5.623  0.1574  0.4242  0.2868
   68MOL    C3820272   5.540   6.515   5.535 -0.7799 -0.2327 -0.2492
   68MOL    N3920273   5.554   6.508   5.404 -0.5175 -0.3950 -0.5200
   68MOL    H4020274   5.612   6.657   5.148  0.1878 -0.7279  0.4775
   68MOL    H4120275   5.768   6.643   5.209  0.4069 -1.6460  0.4156
   68MOL    H4220276   5.750   6.383   5.176 -2.2508 -2.4731 -1.7492
   68MOL    H4320277   5.870   6.381   5.385 -0.2830  0.6251  0.7404
   68MOL    H4420278   5.846   6.402   5.633 -1.0997 -2.4928 -0.4144
   68MOL    H4520279   5.630   6.486   5.730 -2.5336 -2.1625 -0.1269
   68MOL    H4620280   5.446   6.548   5.578  0.1536 -0.1168  1.7719
   68MOL    C4720281   5.544   6.372   5.142 -0.1239  0.2082  0.0107
   68MOL    C4820282   5.511   6.247   5.225 -0.2241 -0.0809  0.0970
   68MOL    C4920283   5.372   6.204   5.183 -0.5536  0.4045  0.9045
   68MOL    C5020284   5.273   6.184   5.278  0.2662 -0.0698  0.5774
   68MOL    C5120285   5.154   6.116   5.240 -0.2689  0.6388  0.5233
   68MOL    C5220286   5.134   6.084   5.107 -0.0558 -0.0297 -0.2990
   68MOL    C5320287   5.246   6.106   5.018 -0.8780 -0.0117 -0.0930
   68MOL    N5420288   5.359   6.167   5.054  0.7727 -0.8383  0.1794
   68MOL    H5520289   5.562   6.348   5.037  2.9149  0.3185  0.4766
   68MOL    H5620290   5.460   6.440   5.153 -0.8932 -0.9922  1.8464
   68MOL    H5720291   5.498   6.283   5.328 -1.0138  1.0940 -0.4040
   68MOL    H5820292   5.286   6.223   5.378 -3.1449  0.4092  0.9131
   68MOL    H5920293   5.075   6.116   5.314 -1.8610  0.7952 -1.1327
   68MOL    H6020294   5.043   6.046   5.062  0.2255 -2.1715  0.8522
   68MOL    H6120295   5.237   6.095   4.911 -1.7008  0.4151 -0.0718
   68MOL    C6220296   5.609   6.124   5.222 -0.1059  0.0337  0.3416
   68MOL    C6320297   5.589   6.010   5.331 -0.2769  0.6866  0.2074
   68MOL    C6420298   5.672   5.889   5.303 -0.0967  0.6873  0.3593
   68MOL    C6520299   5.612   5.761   5.283  0.0780 -0.1614  0.0639
   68MOL    C6620300   5.689   5.655   5.237  0.0373  0.6420  0.6718
   68MOL    C6720301   5.825   5.686   5.200  0.1165  0.4130  0.2082
   68MOL    C6820302   5.874   5.813   5.224 -0.1093  0.2203  0.4806
   68MOL    N6920303   5.802   5.909   5.271 -0.4078  0.0822 -0.1333
   68MOL    H7020304   5.711   6.156   5.245  0.1001 -1.2756  1.3484
   68MOL    H7120305   5.606   6.082   5.122 -0.0805  0.9224 -0.0323
   68MOL    H7220306   5.482   5.989   5.328  0.0568 -0.9214 -1.0583
   68MOL    H7320307   5.509   5.742   5.310  0.2655  0.0794  0.9652
   68MOL    H7420308   5.641   5.560   5.220 -1.6325  1.1578  2.3664
   68MOL    H7520309   5.884   5.608   5.154  0.5039  1.0680 -0.4029
   68MOL    H7620310   5.974   5.849   5.205  0.7833 -1.8667  1.0707
   68MOL    C7720311   5.616   6.064   5.473  0.1100 -0.0046 -0.3129
   68MOL    C7820312   5.581   5.968   5.592 -0.2333  0.2330  0.3636
   68MOL    C7920313   5.675   5.996   5.705  0.2888 -0.2632 -0.2226
   68MOL    C8020314   5.741   5.902   5.778  0.1152  1.1066 -0.7871
   68MOL    C8120315   5.812   5.941   5.892 -0.0111  0.1143 -0.1460
   68MOL    C8220316   5.801   6.076   5.929 -0.2397 -0.2367  0.5427
   68MOL    C8320317   5.737   6.169   5.846 -0.1833 -0.3353 -0.0586
   68MOL    N8420318   5.667   6.129   5.741 -0.0328 -0.3262 -0.3015
   68MOL    H8520319   5.572   6.164   5.483  1.7074  0.5577  1.5333
   68MOL    H8620320   5.725   6.072   5.471  0.1513  0.3243  1.6562
   68MOL    H8720321   5.606   5.869   5.551 -0.6834 -0.0796  0.8414
   68MOL    H8820322   5.721   5.799   5.751 -1.2006  1.4808 -1.2515
   68MOL    H8920323   5.866   5.874   5.957  1.3892  0.7218 -0.6672
   68MOL    H9020324   5.864   6.106   6.012 -1.3541 -1.3405  1.7946
   68MOL    H9120325   5.720   6.275   5.858 -2.5084 -0.6365 -0.4220
   68MOL    C9220326   5.436   5.971   5.638 -0.1768 -0.8547 -0.8132
   68MOL    C9320327   5.391   5.864   5.741  0.0479  0.6456 -0.6995
   68MOL    C9420328   5.247   5.890   5.781 -0.2644 -1.3303  1.0599
   68MOL    C9520329   5.204   5.920   5.911  0.4831 -1.1020  0.7871
   68MOL    C9620330   5.064   5.950   5.934 -0.4912 -0.3282  0.3752
   68MOL    C9720331   4.971   5.930   5.829 -0.7469  0.7878  0.0272
   68MOL    C9820332   5.029   5.892   5.706 -0.0443 -0.1667  0.8750
   68MOL    N9920333   5.160   5.880   5.681  0.6217  0.2998 -0.4724
   68MOL   H10020334   5.369   5.970   5.552 -0.3663 -1.8940 -0.6654
   68MOL   H10120335   5.413   6.071   5.675 -0.5810 -1.0390 -0.5516
   68MOL   H10220336   5.452   5.875   5.830 -0.5734 -0.9080 -0.0510
   68MOL   H10320337   5.268   5.939   5.996  0.4874  1.9809  0.1515
   68MOL   H10420338   5.032   5.978   6.033  2.0145 -0.6846  1.3257
   68MOL   H10520339   4.866   5.942   5.849 -0.9268 -0.7370  0.0523
   68MOL   H10620340   4.968   5.866   5.621  0.1053 -0.8854  0.9869
   68MOL   C10720341   5.418   5.716   5.697  0.4971  0.2882  0.0455
   68MOL   C10820342   5.405   5.605   5.797  0.6526  0.4615  0.6947
   68MOL   C10920343   5.518   5.606   5.902  0.0655  0.3159  0.3278
   68MOL   C11020344   5.634   5.523   5.902  0.0905  0.5498  0.2180
   68MOL   C11120345   5.720   5.535   6.012 -0.1874  0.2462 -0.3554
   68MOL   C11220346   5.690   5.621   6.117  0.0555  0.2058  0.6295
   68MOL   C11320347   5.579   5.707   6.102  0.0869 -0.5411  0.2913
   68MOL   N11420348   5.499   5.697   5.999 -0.1459 -0.5506  0.3718
   68MOL   H11520349   5.519   5.706   5.660  0.0989  0.5305 -1.1318
   68MOL   H11620350   5.350   5.692   5.615 -0.8849  0.2985  1.1550
   68MOL   H11720351   5.435   5.522   5.733  1.0525 -1.3861  3.2070
   68MOL   H11820352   5.650   5.443   5.832  1.5837 -0.0834  1.2410
   68MOL   H11920353   5.807   5.472   6.028  0.6040  1.0853 -1.2975
   68MOL   H12020354   5.765   5.617   6.194  3.0296 -1.3384 -2.2227
   68MOL   H12120355   5.556   5.786   6.172  0.3508 -0.1903 -0.0189
   68MOL   C12220356   5.263   5.594   5.853 -0.2464  0.2608 -0.4214
   68MOL   C12320357   5.223   5.456   5.921 -0.0240 -0.3506 -0.0050
   68MOL   C12420358   5.233   5.327   5.835 -0.5953  0.3072  0.9761
   68MOL   C12520359   5.121   5.269   5.780  0.1739 -0.0256  0.5261
   68MOL   C12620360   5.144   5.161   5.695  0.4250  0.5817  0.1156
   68MOL   C12720361   5.272   5.103   5.684  0.1906 -0.0258  0.1956
   68MOL   C12820362   5.377   5.168   5.749  0.1811  0.9189 -0.0155
   68MOL   N12920363   5.360   5.286   5.813 -0.1991  0.4798  0.2486
   68MOL   H13020364   5.188   5.617   5.778 -1.0756  3.8384  1.3953
   68MOL   H13120365   5.247   5.679   5.919  2.5190 -0.2086  0.9107
   68MOL   H13220366   5.120   5.482   5.947 -0.4700 -1.2645 -0.8197
   68MOL   H13320367   5.022   5.303   5.803  0.1250  0.3851 -0.2892
   68MOL   H13420368   5.059   5.116   5.646  1.5298 -0.7423 -0.6051
   68MOL   H13520369   5.283   5.011   5.628  1.6134  0.5455 -0.4861
   68MOL   H13620370   5.481   5.138   5.746  0.5155  2.1214 -2.1286
   68MOL   C13720371   5.288   5.441   6.060 -0.5323 -0.3538 -0.2728
   68MOL   C13820372   5.241   5.545   6.164  0.0836  0.3223 -0.5556
   68MOL   C13920373   5.091   5.542   6.189 -0.8985 -0.6430 -0.1308
   68MOL   C14020374   5.012   5.660   6.184 -0.5039  0.6530 -0.3373
   68MOL   C14120375   4.868   5.651   6.210 -0.4754 -0.4890  0.5298
   68MOL   C14220376   4.814   5.520   6.218 -0.1049 -0.4047  0.2836
   68MOL   C14320377   4.904   5.409   6.235 -0.0728  0.0441  0.3555
   68MOL   N14420378   5.038   5.423   6.221  0.0193  0.0123  0.2431
   68MOL   H14520379   5.397   5.445   6.056 -0.5454 -0.3813 -0.6768
   68MOL   H14620380   5.271   5.342   6.103 -1.6604 -0.1533 -0.2403
   68MOL   H14720381   5.259   5.648   6.131 -1.5831  1.6036  2.2823
   68MOL   H14820382   5.052   5.758   6.161  0.6268 -0.1437 -1.8213
   68MOL   H14920383   4.802   5.735   6.194  0.7740  0.4251  0.0719
   68MOL   H15020384   4.710   5.494   6.230  0.1310 -1.2018  0.6131
   68MOL   H15120385   4.865   5.321   6.284  3.0040 -0.4267  2.1030
   68MOL   C15220386   5.317   5.526   6.291  0.2372 -0.0999  0.1238
   68MOL   C15320387   5.298   5.624   6.411 -0.4261 -0.1418 -0.2410
   68MOL   C15420388   5.400   5.597   6.524 -0.0448 -0.5664 -0.3427
   68MOL   C15520389   5.370   5.538   6.647  0.7777 -0.1672  0.5379
   68MOL   C15620390   5.475   5.535   6.746 -0.3890  0.2376  0.8149
   68MOL   C15720391   5.604   5.577   6.712  0.4351 -0.4843  0.8252
   68MOL   C15820392   5.623   5.619   6.578 -0.2101  0.2213  0.0695
   68MOL   N15920393   5.528   5.631   6.490  0.9993  0.1810 -0.6543
   68MOL   H16020394   5.425   5.529   6.279  0.0832 -0.8306 -1.5524
   68MOL   H16120395   5.294   5.430   6.338  0.1307 -0.9496 -1.6178
   68MOL   H16220396   5.200   5.596   6.448 -0.5049 -0.7432 -0.8925
   68MOL   H16320397   5.274   5.500   6.679  1.0131 -1.2882 -0.0901
   68MOL   H16420398   5.465   5.503   6.848 -1.6435 -0.3248  0.5339
   68MOL   H16520399   5.687   5.567   6.779 -0.5078 -0.8729  1.9606
   68MOL   H16620400   5.718   5.647   6.534 -0.3837  1.9878  0.7806
   68MOL   C16720401   5.309   5.774   6.361 -0.0916  0.1220 -0.0634
   68MOL   C16820402   5.267   5.879   6.470 -0.1620  0.1563 -0.1757
   68MOL   C16920403   5.275   6.020   6.422 -0.5055 -0.2831  0.1009
   68MOL   C17020404   5.330   6.121   6.503 -0.5399 -0.5029 -0.3333
   68MOL   C17120405   5.327   6.254   6.457 -0.2156 -0.1408 -0.9140
   68MOL   C17220406   5.259   6.274   6.335 -0.7876  0.1719 -0.5522
   68MOL   C17320407   5.205   6.171   6.261 -0.1557  0.8667 -0.7670
   68MOL   N17420408   5.208   6.040   6.305  0.1189 -0.1532  0.6586
   68MOL   H17520409   5.258   5.787   6.266  0.6987 -2.0306 -0.8102
   68MOL   H17620410   5.405   5.799   6.316 -0.4301  0.5354 -0.5546
   68MOL   H17720411   5.329   5.868   6.558  0.6905 -0.6807 -0.8762
   68MOL   H17820412   5.375   6.087   6.595 -1.1212 -0.7496 -0.1455
   68MOL   H17920413   5.369   6.332   6.520 -0.9731 -1.1540  0.8813
   68MOL   H18020414   5.249   6.370   6.287  1.1565  1.6420  1.8854
   68MOL   H18120415   5.156   6.182   6.166  1.2509 -0.4394 -1.6715
   68MOL   C18220416   5.115   5.857   6.507  0.1667 -0.5808 -0.3457
   68MOL   C18320417   5.085   5.790   6.649 -0.2298 -0.8508 -0.4412
   68MOL   C18420418   5.147   5.872   6.761  0.3541 -0.2533 -0.2052
   68MOL   C18520419   5.224   5.813   6.861  0.0582  0.1189 -0.2736
   68MOL   C18620420   5.273   5.890   6.964  0.3141  0.7213  0.0527
   68MOL   C18720421   5.253   6.031   6.958 -0.4630 -0.4723  0.0658
   68MOL   C18820422   5.172   6.084   6.857  0.3579  0.1876 -0.4667
   68MOL   N18920423   5.121   6.007   6.761  0.1891 -0.8101 -0.1165
   68MOL   H19020424   5.060   5.812   6.424  2.0778  2.6405 -3.4879
   68MOL   H19120425   5.072   5.957   6.516  1.1126 -0.3527  1.7309
   68MOL   H19220426   5.125   5.688   6.650 -2.8053 -1.9269 -0.6972
   68MOL   H19320427   5.230   5.706   6.877 -0.8094  0.2582  0.9816
   68MOL   H19420428   5.321   5.842   7.048  0.4544 -1.8678 -1.4626
   68MOL   H19520429   5.284   6.093   7.041  1.7748  0.4385 -1.3772
   68MOL   H19620430   5.139   6.186   6.867 -0.6474  0.0886 -2.5905
   68MOL   C19720431   4.937   5.773   6.669 -0.0918 -0.2713 -0.1536
   68MOL   C19820432   4.877   5.653   6.592 -0.7419  0.2448  0.5560
   68MOL   C19920433   4.917   5.526   6.660 -0.0304 -0.1870 -0.0716
   68MOL   C20020434   5.000   5.432   6.592 -0.6852  0.2431 -0.0874
   68MOL   C20120435   5.038   5.317   6.662  0.3134  0.9228  0.1080
   68MOL   C20220436   5.002   5.297   6.795 -0.4149 -0.2463  0.5168
   68MOL   C20320437   4.935   5.401   6.851 -0.4230  0.2882  0.1320
   68MOL   N20420438   4.886   5.508   6.791 -0.4012 -0.0177 -0.0588
   68MOL   H20520439   4.883   5.862   6.638  0.1454  0.1488  0.6308
   68MOL   H20620440   4.918   5.767   6.777  0.4953 -1.4821 -0.1039
   68MOL   H20720441   4.925   5.644   6.495 -1.8757  2.3360 -0.2381
   68MOL   H20820442   5.029   5.451   6.490 -0.5456  0.7108  0.0371
   68MOL   H20920443   5.095   5.235   6.621 -0.2039  0.7638 -0.3067
   68MOL   H21020444   5.015   5.199   6.839  1.8139 -0.1562  0.1312
   68MOL   H21120445   4.902   5.382   6.952  1.7740 -1.0267  0.6450
   68MOL   C21220446   4.726   5.670   6.555  0.2959 -0.2845  0.0206
   68MOL   C21320447   4.619   5.683   6.669  0.3836 -0.1698 -0.2598
   68MOL   C21420448   4.560   5.827   6.680 -0.4788  0.4386  0.4934
   68MOL   C21520449   4.599   5.919   6.785  0.2182 -0.7691  0.5219
   68MOL   C21620450   4.556   6.056   6.783  0.6865  0.7674 -0.0362
   68MOL   C21720451   4.484   6.099   6.674 -1.3818  0.2484 -0.3294
   68MOL   C21820452   4.450   6.002   6.571 -0.4602 -0.9687 -0.0320
   68MOL   N21920453   4.488   5.872   6.569  0.1800  0.0573  0.0227
   68MOL   H22020454   4.703   5.581   6.498  1.8023 -1.2832  0.9261
   68MOL   H22120455   4.715   5.747   6.478  0.7566 -0.2467 -0.0068
   68MOL   H22220456   4.683   5.681   6.757  1.4725  1.3096 -0.9933
   68MOL   H22320457   4.659   5.882   6.867  0.5881  0.5343  0.8510
   68MOL   H22420458   4.583   6.126   6.860  1.8867  0.2488  0.0214
   68MOL   H22520459   4.442   6.198   6.681 -0.8063  0.5242 -0.7505
   68MOL   H22620460   4.376   6.016   6.494 -1.8419 -1.9199  1.0737
   68MOL   C22720461   4.502   5.580   6.667  0.3755  0.0342 -0.0098
   68MOL   C22820462   4.538   5.436   6.685  0.2293  0.2226 -0.3454
   68MOL   C22920463   4.481   5.376   6.815  1.1034 -0.3247 -0.4810
   68MOL   C23020464   4.557   5.360   6.930 -0.1084 -0.1009  0.1217
   68MOL   C23120465   4.501   5.295   7.042  0.1157  0.0256  0.1225
   68MOL   C23220466   4.364   5.261   7.043 -0.5605 -0.0846 -0.2178
   68MOL   C23320467   4.295   5.278   6.921 -0.5438  0.1419 -0.6307
   68MOL   N23420468   4.348   5.341   6.813 -0.3974  0.1521  0.0141
   68MOL   H23520469   4.441   5.599   6.579 -2.9737 -0.6072  2.1234
   68MOL   H23620470   4.433   5.618   6.741  2.6207  0.6746  1.8159
   68MOL   H23720471   4.646   5.441   6.702 -0.2478  1.0001  2.8327
   68MOL   H23820472   4.649   5.415   6.943  0.5598 -0.7945 -1.5481
   68MOL   H23920473   4.567   5.286   7.127 -0.1246  0.2527  0.3349
   68MOL   H24020474   4.321   5.211   7.128 -3.2568  1.5453 -0.5936
   68MOL   H24120475   4.193   5.249   6.903 -0.4820 -1.6743  1.7250
   68MOL   C24220476   4.525   5.345   6.557  0.6977  0.0259 -0.0594
   68MOL   C24320477   4.574   5.197   6.559 -0.9537 -0.7754 -0.3016
   68MOL   C24420478   4.514   5.114   6.448 -0.2597  0.5563  0.6694
   68MOL   C24520479   4.405   5.034   6.478  0.5106  0.5062  0.3970
   68MOL   C24620480   4.333   4.977   6.371 -0.1797 -0.1882 -0.0423
   68MOL   C24720481   4.370   5.006   6.241 -0.3699  0.5349 -0.0236
   68MOL   C24820482   4.472   5.098   6.219  0.5121  0.0160  0.4196
   68MOL   N24920483   4.551   5.144   6.322 -0.4690  0.5388 -0.2876
   68MOL   H25020484   4.565   5.386   6.464 -0.1673 -0.6796 -0.7539
   68MOL   H25120485   4.417   5.344   6.546  0.6589  2.1063 -0.0514
   68MOL   H25220486   4.525   5.178   6.655  1.4217 -0.3821  1.0279
   68MOL   H25320487   4.363   5.013   6.575  0.1477 -2.4493 -0.3305
   68MOL   H25420488   4.246   4.913   6.378  0.8447 -1.5062  0.9424
   68MOL   H25520489   4.316   4.971   6.154 -1.6768 -1.5209  1.5726
   68MOL   H25620490   4.504   5.123   6.119  0.7041  1.0963  0.7461
   68MOL   C25720491   4.723   5.188   6.586  0.2120  0.3904 -0.8013
   68MOL   C25820492   4.779   5.057   6.650  0.4724  0.5793 -0.6095
   68MOL   C25920493   4.746   5.042   6.801 -0.0432  0.1428  0.0547
   68MOL   C26020494   4.850   4.986   6.885 -0.1083 -0.4133  0.1596
   68MOL   C26120495   4.827   4.959   7.020 -0.4103 -0.3002  0.7049
   68MOL   C26220496   4.702   4.979   7.060  0.1591 -0.0653 -0.0369
   68MOL   C26320497   4.598   5.009   6.972 -0.7886  0.1435  0.4144
   68MOL   N26420498   4.615   5.047   6.840  0.0078 -0.3870  0.0433
   68MOL   H26520499   4.754   5.273   6.646 -1.7780  0.9004 -0.4438
   68MOL   H26620500   4.778   5.207   6.494  1.9692 -1.5092 -0.1657
   68MOL   H26720501   4.887   5.069   6.648  0.2647  2.7574 -0.4224
   68MOL   H26820502   4.948   4.970   6.842 -1.1940 -1.7037 -1.9322
   68MOL   H26920503   4.897   4.917   7.092 -0.3075 -2.9367 -0.9003
   68MOL   H27020504   4.682   4.938   7.158 -0.1820 -0.2043 -0.1656
   68MOL   H27120505   4.495   5.000   7.004 -0.9486 -0.0659 -0.1525
   68MOL   C27220506   4.746   4.919   6.584  0.7117 -0.6712 -0.1727
   68MOL   C27320507   4.803   4.896   6.440 -0.7068 -0.1029  0.2654
   68MOL   C27420508   4.954   4.900   6.448  0.4741  0.4519  0.4191
   68MOL   C27520509   5.024   5.009   6.398  1.0434 -0.1135 -0.2221
   68MOL   C27620510   5.168   5.001   6.414  0.0344 -0.2494  0.2595
   68MOL   C27720511   5.233   4.892   6.478 -0.2126 -0.0088 -0.2895
   68MOL   C27820512   5.147   4.796   6.536 -0.4910 -0.1477 -0.5098
   68MOL   N27920513   5.009   4.799   6.521  0.6569 -0.1221 -0.4248
   68MOL   H28020514   4.639   4.900   6.583  0.7419 -0.8342 -0.3539
   68MOL   H28120515   4.780   4.835   6.646 -1.2664 -0.3044  1.4542
   68MOL   H28220516   4.768   4.979   6.378  0.8386 -0.5775 -1.2873
   68MOL   H28320517   4.966   5.088   6.354  0.0757 -1.1345 -0.8357
   68MOL   H28420518   5.218   5.083   6.364 -0.6551  0.6620  1.0525
   68MOL   H28520519   5.340   4.880   6.483 -0.1121  0.8755 -0.2255
   68MOL   H28620520   5.197   4.708   6.573  2.3536  1.3116 -0.6870
   68MOL   C28720521   4.743   4.767   6.377 -0.1202  0.1398  0.8810
   68MOL   C28820522   4.810   4.732   6.241 -0.8594 -0.6676  0.6485
   68MOL   C28920523   4.746   4.835   6.129 -0.1918  0.0798  0.8297
   68MOL   C29020524   4.806   4.957   6.090 -0.3233  0.1990  0.8750
   68MOL   C29120525   4.754   5.019   5.976 -0.6211 -0.3453 -0.3816
   68MOL   C29220526   4.665   4.958   5.895 -0.0347  0.7466 -0.6695
   68MOL   C29320527   4.613   4.835   5.942 -0.0718  0.0961 -1.4727
   68MOL   N29420528   4.649   4.772   6.057  0.2011  0.0836 -0.4876
   68MOL   H29520529   4.634   4.766   6.367 -0.0871  1.5498  0.3558
   68MOL   H29620530   4.779   4.686   6.441  2.4390  0.5038 -0.0497
   68MOL   H29720531   4.785   4.627   6.224  1.6373 -1.0701 -0.8834
   68MOL   H29820532   4.891   5.007   6.133  0.4252 -1.0322  0.8331
   68MOL   H29920533   4.782   5.120   5.950  1.8900 -0.7058  0.8245
   68MOL   H30020534   4.628   5.001   5.803  0.3454 -0.1962 -1.2680
   68MOL   H30120535   4.540   4.784   5.880 -2.0599  1.1353 -0.0417
   68MOL   H30220536   4.917   4.750   6.243 -1.3073  2.4053 -0.3664
   69MOL     C120537   1.066   4.007   8.077 -0.1000  0.1074 -0.3349
   69MOL     C220538   1.127   4.085   0.045 -0.5358  0.1646 -0.3522
   69MOL     C320539   1.219   4.189   8.143  0.7395  0.7184  0.4710
   69MOL     C420540   1.344   4.204   0.039  0.0291  0.6466  0.2777
   69MOL     C520541   1.424   4.310   8.148  0.2296 -0.9627  0.2057
   69MOL     C620542   1.371   4.401   8.052  0.4240 -0.2780 -0.9007
   69MOL     C720543   1.243   4.380   8.002  0.2514  0.7007 -0.1568
   69MOL     N820544   1.173   4.273   8.048  0.3909  0.6161 -0.0008
   69MOL     H920545   1.001   4.062   8.009 -2.0080 -1.2261  0.3771
   69MOL    H1020546   1.137   3.948   8.019  0.3256 -1.8917  2.1342
   69MOL    H1120547   1.194   4.015   0.094 -0.2860  0.7544  0.1514
   69MOL    H1220548   1.368   4.147   0.127 -0.1007  0.6419  0.3084
   69MOL    H1320549   1.519   4.333   0.043  1.3515 -0.4828 -2.2113
   69MOL    H1420550   1.436   4.476   8.010  4.7544 -2.5830  1.2675
   69MOL    H1520551   1.199   4.439   7.922 -3.6915 -0.2656  1.1889
   69MOL    H1620552   1.005   3.929   8.122  0.8137 -0.2529  0.2879
   69MOL    C1720553   1.040   4.145   0.154 -0.5159 -0.6808 -0.6279
   69MOL    C1820554   0.965   4.036   0.242  0.7528  0.6148 -0.5901
   69MOL    C1920555   1.075   3.954   0.317  0.1458 -0.9897  0.1069
   69MOL    C2020556   1.085   3.817   0.300  0.4446 -0.2147  0.2833
   69MOL    C2120557   1.184   3.748   0.367 -0.0993  0.6237  0.2964
   69MOL    C2220558   1.264   3.809   0.466  0.2886 -0.7330  0.1813
   69MOL    C2320559   1.250   3.950   0.478  0.0837  0.8564  0.7472
   69MOL    N2420560   1.160   4.019   0.402  0.2140  0.1788  0.2122
   69MOL    H2520561   0.957   4.199   0.108  0.9296  1.4280 -0.7930
   69MOL    H2620562   1.100   4.221   0.204 -1.7489  1.2196 -1.9555
   69MOL    H2720563   0.913   3.979   0.164  0.0387  0.1907  0.1881
   69MOL    H2820564   1.026   3.770   0.223 -0.7733  1.1413  0.3771
   69MOL    H2920565   1.178   3.640   0.364 -1.7068  0.7681 -2.3324
   69MOL    H3020566   1.346   3.756   0.512 -0.1961 -0.6223  1.1790
   69MOL    H3120567   1.318   4.002   0.544  2.0997 -1.0168  0.2113
   69MOL    C3220568   0.859   4.097   0.348  0.1880  0.1579 -0.4607
   69MOL    C3320569   0.742   4.176   0.284  0.1481  0.1178  0.5480
   69MOL    C3420570   0.662   4.104   0.175 -1.1637  0.4204 -0.3861
   69MOL    C3520571   0.688   4.138   0.043  0.0337 -0.1762 -0.1238
   69MOL    C3620572   0.631   4.061   8.094 -0.2230 -0.0873  0.2071
   69MOL    C3720573   0.562   3.941   8.138  0.1729 -0.0528 -0.5206
   69MOL    C3820574   0.528   3.919   0.124 -0.4361 -0.4430 -0.6328
   69MOL    N3920575   0.579   4.001   0.213 -0.2415  0.4045  0.4359
   69MOL    H4020576   0.915   4.155   0.420  0.0941  2.3324 -2.0797
   69MOL    H4120577   0.800   4.024   0.404 -1.8677  1.8230 -0.4057
   69MOL    H4220578   0.781   4.268   0.241 -2.0321  1.7203  1.8992
   69MOL    H4320579   0.749   4.224   0.022  1.5706 -1.2047  0.0808
   69MOL    H4420580   0.649   4.060   7.988  1.2731 -1.6239  0.4737
   69MOL    H4520581   0.511   3.876   8.068 -2.6104  0.9858  0.4781
   69MOL    H4620582   0.461   3.840   0.156 -2.2504  0.3154 -2.4411
   69MOL    C4720583   0.651   4.231   0.400  0.0213 -0.5832 -0.7501
   69MOL    C4820584   0.522   4.298   0.367 -0.4004  0.7838 -0.1816
   69MOL    C4920585   0.430   4.331   0.486  0.0139  0.2058  0.1903
   69MOL    C5020586   0.480   4.402   0.599  0.2980  0.2919  0.2113
   69MOL    C5120587   0.400   4.429   0.713  0.0945 -0.0028  0.2122
   69MOL    C5220588   0.273   4.365   0.713  0.2165  0.0355 -0.2833
   69MOL    C5320589   0.234   4.294   0.601 -0.1261  0.5427 -0.6567
   69MOL    N5420590   0.308   4.279   0.490  0.0667 -0.0743 -0.1163
   69MOL    H5520591   0.712   4.283   0.474 -0.2909  0.4351 -1.2080
   69MOL    H5620592   0.626   4.146   0.463 -4.2644 -0.4085 -2.0912
   69MOL    H5720593   0.461   4.239   0.300 -1.0752 -2.0736  2.7985
   69MOL    H5820594   0.580   4.442   0.590  0.6785 -0.5026  0.7866
   69MOL    H5920595   0.429   4.498   0.791 -1.7158  0.4516  0.5083
   69MOL    H6020596   0.205   4.371   0.797 -2.0749  0.2261 -2.1107
   69MOL    H6120597   0.148   4.229   0.597  1.9085 -2.2023 -1.3672
   69MOL    C6220598   0.562   4.431   0.297 -0.0368 -1.0315  0.2627
   69MOL    C6320599   0.438   4.521   0.271 -0.8120  0.6207  0.8240
   69MOL    C6420600   0.411   4.624   0.381  0.1876  0.4723 -0.0459
   69MOL    C6520601   0.272   4.648   0.415  0.1451  0.8794  0.1185
   69MOL    C6620602   0.249   4.749   0.511  0.7533  0.0034  0.6613
   69MOL    C6720603   0.354   4.819   0.567 -1.0376 -0.4967  0.0473
   69MOL    C6820604   0.485   4.791   0.521 -0.3318 -0.6996 -0.2338
   69MOL    N6920605   0.516   4.696   0.425  0.5651  0.0838 -1.0255
   69MOL    H7020606   0.615   4.407   0.206 -0.2470 -1.1860  0.1807
   69MOL    H7120607   0.633   4.487   0.358 -1.0164  0.8635 -0.3184
   69MOL    H7220608   0.351   4.456   0.271 -0.7324  0.5115  1.3816
   69MOL    H7320609   0.190   4.595   0.370  0.1493  2.0903 -1.3715
   69MOL    H7420610   0.146   4.763   0.540  1.1514  0.7188  1.7578
   69MOL    H7520611   0.345   4.898   0.639 -0.7637  0.4800 -0.9639
   69MOL    H7620612   0.569   4.841   0.566 -2.0313  0.3803  1.8348
   69MOL    C7720613   0.442   4.600   0.137 -0.0560  0.2121  0.2012
   69MOL    C7820614   0.447   4.515   0.003 -0.4759 -0.0300 -0.0829
   69MOL    C7920615   0.329   4.423   8.145  0.3411  0.0403  0.1420
   69MOL    C8020616   0.346   4.286   8.117 -0.6352 -0.0860  0.4470
   69MOL    C8120617   0.236   4.205   8.093  0.4547  0.7565  0.1846
   69MOL    C8220618   0.117   4.268   8.087 -0.2110 -0.2918 -0.5157
   69MOL    C8320619   0.108   4.408   8.115 -0.0526  0.9143 -0.3690
   69MOL    N8420620   0.210   4.486   8.151  0.1835  0.1861  0.0810
   69MOL    H8520621   0.527   4.667   0.139  0.0762  0.0041  1.9819
   69MOL    H8620622   0.353   4.663   0.131 -0.6280 -0.5895  0.0308
   69MOL    H8720623   0.542   4.461   0.002  0.4229  1.5053  1.2706
   69MOL    H8820624   0.445   4.245   8.108  0.3494  2.1064  0.9529
   69MOL    H8920625   0.256   4.099   8.083 -1.4432  0.5770 -2.3927
   69MOL    H9020626   0.035   4.206   8.055  0.0117 -0.1695 -1.3175
   69MOL    H9120627   0.009   4.444   8.090 -0.9297 -2.1187 -1.4133
   69MOL    C9220628   0.456   4.599   8.026 -0.0795 -0.2283  0.3809
   69MOL    C9320629   0.592   4.664   7.986 -0.1270 -0.5351 -0.1348
   69MOL    C9420630   0.720   4.604   8.037 -0.0887  0.0601  0.0184
   69MOL    C9520631   0.797   4.655   8.138 -0.2910 -0.4198  1.3494
   69MOL    C9620632   0.903   4.590   0.040  0.4717 -0.5263  0.0740
   69MOL    C9720633   0.938   4.461   8.145  0.0330  0.2688 -0.4458
   69MOL    C9820634   0.858   4.416   8.035  0.9737 -0.7302 -0.4348
   69MOL    N9920635   0.755   4.487   7.979  0.0565 -0.2201 -0.0263
   69MOL   H10020636   0.371   4.666   8.031 -0.2484 -0.4829  1.0045
   69MOL   H10120637   0.438   4.531   7.943  0.4600 -0.0746  0.1369
   69MOL   H10220638   0.596   4.753   8.048  0.3050 -1.0834  0.6227
   69MOL   H10320639   0.765   4.746   0.035  1.0480  1.0438 -0.4315
   69MOL   H10420640   0.956   4.622   0.129  0.3654 -1.8730  0.6389
   69MOL   H10520641   1.017   4.404   0.039 -0.8892 -0.4662  0.2430
   69MOL   H10620642   0.869   4.319   7.989 -1.9723 -1.8059  1.0415
   69MOL   C10720643   0.594   4.706   7.838  0.2222 -0.4194  0.2391
   69MOL   C10820644   0.485   4.800   7.783 -0.2174 -0.0844 -0.0303
   69MOL   C10920645   0.460   4.912   7.882  0.2429  0.1003  0.0358
   69MOL   C11020646   0.328   4.941   7.928  0.0854 -0.2682 -0.7938
   69MOL   C11120647   0.317   5.040   8.027  0.2273 -0.9933  0.1813
   69MOL   C11220648   0.429   5.112   8.069  1.0787 -0.0015 -0.0168
   69MOL   C11320649   0.552   5.083   8.010 -0.2411 -0.2558  0.1755
   69MOL   N11420650   0.570   4.982   7.915  0.2798 -0.4051 -0.5434
   69MOL   H11520651   0.599   4.607   7.792  1.6175 -0.4898  0.5300
   69MOL   H11620652   0.691   4.747   7.810  0.0296 -0.6570 -0.8067
   69MOL   H11720653   0.394   4.740   7.780  0.1949 -0.7826  1.4455
   69MOL   H11820654   0.247   4.884   7.886  1.3949 -0.7272 -2.7739
   69MOL   H11920655   0.229   5.066   8.084  0.6716 -1.0401  0.8941
   69MOL   H12020656   0.426   5.188   8.145  2.1027  1.9512 -1.9091
   69MOL   H12120657   0.639   5.142   8.035  0.4717 -1.6885  1.1779
   69MOL   C12220658   0.500   4.853   7.642 -0.1133  0.0680 -0.4259
   69MOL   C12320659   0.372   4.867   7.558 -0.2378 -0.1386  0.2977
   69MOL   C12420660   0.381   4.994   7.468  0.4244  0.6629 -0.3024
   69MOL   C12520661   0.304   5.103   7.488 -0.4670 -0.1973  0.1111
   69MOL   C12620662   0.323   5.215   7.404 -0.1335 -0.0044 -0.4162
   69MOL   C12720663   0.429   5.209   7.312  0.5200  0.8781  0.2686
   69MOL   C12820664   0.494   5.089   7.295  0.3548  0.2845 -0.1294
   69MOL   N12920665   0.474   4.985   7.373 -0.2381 -0.3212  0.2798
   69MOL   H13020666   0.563   4.783   7.586 -0.4709  0.2073 -0.9994
   69MOL   H13120667   0.569   4.938   7.641  1.1477 -0.9163  0.3750
   69MOL   H13220668   0.299   4.900   7.632 -0.9360 -2.6487  0.7823
   69MOL   H13320669   0.227   5.104   7.564 -0.8688 -0.3289 -0.2922
   69MOL   H13420670   0.276   5.309   7.426  1.6603  0.7959  0.1206
   69MOL   H13520671   0.453   5.297   7.255 -2.3197  1.0253 -0.8040
   69MOL   H13620672   0.573   5.072   7.223  0.8038  1.7922 -0.0241
   69MOL   C13720673   0.317   4.743   7.481 -0.6357 -0.4256  0.5502
   69MOL   C13820674   0.241   4.628   7.557  0.0189  0.2800  0.0511
   69MOL   C13920675   0.124   4.681   7.644  0.1832 -0.0383 -0.0625
   69MOL   C14020676   0.044   4.788   7.613  0.4918 -0.3679  0.3934
   69MOL   C14120677   8.089   4.819   7.701  0.3853  0.3751 -0.9190
   69MOL   C14220678   8.063   4.735   7.810 -0.0362 -0.2373 -0.5473
   69MOL   C14320679   8.151   4.628   7.835 -0.0040  0.3885  0.6503
   69MOL   N14420680   0.106   4.613   7.756 -0.3246  0.7131 -0.2556
   69MOL   H14520681   0.397   4.705   7.418  0.2437  0.3813  1.1732
   69MOL   H14620682   0.246   4.796   7.417  0.5763 -0.0170 -0.4562
   69MOL   H14720683   0.290   4.579   7.642 -2.3007 -2.4190 -0.1069
   69MOL   H14820684   0.057   4.848   7.525  2.4826  0.9981  1.5917
   69MOL   H14920685   8.026   4.906   7.687 -0.2903  0.1342  0.4957
   69MOL   H15020686   7.985   4.745   7.883 -0.0863 -1.3111 -0.4333
   69MOL   H15120687   8.130   4.560   7.916  1.2539 -0.1356  0.5346
   69MOL   C15220688   0.195   4.518   7.461  0.7658  0.5432 -0.3176
   69MOL   C15320689   0.297   4.414   7.410 -0.6495  0.6123  0.9469
   69MOL   C15420690   0.405   4.378   7.512  0.2479  0.0247  0.3471
   69MOL   C15520691   0.538   4.435   7.509  0.2349 -0.2277 -0.3392
   69MOL   C15620692   0.624   4.400   7.610 -0.0751  0.0916 -0.0149
   69MOL   C15720693   0.586   4.314   7.716 -0.1705  0.4307  0.2068
   69MOL   C15820694   0.453   4.269   7.712  0.2404 -0.3253 -0.3132
   69MOL   N15920695   0.364   4.296   7.611  0.3076 -0.5317 -0.3198
   69MOL   H16020696   0.150   4.559   7.370  3.1730  2.4497 -0.6870
   69MOL   H16120697   0.108   4.470   7.506  2.1239 -1.8202 -0.1249
   69MOL   H16220698   0.346   4.471   7.331 -1.4985  1.1928  0.8338
   69MOL   H16320699   0.565   4.512   7.438 -2.8612 -0.0240 -1.3615
   69MOL   H16420700   0.727   4.434   7.610  0.0416 -0.2542  0.8709
   69MOL   H16520701   0.655   4.293   7.795  0.0438 -0.0102 -0.0954
   69MOL   H16620702   0.414   4.205   7.790 -0.7208  2.1328  1.2682
   69MOL   C16720703   0.246   4.289   7.334  0.0039  0.2158  0.1364
   69MOL   C16820704   0.209   4.312   7.186 -0.3261  0.3892  0.2464
   69MOL   C16920705   0.333   4.317   7.095 -0.5663  0.1650 -0.6966
   69MOL   C17020706   0.368   4.438   7.038  1.0065 -0.1762 -0.7339
   69MOL   C17120707   0.491   4.449   6.969  0.1587  0.3938 -0.7727
   69MOL   C17220708   0.572   4.336   6.957 -0.2024 -0.0524  0.7478
   69MOL   C17320709   0.539   4.224   7.033  0.1790 -0.1313  0.5854
   69MOL   N17420710   0.422   4.216   7.108 -0.7560 -0.2970 -0.1399
   69MOL   H17520711   0.160   4.245   7.383  1.7699 -1.1297  2.0778
   69MOL   H17620712   0.319   4.208   7.334 -1.1399 -0.8296  0.7309
   69MOL   H17720713   0.147   4.401   7.177  1.4040  1.5125 -0.7586
   69MOL   H17820714   0.285   4.506   7.041 -0.4485 -1.9081 -1.0773
   69MOL   H17920715   0.519   4.538   6.915 -0.6670  1.1950  0.0975
   69MOL   H18020716   0.660   4.332   6.894  0.4559 -1.2663  1.7015
   69MOL   H18120717   0.594   4.131   7.042 -0.5249 -0.5358  0.7228
   69MOL   C18220718   0.126   4.196   7.137 -0.3396  0.4293  0.0810
   69MOL   C18320719   8.129   4.167   7.189 -0.4014  0.2354  0.5947
   69MOL   C18420720   8.049   4.297   7.196  0.3450 -0.3259 -0.0791
   69MOL   C18520721   8.020   4.355   7.318 -0.3249 -0.6724 -0.0469
   69MOL   C18620722   7.930   4.462   7.330  0.1009 -0.3308 -0.3261
   69MOL   C18720723   7.874   4.512   7.213 -0.4069  1.2736 -0.2752
   69MOL   C18820724   7.920   4.459   7.093  0.4269 -0.1174 -0.3238
   69MOL   N18920725   8.008   4.352   7.079  0.3363 -0.0259 -0.1725
   69MOL   H19020726   0.187   4.106   7.147 -0.2529  0.2587 -1.9356
   69MOL   H19120727   0.113   4.201   7.029  0.7011 -1.5928 -0.1625
   69MOL   H19220728   8.141   4.133   7.292  0.2661 -2.7603 -0.4135
   69MOL   H19320729   8.058   4.298   7.402 -1.7886 -2.1990 -0.4016
   69MOL   H19420730   7.917   4.517   7.422 -1.8127  1.4315 -1.6088
   69MOL   H19520731   7.800   4.590   7.212 -1.5701  0.2171  1.5345
   69MOL   H19620732   7.894   4.494   6.994 -0.4103 -1.2086 -0.4988
   69MOL   C19720733   8.067   4.047   7.109  0.7744  0.7905  0.6058
   69MOL   C19820734   7.946   3.988   7.183  0.5304 -1.2281 -0.3267
   69MOL   C19920735   7.839   3.931   7.086 -0.1283  1.0384 -0.7164
   69MOL   C20020736   7.713   3.985   7.062  0.3724  0.3181 -1.1280
   69MOL   C20120737   7.635   3.930   6.955 -0.5019 -0.0422 -0.1783
   69MOL   C20220738   7.688   3.815   6.891 -0.4692 -0.2535 -0.1433
   69MOL   C20320739   7.816   3.768   6.927  0.1168  1.0350  0.0089
   69MOL   N20420740   7.894   3.827   7.018 -0.1379 -0.5185 -0.2035
   69MOL   H20520741   0.001   3.980   7.103  2.6133  3.1910 -0.8571
   69MOL   H20620742   8.032   4.065   7.007 -1.3790 -0.3903  1.1079
   69MOL   H20720743   7.891   4.075   7.219 -1.1681 -2.5223  0.2504
   69MOL   H20820744   7.668   4.057   7.128  1.9670  0.2554  0.0598
   69MOL   H20920745   7.535   3.964   6.933 -1.2596 -1.0645  1.5356
   69MOL   H21020746   7.643   3.763   6.808 -0.8195  0.9474 -0.7222
   69MOL   H21120747   7.868   3.690   6.873  0.4710  1.1319  0.2023
   69MOL   C21220748   7.984   3.898   7.298 -0.4945  0.5081 -0.5181
   69MOL   C21320749   7.869   3.858   7.396  0.2454  0.1949 -0.3099
   69MOL   C21420750   7.789   3.742   7.339  0.1964  0.2492  0.3112
   69MOL   C21520751   7.656   3.772   7.311  0.2085  0.0488 -0.3900
   69MOL   C21620752   7.571   3.667   7.270  0.0933 -0.0993  0.3159
   69MOL   C21720753   7.632   3.540   7.250 -0.1545  0.4590  0.3821
   69MOL   C21820754   7.768   3.517   7.281  1.0333  0.6651 -0.8016
   69MOL   N21920755   7.845   3.618   7.326  0.4990 -0.4747 -0.5872
   69MOL   H22020756   8.055   3.953   7.360  0.5135 -1.1562 -0.1798
   69MOL   H22120757   8.040   3.813   7.259 -2.1598 -0.6772 -0.3686
   69MOL   H22220758   7.798   3.940   7.393 -2.1424 -1.8411 -1.1457
   69MOL   H22320759   7.603   3.863   7.332 -0.6171 -0.2661 -1.0743
   69MOL   H22420760   7.466   3.674   7.247  0.2844 -0.5354 -0.7208
   69MOL   H22520761   7.572   3.454   7.225  1.6143 -0.6135 -0.2176
   69MOL   H22620762   7.806   3.419   7.258  1.2370 -0.0548  2.4134
   69MOL   C22720763   7.916   3.832   7.545  0.1761  0.0789 -0.1076
   69MOL   C22820764   8.004   3.710   7.582  0.8529 -0.3360 -0.0438
   69MOL   C22920765   8.148   3.735   7.534  0.0936 -0.2931 -0.2701
   69MOL   C23020766   0.058   3.645   7.445  0.3455 -0.4420  0.2938
   69MOL   C23120767   0.194   3.660   7.415 -0.0251 -0.0424 -0.0727
   69MOL   C23220768   0.261   3.759   7.488 -0.4129 -0.5193  0.4735
   69MOL   C23320769   0.197   3.844   7.575 -0.3772  0.8555 -0.5684
   69MOL   N23420770   0.064   3.832   7.595  0.4633 -0.4695  0.0002
   69MOL   H23520771   7.825   3.826   7.603  0.8311 -1.4508  0.7818
   69MOL   H23620772   7.964   3.927   7.571  0.9688 -0.5794  0.8720
   69MOL   H23720773   7.972   3.618   7.533 -0.2440  0.1635 -0.2769
   69MOL   H23820774   8.141   3.573   7.402  0.5492  0.2303 -1.1731
   69MOL   H23920775   0.255   3.593   7.356  1.5075  0.7419  0.6057
   69MOL   H24020776   0.368   3.774   7.480 -0.5480 -0.2179 -0.8183
   69MOL   H24120777   0.261   3.908   7.634 -0.2403  0.0045  0.2017
   69MOL   C24220778   8.004   3.685   7.740 -0.1229  0.4333  0.0572
   69MOL   C24320779   8.003   3.545   7.794 -0.5268 -0.5237  0.5026
   69MOL   C24420780   7.876   3.461   7.776  0.0543  0.7631 -0.6126
   69MOL   C24520781   7.841   3.405   7.650  0.6927  0.0114 -0.3582
   69MOL   C24620782   7.733   3.312   7.643 -0.2475  0.1096  0.0355
   69MOL   C24720783   7.652   3.302   7.755 -0.5581 -0.3655 -1.0019
   69MOL   C24820784   7.681   3.372   7.871  0.8828 -0.6402  0.0246
   69MOL   N24920785   7.798   3.445   7.883  0.8417  0.4857 -0.1515
   69MOL   H25020786   7.909   3.731   7.770 -1.6265 -1.2500 -1.9348
   69MOL   H25120787   8.091   3.733   7.783 -1.0839  1.0717  1.3335
   69MOL   H25220788   8.012   3.559   7.902  3.1620 -1.9834  0.4405
   69MOL   H25320789   7.904   3.427   7.565  0.2695  1.5961 -0.2807
   69MOL   H25420790   7.706   3.253   7.557 -2.1231  0.9381  0.0242
   69MOL   H25520791   7.568   3.234   7.755 -0.7884 -0.1683  2.0164
   69MOL   H25620792   7.611   3.360   7.952 -0.4404  0.8884 -0.8697
   69MOL   C25720793   8.144   3.474   7.771 -0.1035 -0.6920  0.4812
   69MOL   C25820794   0.012   3.338   7.860 -0.1651  0.3920 -0.1197
   69MOL   C25920795   8.096   3.215   7.801  0.1582 -0.1852  0.0415
   69MOL   C26020796   7.999   3.148   7.877 -0.4119  0.2055 -0.7361
   69MOL   C26120797   7.931   3.043   7.811 -0.4580  0.1435 -0.7258
   69MOL   C26220798   7.967   3.011   7.677 -0.0103  0.1660 -1.1634
   69MOL   C26320799   8.077   3.077   7.618 -0.0735  0.4161  0.3236
   69MOL   N26420800   8.141   3.174   7.684  0.3452  0.7194  0.2945
   69MOL   H26520801   0.075   3.537   7.804 -0.1561 -0.6086  0.4547
   69MOL   H26620802   0.003   3.462   7.663  2.1351  0.4005  0.5673
   69MOL   H26720803   8.119   3.357   7.958 -0.1935  0.8875 -0.2277
   69MOL   H26820804   7.980   3.170   7.981 -2.6346  0.0153 -1.0846
   69MOL   H26920805   7.855   2.982   7.858  0.4326  1.1826  2.2281
   69MOL   H27020806   7.918   2.928   7.629  0.0426 -0.3254 -0.3766
   69MOL   H27120807   8.112   3.053   7.519 -1.5569 -4.2183  0.8084
   69MOL   C27220808   0.170   3.318   7.901 -0.3965 -0.0417 -0.3096
   69MOL   C27320809   0.214   3.409   8.022  0.2161  0.5213 -0.0183
   69MOL   C27420810   0.188   3.325   8.150  0.6327 -0.2022 -0.0406
   69MOL   C27520811   0.095   3.372   0.092  0.5605  0.0131  0.8419
   69MOL   C27620812   0.078   3.304   0.212  0.0024 -0.3092  0.1420
   69MOL   C27720813   0.159   3.191   0.233  0.5089 -0.0769 -0.1132
   69MOL   C27820814   0.253   3.150   0.140 -0.1653 -0.1462 -0.3148
   69MOL   N27920815   0.260   3.216   0.023  0.0201 -0.2245  0.1194
   69MOL   H28020816   0.225   3.341   7.810 -0.4142  1.6405  0.0910
   69MOL   H28120817   0.195   3.213   7.917 -0.5734 -0.3757 -2.0849
   69MOL   H28220818   0.143   3.491   8.018  1.3574  1.5514  0.5687
   69MOL   H28320819   0.045   3.462   0.059  0.8246 -0.1811 -0.1068
   69MOL   H28420820   0.001   3.332   0.282 -1.3969 -0.4546 -1.3206
   69MOL   H28520821   0.142   3.138   0.326  0.6705  1.2492  0.6891
   69MOL   H28620822   0.321   3.070   0.163 -1.4396 -1.0372  0.4544
   69MOL   C28720823   0.361   3.467   8.016 -0.2347 -0.1135  0.0476
   69MOL   C28820824   0.412   3.568   8.129 -0.3021  0.1532  0.3553
   69MOL   C28920825   0.305   3.676   8.142 -0.1965 -0.1301  0.2000
   69MOL   C29020826   0.235   3.686   0.109  0.5662 -0.0375  0.5359
   69MOL   C29120827   0.143   3.791   0.117 -0.2459  0.5812  0.5143
   69MOL   C29220828   0.114   3.869   0.003  0.1464  0.5887  0.4683
   69MOL   C29320829   0.193   3.848   8.039 -0.1281 -0.0729 -1.2588
   69MOL   N29420830   0.285   3.752   8.032  0.5151 -0.6422 -0.7841
   69MOL   H29520831   0.366   3.523   7.923 -0.4550 -0.2536 -0.0484
   69MOL   H29620832   0.438   3.389   8.020  3.0997  3.0340  0.0280
   69MOL   H29720833   0.504   3.618   8.100  0.2638 -2.4646 -2.5791
   69MOL   H29820834   0.255   3.626   0.197  0.8517 -0.7732 -0.0310
   69MOL   H29920835   0.087   3.784   0.208  1.3494 -3.0103  1.2818
   69MOL   H30020836   0.039   3.946   0.014 -0.0550  0.6383 -1.1811
   69MOL   H30120837   0.173   3.902   7.947 -1.7529  3.5491  1.0779
   69MOL   H30220838   0.416   3.510   0.069  2.0512  0.4539  0.4666
   70MOL     C120839   1.423   3.025   0.075  0.0350  0.3137 -0.6669
   70MOL     C220840   1.557   2.946   0.080  0.6646  0.1643 -0.1604
   70MOL     C320841   1.620   2.937   8.092  0.0436  0.0226  0.2243
   70MOL     C420842   1.621   2.814   8.024 -0.6820 -0.0887 -0.3037
   70MOL     C520843   1.659   2.808   7.889  0.0826 -0.1274 -0.4100
   70MOL     C620844   1.691   2.921   7.825  0.5045  0.7838 -0.9315
   70MOL     C720845   1.682   3.040   7.898  0.1800 -0.3150 -0.0162
   70MOL     N820846   1.653   3.052   8.023  0.6364  0.2700 -0.3221
   70MOL     H920847   1.382   3.022   0.176  2.6448 -2.6842  0.3877
   70MOL    H1020848   1.428   3.129   0.043 -1.1905  0.7176  0.4343
   70MOL    H1120849   1.544   2.840   0.103  1.3071  0.1302  0.0557
   70MOL    H1220850   1.583   2.727   8.075  1.6500 -1.8105 -1.3843
   70MOL    H1320851   1.651   2.711   7.843 -0.4748 -0.9382  1.3307
   70MOL    H1420852   1.730   2.913   7.724 -0.4022 -2.7631 -1.0278
   70MOL    H1520853   1.709   3.138   7.861  1.6128 -1.3481 -1.7778
   70MOL    H1620854   1.362   2.968   0.005  0.9409  0.4692 -1.5995
   70MOL    C1720855   1.659   3.006   0.182  0.1751  0.4793 -0.0859
   70MOL    C1820856   1.809   2.963   0.175  0.5530  0.1705  0.4975
   70MOL    C1920857   1.895   3.064   0.246  0.0451  0.0791 -0.4714
   70MOL    C2020858   1.992   3.132   0.175  0.1827  0.2533 -0.0453
   70MOL    C2120859   2.059   3.238   0.238 -0.7698  0.0432  0.0078
   70MOL    C2220860   2.044   3.260   0.377 -0.1233 -0.0411  0.3513
   70MOL    C2320861   1.954   3.175   0.447 -1.0996  0.8203  0.2396
   70MOL    N2420862   1.882   3.079   0.380 -0.0318 -0.5266  0.6448
   70MOL    H2520863   1.625   2.991   0.285  0.1835 -0.7078 -0.2426
   70MOL    H2620864   1.650   3.111   0.154  1.4018  0.8285  0.8128
   70MOL    H2720865   1.831   2.984   0.070 -1.4235  1.1675  0.2613
   70MOL    H2820866   2.010   3.110   0.071  0.2478 -0.2006  0.0582
   70MOL    H2920867   2.126   3.303   0.184  5.0024 -4.2313  1.6309
   70MOL    H3020868   2.090   3.347   0.422  1.9681 -0.4145 -0.9871
   70MOL    H3120869   1.944   3.180   0.555 -2.8330  1.9913  0.0440
   70MOL    C3220870   1.840   2.812   0.203 -0.8789 -0.0856  0.2655
   70MOL    C3320871   1.819   2.778   0.351  0.1842 -0.3786 -0.2348
   70MOL    C3420872   1.727   2.654   0.357  0.3593  0.0375  0.2863
   70MOL    C3520873   1.786   2.529   0.333 -0.0641  0.6988 -0.6729
   70MOL    C3620874   1.701   2.417   0.352 -0.4964  0.2974  0.7456
   70MOL    C3720875   1.565   2.433   0.377  0.3844  0.3407 -0.4822
   70MOL    C3820876   1.518   2.561   0.404 -0.0579  0.2052  0.4887
   70MOL    N3920877   1.595   2.669   0.383  0.6128 -0.6024  0.0048
   70MOL    H4020878   1.944   2.790   0.176 -0.5982  1.9431 -0.4231
   70MOL    H4120879   1.781   2.745   0.140  0.9322  0.0253 -1.6038
   70MOL    H4220880   1.764   2.856   0.403  0.6932  0.4158 -0.8951
   70MOL    H4320881   1.887   2.522   0.295  0.2141 -1.0889  0.3393
   70MOL    H4420882   1.754   2.324   0.342  1.6176  1.6415 -0.9972
   70MOL    H4520883   1.508   2.342   0.391  1.1984 -0.0242  0.4894
   70MOL    H4620884   1.412   2.577   0.414  0.4305  1.9532  3.4651
   70MOL    C4720885   1.953   2.755   0.425 -0.2028 -0.1610  0.1146
   70MOL    C4820886   1.937   2.717   0.574 -0.4099  0.1083 -0.2277
   70MOL    C4920887   2.058   2.648   0.639 -0.7615  0.5536 -0.2811
   70MOL    C5020888   2.178   2.717   0.640 -0.5863  0.8119 -0.4825
   70MOL    C5120889   2.295   2.646   0.673 -0.6646  0.6945 -0.3084
   70MOL    C5220890   2.283   2.507   0.698 -0.2302  0.0635 -0.5011
   70MOL    C5320891   2.154   2.448   0.697 -0.0740 -0.4051  0.0981
   70MOL    N5420892   2.044   2.517   0.658 -0.0593  0.2721 -0.0591
   70MOL    H5520893   2.000   2.853   0.417 -2.2211  0.8635  0.3174
   70MOL    H5620894   2.025   2.683   0.386  0.0859  0.6799 -0.9306
   70MOL    H5720895   1.858   2.642   0.569 -0.6800  0.3617  0.2022
   70MOL    H5820896   2.177   2.822   0.614 -0.3411  0.5016 -1.7642
   70MOL    H5920897   2.390   2.695   0.691  1.9255 -3.2751 -2.3746
   70MOL    H6020898   2.360   2.447   0.744 -0.8183 -0.3993 -0.1181
   70MOL    H6120899   2.148   2.343   0.720 -0.7954 -0.4472 -0.2578
   70MOL    C6220900   1.867   2.827   0.660 -0.1230  0.3666 -0.5243
   70MOL    C6320901   1.717   2.802   0.693 -0.4954 -0.6931 -0.2348
   70MOL    C6420902   1.707   2.711   0.813  0.5080  0.1099 -0.7271
   70MOL    C6520903   1.673   2.573   0.803 -0.1776  0.0206 -0.1821
   70MOL    C6620904   1.671   2.493   0.919  0.6300  0.6842  0.6997
   70MOL    C6720905   1.725   2.544   1.043 -0.2365  0.0669 -0.1784
   70MOL    C6820906   1.750   2.688   1.044 -0.0406  0.3781  0.0534
   70MOL    N6920907   1.744   2.761   0.933 -0.2592  0.1289  0.3491
   70MOL    H7020908   1.874   2.914   0.594 -1.7869 -0.9382 -2.4554
   70MOL    H7120909   1.933   2.851   0.744 -0.1751 -1.1867 -0.0376
   70MOL    H7220910   1.671   2.745   0.613 -0.0435 -2.7102  0.8842
   70MOL    H7320911   1.651   2.526   0.708  2.5048 -0.6256 -0.5480
   70MOL    H7420912   1.653   2.386   0.912 -1.2779  1.0249  0.1755
   70MOL    H7520913   1.748   2.479   1.126 -1.2351 -1.6384 -1.2086
   70MOL    H7620914   1.798   2.730   1.132  0.9057  1.0947 -0.8000
   70MOL    C7720915   1.639   2.927   0.703 -0.3068 -0.5899 -0.1720
   70MOL    C7820916   1.482   2.898   0.684 -0.4190  0.0661  0.1966
   70MOL    C7920917   1.424   2.839   0.813 -0.1344 -0.0116  0.5729
   70MOL    C8020918   1.428   2.913   0.933  0.5027  0.0729  0.4673
   70MOL    C8120919   1.376   2.856   1.052  0.4887  0.2880  0.6416
   70MOL    C8220920   1.314   2.729   1.040 -0.6268  0.7468  0.1311
   70MOL    C8320921   1.322   2.664   0.915 -0.6851 -0.5995 -0.0522
   70MOL    N8420922   1.375   2.716   0.808 -0.0246  0.0497 -0.4546
   70MOL    H8520923   1.668   3.000   0.627 -1.4388  1.0618  0.9309
   70MOL    H8620924   1.661   2.980   0.796 -1.8078 -0.5677  0.1781
   70MOL    H8720925   1.455   2.830   0.603  1.3653  0.1199 -0.4683
   70MOL    H8820926   1.477   3.009   0.938 -0.0930  0.3865  0.3834
   70MOL    H8920927   1.370   2.918   1.140 -0.6637 -0.3491  1.0229
   70MOL    H9020928   1.271   2.679   1.126 -1.8638  1.1983 -0.2289
   70MOL    H9120929   1.295   2.560   0.900  0.9299 -0.8164 -1.6716
   70MOL    C9220930   1.400   3.027   0.655  0.8186 -0.5897 -0.7066
   70MOL    C9320931   1.349   3.045   0.511 -0.2072  0.6771 -0.3645
   70MOL    C9420932   1.262   2.920   0.470 -0.0040  0.0635  0.9179
   70MOL    C9520933   1.300   2.832   0.367  0.4737  0.0971  0.3413
   70MOL    C9620934   1.216   2.726   0.328  0.7158  0.4421  1.1894
   70MOL    C9720935   1.090   2.722   0.389  0.7776 -0.2782  0.8738
   70MOL    C9820936   1.060   2.807   0.500 -0.2889 -0.6819  0.4539
   70MOL    N9920937   1.147   2.905   0.541  0.6151  0.1300  0.7296
   70MOL   H10020938   1.452   3.112   0.698 -4.7171  1.6960  2.0226
   70MOL   H10120939   1.314   3.018   0.722  1.4499 -0.6785  0.0976
   70MOL   H10220940   1.441   3.044   0.453 -0.3961 -1.6037 -0.6770
   70MOL   H10320941   1.390   2.850   0.310  0.2987  0.4117  0.1614
   70MOL   H10420942   1.243   2.664   0.243 -2.1208 -1.1272  1.3591
   70MOL   H10520943   1.020   2.647   0.356  1.8646 -0.6466 -0.6868
   70MOL   H10620944   0.981   2.789   0.571 -0.5617  3.2783  1.2677
   70MOL   C10720945   1.278   3.184   0.500 -0.1819  0.2809 -0.5044
   70MOL   C10820946   1.344   3.330   0.505  0.2967  0.3547 -0.3178
   70MOL   C10920947   1.421   3.372   0.378 -0.1972 -0.3456 -0.2672
   70MOL   C11020948   1.560   3.378   0.356 -0.7670  0.3621  0.3233
   70MOL   C11120949   1.611   3.392   0.227  0.1507  0.0213 -0.6770
   70MOL   C11220950   1.526   3.406   0.122  0.0681 -0.5411 -0.5046
   70MOL   C11320951   1.388   3.417   0.156 -0.3660 -0.3629 -0.5704
   70MOL   N11420952   1.334   3.405   0.280  0.6218 -0.5336 -0.0701
   70MOL   H11520953   1.203   3.176   0.579  0.8765  0.7142  0.5482
   70MOL   H11620954   1.223   3.185   0.405 -0.4214 -0.9824 -0.3974
   70MOL   H11720955   1.423   3.325   0.579  0.4701 -0.0672 -0.5268
   70MOL   H11820956   1.631   3.370   0.437 -0.7357  2.5291  0.5386
   70MOL   H11920957   1.718   3.393   0.209  0.1108 -0.9848 -1.0207
   70MOL   H12020958   1.560   3.417   0.020 -0.6044 -0.8243 -0.7622
   70MOL   H12120959   1.312   3.447   0.084  0.2077 -0.9985 -1.4434
   70MOL   C12220960   1.251   3.452   0.549  0.3619 -0.0675 -0.2584
   70MOL   C12320961   1.206   3.431   0.696 -0.2573 -0.1995 -0.4879
   70MOL   C12420962   1.332   3.425   0.792 -0.0640 -0.1011 -0.6671
   70MOL   C12520963   1.358   3.305   0.861  0.1979  0.0785  0.3744
   70MOL   C12620964   1.470   3.305   0.951 -0.7414 -0.1920 -0.8845
   70MOL   C12720965   1.543   3.424   0.959  0.2247 -0.5794 -0.1410
   70MOL   C12820966   1.516   3.535   0.878  0.1510 -0.3634  0.2280
   70MOL   N12920967   1.405   3.538   0.803  0.1315  0.2544  0.9403
   70MOL   H13020968   1.159   3.465   0.493 -0.7564 -0.1943  1.4840
   70MOL   H13120969   1.304   3.547   0.540 -0.2963  0.5034  1.6157
   70MOL   H13220970   1.162   3.331   0.702  1.2505 -0.7797  1.3948
   70MOL   H13320971   1.291   3.223   0.840 -0.8363  0.9348  0.2942
   70MOL   H13420972   1.489   3.222   1.017  1.1414  2.1831  1.6798
   70MOL   H13520973   1.632   3.432   1.019 -0.7365  0.1387  1.2111
   70MOL   H13620974   1.565   3.631   0.886  0.3417 -0.2305 -2.0914
   70MOL   C13720975   1.099   3.529   0.744  0.1912  0.7730 -0.5653
   70MOL   C13820976   1.014   3.486   0.873 -0.5256  0.0684  0.5748
   70MOL   C13920977   1.012   3.600   0.974  0.4135 -0.5444 -0.2571
   70MOL   C14020978   1.124   3.626   1.058  0.0648  0.2746 -0.9880
   70MOL   C14120979   1.122   3.742   1.140 -0.4354 -0.0675  0.0172
   70MOL   C14220980   1.003   3.823   1.138  0.2235 -1.4916 -0.3732
   70MOL   C14320981   0.899   3.786   1.055  0.2411  0.2401  0.5183
   70MOL   N14420982   0.907   3.682   0.969 -0.1047  0.5227  0.3672
   70MOL   H14520983   1.025   3.540   0.664 -2.0763  0.1699  1.3746
   70MOL   H14620984   1.138   3.631   0.749  0.5878  0.5698  0.4524
   70MOL   H14720985   1.079   3.412   0.920  0.8763  0.2596 -0.9969
   70MOL   H14820986   1.207   3.557   1.056 -0.2467 -0.0955 -1.4364
   70MOL   H14920987   1.196   3.772   1.213 -0.6728  2.1486 -0.6010
   70MOL   H15020988   0.983   3.915   1.189  0.3765 -0.2808 -2.4348
   70MOL   H15120989   0.802   3.830   1.039 -0.0846 -0.1086  1.4601
   70MOL   C15220990   0.877   3.424   0.841  0.3219  0.2360  0.3818
   70MOL   C15320991   0.876   3.281   0.773 -0.2630 -0.2240  0.3800
   70MOL   C15420992   0.915   3.168   0.866 -0.3887 -0.0017  0.2027
   70MOL   C15520993   1.012   3.074   0.824 -0.6720  0.4909 -0.3007
   70MOL   C15620994   1.035   2.962   0.906 -0.5259  0.3062 -0.4430
   70MOL   C15720995   0.957   2.957   1.025  0.4095 -0.7878 -0.2780
   70MOL   C15820996   0.862   3.050   1.054 -0.9123  0.8091  0.0030
   70MOL   N15920997   0.837   3.151   0.975  0.1426  0.4337 -0.0942
   70MOL   H16020998   0.818   3.492   0.779  1.2738 -1.4469 -2.4852
   70MOL   H16120999   0.822   3.412   0.934  2.2199  0.3711  1.5461
   70MOL   H16221000   0.948   3.274   0.692 -1.8237  0.2276 -1.0743
   70MOL   H16321001   1.058   3.082   0.727 -0.8686 -1.0477 -0.5198
   70MOL   H16421002   1.097   2.882   0.871 -0.3568 -0.2371  1.0671
   70MOL   H16521003   0.965   2.871   1.090  0.9538 -1.0367 -0.6814
   70MOL   H16621004   0.799   3.035   1.140  0.2223  0.2413  0.7524
   70MOL   C16721005   0.732   3.256   0.719  0.2456 -0.1160  0.0110
   70MOL   C16821006   0.710   3.318   0.578  0.3540 -0.2055  0.0067
   70MOL   C16921007   0.805   3.254   0.479  0.4228  0.3197 -0.1678
   70MOL   C17021008   0.891   3.336   0.409 -0.0300  0.4495 -0.6406
   70MOL   C17121009   0.987   3.274   0.327  0.2738  0.2049  0.5001
   70MOL   C17221010   0.987   3.141   0.309 -0.3500 -0.2805  0.3716
   70MOL   C17321011   0.891   3.068   0.383  0.0332  0.2486  0.7214
   70MOL   N17421012   0.799   3.121   0.469 -0.4209 -0.4672 -0.1883
   70MOL   H17521013   0.656   3.302   0.782 -1.3371  0.8927 -2.5560
   70MOL   H17621014   0.715   3.148   0.711 -0.4294 -0.0685  0.6992
   70MOL   H17721015   0.751   3.419   0.585 -1.9054  0.5355  3.4919
   70MOL   H17821016   0.885   3.443   0.413 -1.1433  0.4237 -1.2806
   70MOL   H17921017   1.055   3.339   0.274 -0.2500  0.4770  0.1490
   70MOL   H18021018   1.059   3.097   0.242 -1.3900 -0.1828 -0.8165
   70MOL   H18121019   0.874   2.962   0.373 -0.3089  0.6138 -3.2257
   70MOL   C18221020   0.563   3.323   0.522 -0.2562  0.3354 -0.7671
   70MOL   C18321021   0.476   3.417   0.605 -0.6092  0.7680  0.5053
   70MOL   C18421022   0.527   3.562   0.605 -0.5135  0.5016 -0.7118
   70MOL   C18521023   0.570   3.622   0.724 -0.7380 -0.3745 -0.4407
   70MOL   C18621024   0.641   3.743   0.717 -0.0817  0.2504 -0.1144
   70MOL   C18721025   0.646   3.807   0.593  0.1627 -0.6819  0.0117
   70MOL   C18821026   0.594   3.742   0.480  0.5758 -0.5260 -0.5951
   70MOL   N18921027   0.539   3.615   0.483  0.0121 -0.4895 -0.2931
   70MOL   H19021028   0.526   3.221   0.509  0.8757 -0.0772 -0.7992
   70MOL   H19121029   0.568   3.348   0.416 -2.2760 -0.7364 -1.1407
   70MOL   H19221030   0.480   3.389   0.710  2.0070  0.6285  0.4060
   70MOL   H19321031   0.565   3.577   0.822  3.3913 -2.7478 -1.1812
   70MOL   H19421032   0.689   3.779   0.806  0.2836 -0.1581 -0.1438
   70MOL   H19521033   0.693   3.904   0.588 -1.4992  0.1871  0.7184
   70MOL   H19621034   0.608   3.790   0.385  2.3003  1.5114  0.6312
   70MOL   C19721035   0.326   3.398   0.557 -1.0107  0.8716 -0.4546
   70MOL   C19821036   0.212   3.485   0.632 -0.0386 -0.0608  0.0920
   70MOL   C19921037   0.223   3.637   0.614  0.1102 -0.1174  0.2108
   70MOL   C20021038   0.248   3.718   0.728 -0.2803 -0.4568  0.1031
   70MOL   C20121039   0.257   3.854   0.708  0.1360 -0.3758  0.2621
   70MOL   C20221040   0.254   3.902   0.576  0.1753 -0.2249 -0.9016
   70MOL   C20321041   0.241   3.812   0.465 -0.2085  0.1232  0.5802
   70MOL   N20421042   0.214   3.679   0.482 -0.0202  0.1344 -0.3628
   70MOL   H20521043   0.295   3.293   0.565  0.7571  0.3753  0.1619
   70MOL   H20621044   0.334   3.426   0.452  1.2349  0.7141 -0.3456
   70MOL   H20721045   0.218   3.467   0.740  0.5087  0.1780  0.1052
   70MOL   H20821046   0.258   3.677   0.828 -0.0615  1.7015  0.9902
   70MOL   H20921047   0.269   3.921   0.792  2.5689  0.4540 -0.6837
   70MOL   H21021048   0.273   4.006   0.556  0.2598  0.2941  1.6900
   70MOL   H21121049   0.254   3.835   0.360  0.2071 -3.2574 -0.1711
   70MOL   C21221050   0.079   3.428   0.586  0.4962 -0.2957 -0.0188
   70MOL   C21321051   8.107   3.496   0.640 -0.3621 -0.2683  0.6697
   70MOL   C21421052   8.001   3.484   0.536 -0.4447 -0.9959  0.6828
   70MOL   C21521053   7.974   3.601   0.456 -0.8348 -0.5068 -0.0504
   70MOL   C21621054   7.865   3.600   0.370  0.4874 -0.0738 -0.0682
   70MOL   C21721055   7.788   3.478   0.359 -0.2767  0.1525  0.1660
   70MOL   C21821056   7.834   3.363   0.422 -0.4071  0.2460 -0.0867
   70MOL   N21921057   7.935   3.368   0.510 -0.1138  0.2695 -0.2428
   70MOL   H22021058   0.068   3.321   0.608 -0.7195 -0.4455 -1.2440
   70MOL   H22121059   0.086   3.441   0.478 -1.3426 -1.7374 -0.3489
   70MOL   H22221060   8.113   3.605   0.646  0.0279 -0.0107 -3.0726
   70MOL   H22321061   8.033   3.691   0.468 -2.6507  0.8140 -0.8607
   70MOL   H22421062   7.838   3.692   0.321 -1.1359 -0.5113 -0.0356
   70MOL   H22521063   7.718   3.464   0.279  0.5501  0.8214 -0.6783
   70MOL   H22621064   7.784   3.270   0.402 -0.8385  0.0752  1.6985
   70MOL   C22721065   8.061   3.438   0.777 -0.6754  0.4382  1.0319
   70MOL   C22821066   8.011   3.539   0.882 -0.7078  0.0835 -0.4009
   70MOL   C22921067   7.929   3.651   0.829  0.2951 -0.3440  0.4166
   70MOL   C23021068   7.975   3.788   0.831 -0.0158  0.5518  0.1683
   70MOL   C23121069   7.890   3.881   0.775  0.3897 -0.0606  0.3752
   70MOL   C23221070   7.770   3.851   0.718  0.4151  0.2226 -0.4151
   70MOL   C23321071   7.738   3.715   0.711 -0.3652  0.1760  0.8355
   70MOL   N23421072   7.812   3.622   0.772 -0.1670 -0.7637 -1.1657
   70MOL   H23521073   8.132   3.365   0.815  1.2015  1.9046  0.3954
   70MOL   H23621074   7.984   3.367   0.745  0.2495  0.3336 -1.0127
   70MOL   H23721075   8.096   3.595   0.919  0.1151 -0.4248 -1.5103
   70MOL   H23821076   8.072   3.818   0.868  0.4288 -2.4837  1.6140
   70MOL   H23921077   7.920   3.985   0.778  0.7089 -0.0771 -1.5012
   70MOL   H24021078   7.699   3.922   0.678  1.7378  2.9682  1.9491
   70MOL   H24121079   7.647   3.681   0.664  0.0256  1.7397 -1.1187
   70MOL   C24221080   7.958   3.456   0.999 -0.5921 -0.2195  0.3220
   70MOL   C24321081   7.971   3.508   1.151  0.5853  0.2624  0.2191
   70MOL   C24421082   8.108   3.483   1.207  0.5595  0.0294  0.2461
   70MOL   C24521083   8.125   3.396   1.313 -0.1684 -0.3852 -0.3741
   70MOL   C24621084   0.103   3.365   1.358 -0.0857 -0.0962 -0.4461
   70MOL   C24721085   0.208   3.444   1.310  0.2701  0.4777 -0.1288
   70MOL   C24821086   0.181   3.541   1.209 -0.4774  0.4477 -0.6959
   70MOL   N24921087   0.055   3.563   1.158 -0.0162  0.3326  0.0986
   70MOL   H25021088   8.017   3.364   1.005 -1.0745 -0.6573 -1.3308
   70MOL   H25121089   7.860   3.409   0.984 -0.8071  0.2997  0.1095
   70MOL   H25221090   7.906   3.433   1.196  0.5232 -0.4167 -0.9732
   70MOL   H25321091   8.041   3.337   1.349  0.0241  0.3441  1.3376
   70MOL   H25421092   0.124   3.290   1.433 -0.0673 -1.6730 -2.0121
   70MOL   H25521093   0.305   3.432   1.356  0.9925  2.6242 -1.0326
   70MOL   H25621094   0.264   3.602   1.177  0.3619  0.1099  0.7876
   70MOL   C25721095   7.914   3.648   1.192  0.5937  0.3796  0.1595
   70MOL   C25821096   7.897   3.674   1.341  0.6388 -0.2155 -0.6432
   70MOL   C25921097   7.862   3.816   1.356  0.3615  0.1809  0.5647
   70MOL   C26021098   7.735   3.859   1.333 -0.0698  0.0701  0.1342
   70MOL   C26121099   7.713   3.994   1.341 -0.8346  0.1354  0.1377
   70MOL   C26221100   7.818   4.084   1.372  0.0882  0.4199 -0.2135
   70MOL   C26321101   7.941   4.024   1.412 -0.9257 -0.1245  0.1829
   70MOL   N26421102   7.962   3.891   1.404  0.4937 -0.9129  0.2954
   70MOL   H26521103   7.819   3.668   1.141 -0.0366 -0.7898  0.8438
   70MOL   H26621104   7.991   3.714   1.154 -0.2392  1.1509 -0.2165
   70MOL   H26721105   7.997   3.648   1.375  1.0532  0.0995 -1.6269
   70MOL   H26821106   7.653   3.794   1.309 -1.1066  0.7921  1.6451
   70MOL   H26921107   7.616   4.032   1.315 -0.9673 -0.5245 -0.3449
   70MOL   H27021108   7.799   4.190   1.370 -0.0328  0.4408  1.2786
   70MOL   H27121109   8.029   4.076   1.444  0.4897 -3.5315  2.0803
   70MOL   C27221110   7.801   3.568   1.405  0.3495  0.2731 -0.3362
   70MOL   C27321111   7.749   3.583   1.550 -0.7568  0.2494  0.0265
   70MOL   C27421112   7.634   3.484   1.569  0.8667 -0.0965  0.2388
   70MOL   C27521113   7.502   3.535   1.584 -0.0543 -0.2759  0.1092
   70MOL   C27621114   7.394   3.442   1.588  0.1637 -0.5655 -0.2235
   70MOL   C27721115   7.422   3.306   1.575 -0.4881  0.3538 -0.1994
   70MOL   C27821116   7.561   3.265   1.562  0.1917 -0.4361  0.8358
   70MOL   N27921117   7.658   3.353   1.561  0.0628  0.2117 -0.1294
   70MOL   H28021118   7.844   3.469   1.392  0.3443  0.4145 -1.4487
   70MOL   H28121119   7.713   3.569   1.341 -0.0309 -4.1971 -0.0190
   70MOL   H28221120   7.704   3.682   1.558  0.2911  0.6849  0.6177
   70MOL   H28321121   7.474   3.639   1.579  1.7343  0.1279 -2.5448
   70MOL   H28421122   7.292   3.476   1.599  0.6586  0.5290  1.0569
   70MOL   H28521123   7.344   3.232   1.569 -2.1582  2.0494  0.1003
   70MOL   H28621124   7.586   3.165   1.532  2.3349  0.5368 -0.8128
   70MOL   C28721125   7.855   3.575   1.657 -0.0262 -0.4857 -0.3836
   70MOL   C28821126   7.805   3.616   1.793 -0.1648 -0.0233 -0.6086
   70MOL   C28921127   7.917   3.600   1.898 -0.1380 -0.1890  0.2209
   70MOL   C29021128   8.012   3.703   1.919 -0.2183  0.0322 -0.4282
   70MOL   C29121129   8.103   3.689   2.025  0.2670  0.1855 -0.1268
   70MOL   C29221130   8.124   3.563   2.078  0.3315 -0.3615  0.1978
   70MOL   C29321131   8.045   3.456   2.028  0.1639 -0.9520  0.2387
   70MOL   N29421132   7.941   3.477   1.949 -0.2021  0.2029  0.1396
   70MOL   H29521133   7.935   3.644   1.629  0.5977 -0.7825  0.6215
   70MOL   H29621134   7.896   3.474   1.652 -1.1357 -0.8195 -3.4560
   70MOL   H29721135   7.721   3.551   1.819 -0.2847  0.1132 -0.6524
   70MOL   H29821136   8.005   3.790   1.856  1.3341  1.4783  1.3697
   70MOL   H29921137   0.013   3.771   2.059  0.0413  0.6801 -0.8872
   70MOL   H30021138   0.046   3.547   2.155  0.6859 -1.1903 -0.3080
   70MOL   H30121139   8.071   3.355   2.059  0.6827 -1.7400 -2.5890
   70MOL   H30221140   7.767   3.718   1.785  0.8450  0.5729  1.6621
   71MOL     C121141   4.095   7.370   7.628 -0.0190 -0.4867  0.3350
   71MOL     C221142   4.096   7.511   7.583  0.2625  0.1608  0.2884
   71MOL     C321143   4.193   7.595   7.674 -0.1971  0.1387  0.1128
   71MOL     C421144   4.150   7.679   7.782 -0.4363  0.6148  0.0808
   71MOL     C521145   4.250   7.760   7.845  0.3768  0.1599  0.2752
   71MOL     C621146   4.381   7.752   7.792  0.0351 -0.5620  0.2045
   71MOL     C721147   4.411   7.657   7.701  0.1871 -0.1433  0.6091
   71MOL     N821148   4.324   7.576   7.648 -0.1717  0.8103 -0.2318
   71MOL     H921149   4.186   7.318   7.597 -0.0650  0.0142 -0.6626
   71MOL    H1021150   4.086   7.361   7.736 -1.1321 -1.0836  0.2063
   71MOL    H1121151   4.005   7.569   7.602  0.0859  0.2726 -0.8247
   71MOL    H1221152   4.044   7.679   7.801 -0.1731 -1.6190  1.6425
   71MOL    H1321153   4.214   7.837   7.911 -1.6796  2.6173 -3.4868
   71MOL    H1421154   4.453   7.825   7.825  0.2618  1.2715 -4.0266
   71MOL    H1521155   4.515   7.640   7.677 -0.3153 -1.4116 -0.7097
   71MOL    H1621156   4.014   7.312   7.584  0.1261 -0.7147  0.3652
   71MOL    C1721157   4.130   7.533   7.434  0.5674 -0.0949 -0.2655
   71MOL    C1821158   4.020   7.481   7.336 -0.3037 -0.6624 -0.0862
   71MOL    C1921159   3.885   7.539   7.377 -0.4413 -0.1473  0.1392
   71MOL    C2021160   3.878   7.677   7.372 -0.4290 -0.8614  0.3110
   71MOL    C2121161   3.753   7.736   7.402 -0.3214  0.3813  0.2449
   71MOL    C2221162   3.650   7.651   7.424  0.9746  0.4392 -0.6122
   71MOL    C2321163   3.664   7.512   7.426 -0.5157  0.0822  0.7927
   71MOL    N2421164   3.780   7.457   7.406  0.1071 -0.1651 -0.0893
   71MOL    H2521165   4.230   7.498   7.409  0.8546  0.1744  0.4944
   71MOL    H2621166   4.142   7.641   7.430 -0.7174  0.0620 -0.0173
   71MOL    H2721167   4.021   7.372   7.330  1.1146 -0.6607 -0.0800
   71MOL    H2821168   3.964   7.741   7.356 -1.7575  0.7518 -0.5311
   71MOL    H2921169   3.741   7.843   7.409 -2.4001  0.1762  0.0957
   71MOL    H3021170   3.552   7.687   7.454  1.3772  0.0778  1.1717
   71MOL    H3121171   3.577   7.449   7.444 -1.2247  1.0322  0.7314
   71MOL    C3221172   4.043   7.527   7.186  0.2328 -0.3037 -0.0888
   71MOL    C3321173   4.107   7.410   7.101 -0.4527 -0.5651  0.7604
   71MOL    C3421174   4.238   7.357   7.158 -0.4888 -0.6334  1.1157
   71MOL    C3521175   4.355   7.415   7.109 -0.3531  0.2684 -0.1521
   71MOL    C3621176   4.477   7.389   7.177 -0.5251  0.3512  0.6141
   71MOL    C3721177   4.480   7.287   7.272 -0.3121  0.8528  0.3512
   71MOL    C3821178   4.361   7.221   7.312 -0.7910 -0.0801 -0.1298
   71MOL    N3921179   4.238   7.261   7.254 -0.0314  0.0355  0.1021
   71MOL    H4021180   4.110   7.613   7.187 -0.8559  0.5529 -0.5177
   71MOL    H4121181   3.952   7.560   7.136  1.1721 -0.6827 -2.1039
   71MOL    H4221182   4.135   7.448   7.003 -0.5497 -2.4568 -0.0259
   71MOL    H4321183   4.353   7.493   7.035 -0.7492 -0.2786 -0.7251
   71MOL    H4421184   4.573   7.432   7.151 -0.6516  1.0903  1.3695
   71MOL    H4521185   4.577   7.264   7.313  0.8272  1.4574 -1.9065
   71MOL    H4621186   4.364   7.143   7.387  2.8290  0.2421  0.1717
   71MOL    C4721187   4.002   7.299   7.080 -0.4989  0.1228 -0.1343
   71MOL    C4821188   4.035   7.196   6.968 -0.5361  0.1130  0.1944
   71MOL    C4921189   3.966   7.059   6.981 -0.0669  0.1106 -0.1794
   71MOL    C5021190   4.048   6.951   7.002 -0.1263  0.7696 -0.6582
   71MOL    C5121191   3.989   6.818   7.009 -0.1818  0.1833 -0.5250
   71MOL    C5221192   3.848   6.818   7.005 -0.1958  0.8561 -0.3529
   71MOL    C5321193   3.773   6.931   6.983 -0.2272  0.1671 -0.1817
   71MOL    N5421194   3.836   7.052   6.966  1.1016  0.1623  0.2912
   71MOL    H5521195   3.899   7.333   7.066 -0.8208 -0.4547  0.7603
   71MOL    H5621196   3.992   7.236   7.169  0.4249  0.2753  0.0801
   71MOL    H5721197   4.143   7.181   6.968 -0.3654  1.0714 -2.2096
   71MOL    H5821198   4.153   6.971   7.016 -0.1522  0.5576 -0.1363
   71MOL    H5921199   4.043   6.724   7.020  2.0118  1.7565  3.6058
   71MOL    H6021200   3.789   6.728   7.017 -0.1047  0.6261 -1.5975
   71MOL    H6121201   3.665   6.935   6.974 -0.2056 -2.1983 -2.1563
   71MOL    C6221202   3.997   7.256   6.834  0.3593 -0.4698  0.3726
   71MOL    C6321203   4.105   7.259   6.727 -0.3621 -0.4255 -0.7074
   71MOL    C6421204   4.147   7.123   6.682  0.0472 -0.0927  0.2287
   71MOL    C6521205   4.076   7.051   6.585 -0.8566 -0.4650  0.3393
   71MOL    C6621206   4.109   6.914   6.575 -0.7624  0.2895 -0.2921
   71MOL    C6721207   4.220   6.859   6.647  0.0286 -0.1116  0.3225
   71MOL    C6821208   4.292   6.945   6.726 -0.6387 -0.0812  0.4328
   71MOL    N6921209   4.255   7.069   6.749 -0.5508  0.1508  0.0670
   71MOL    H7021210   3.947   7.352   6.831 -0.3266 -0.8618 -1.6501
   71MOL    H7121211   3.917   7.204   6.781 -0.6757 -1.0246  2.4287
   71MOL    H7221212   4.194   7.290   6.781 -0.9380  0.1278 -0.0719
   71MOL    H7321213   3.999   7.097   6.526  0.9382  0.9501 -0.9698
   71MOL    H7421214   4.062   6.840   6.512  0.1234 -1.5092  1.0881
   71MOL    H7521215   4.261   6.759   6.637 -2.0210 -0.8550 -0.8979
   71MOL    H7621216   4.384   6.918   6.774  1.8902  2.3241 -2.8502
   71MOL    C7721217   4.093   7.355   6.610 -0.8848  0.5935  0.4503
   71MOL    C7821218   4.081   7.507   6.629 -0.3573 -0.2986  0.7820
   71MOL    C7921219   4.200   7.565   6.710  0.2233  0.1871 -0.7990
   71MOL    C8021220   4.181   7.638   6.826 -0.0107 -0.4879 -0.3530
   71MOL    C8121221   4.286   7.709   6.886  0.3020  0.5979 -0.1565
   71MOL    C8221222   4.410   7.702   6.822 -0.4271 -0.1544  0.1718
   71MOL    C8321223   4.428   7.618   6.708  0.4591 -0.4261  0.4745
   71MOL    N8421224   4.321   7.560   6.652  0.5618  0.5920  0.2857
   71MOL    H8521225   4.007   7.318   6.554 -0.8789 -0.2301  0.9611
   71MOL    H8621226   4.177   7.341   6.542  0.2400  1.3212  1.6626
   71MOL    H8721227   3.997   7.526   6.696 -0.7122 -0.1300  0.2838
   71MOL    H8821228   4.078   7.644   6.860 -0.8302 -0.7863 -2.6579
   71MOL    H8921229   4.266   7.768   6.974  0.7062 -1.0238  1.0553
   71MOL    H9021230   4.493   7.756   6.867 -0.7057 -0.0834  0.6095
   71MOL    H9121231   4.525   7.618   6.660  0.1327 -1.5753 -0.2018
   71MOL    C9221232   4.061   7.578   6.502 -0.4453  0.4458  0.7706
   71MOL    C9321233   3.954   7.542   6.392  0.6811  0.1007 -0.3302
   71MOL    C9421234   3.816   7.579   6.443  0.0844 -0.4718  0.5266
   71MOL    C9521235   3.730   7.468   6.479 -0.1692  1.0309  0.0323
   71MOL    C9621236   3.618   7.508   6.542 -0.0641 -0.2430  0.4110
   71MOL    C9721237   3.586   7.642   6.558  0.0582 -0.8505 -0.3912
   71MOL    C9821238   3.679   7.737   6.516 -0.3684 -0.2157 -0.5849
   71MOL    N9921239   3.788   7.711   6.454  0.1890 -0.6876  0.1736
   71MOL   H10021240   4.153   7.573   6.445 -1.1204  1.8874 -0.5017
   71MOL   H10121241   4.057   7.685   6.525  0.5034  0.7659 -0.4993
   71MOL   H10221242   3.945   7.436   6.372  0.5750  0.0574 -0.0576
   71MOL   H10321243   3.756   7.367   6.450  2.2762  1.7010 -0.2785
   71MOL   H10421244   3.553   7.424   6.561 -0.7919 -0.1717 -1.5950
   71MOL   H10521245   3.506   7.681   6.618  0.8375 -1.0699  0.8046
   71MOL   H10621246   3.664   7.843   6.534 -1.6247 -0.9012  2.9469
   71MOL   C10721247   3.978   7.586   6.252 -0.0210 -0.0343  0.6302
   71MOL   C10821248   4.104   7.542   6.172 -0.4159 -1.3000  0.5185
   71MOL   C10921249   4.175   7.410   6.221  0.4501  1.1648 -0.2845
   71MOL   C11021250   4.303   7.419   6.288 -0.5673  0.2381  0.3622
   71MOL   C11121251   4.361   7.299   6.318  0.3550 -0.1114  0.1425
   71MOL   C11221252   4.292   7.183   6.289 -0.6930  0.0201  0.9643
   71MOL   C11321253   4.173   7.185   6.226 -0.0704  0.3716  0.0238
   71MOL   N11421254   4.110   7.295   6.193 -0.3433 -0.4091  0.2895
   71MOL   H11521255   3.976   7.695   6.256  0.1534  0.0037 -0.2079
   71MOL   H11621256   3.888   7.557   6.198 -0.0583 -0.9177  1.1689
   71MOL   H11721257   4.173   7.623   6.194 -1.4779 -0.7695  1.9880
   71MOL   H11821258   4.358   7.511   6.298 -0.1777 -0.0154  0.5662
   71MOL   H11921259   4.459   7.294   6.362  0.5375  1.4432 -0.0786
   71MOL   H12021260   4.333   7.087   6.314  0.6622  0.7810  1.7356
   71MOL   H12121261   4.138   7.090   6.189 -0.1049 -0.2360  1.6082
   71MOL   C12221262   4.075   7.534   6.017  0.6131  0.6577 -0.2124
   71MOL   C12321263   4.198   7.502   5.928 -0.4785 -0.5285 -0.2389
   71MOL   C12421264   4.142   7.457   5.786 -0.1404  0.3691  0.2137
   71MOL   C12521265   4.201   7.345   5.726  0.1467 -0.0068  0.2248
   71MOL   C12621266   4.176   7.320   5.590  0.3177  0.1643 -0.5077
   71MOL   C12721267   4.096   7.409   5.515  0.1966 -0.3157 -0.4304
   71MOL   C12821268   4.047   7.525   5.583 -0.3238 -0.0022  0.2015
   71MOL   N12921269   4.068   7.544   5.714  0.1036 -0.8247  0.0575
   71MOL   H13021270   4.026   7.628   5.991  0.7305  1.3702  1.9917
   71MOL   H13121271   3.996   7.459   6.007  0.0372  0.9828  1.6916
   71MOL   H13221272   4.252   7.419   5.972 -1.3630 -0.7748  0.3904
   71MOL   H13321273   4.270   7.278   5.776  1.2530  0.9271 -0.0315
   71MOL   H13421274   4.233   7.241   5.545  1.7145  1.0073 -0.2396
   71MOL   H13521275   4.072   7.402   5.409  1.1993  0.5363 -0.7251
   71MOL   H13621276   4.010   7.610   5.527 -0.1145 -1.0390 -1.5349
   71MOL   C13721277   4.288   7.623   5.902 -0.2409 -0.4155  0.4184
   71MOL   C13821278   4.402   7.612   5.807 -0.1719 -0.0797  0.1384
   71MOL   C13921279   4.456   7.752   5.777  0.2874 -0.2549 -0.6017
   71MOL   C14021280   4.434   7.801   5.650  0.0305 -0.6394  0.1877
   71MOL   C14121281   4.483   7.927   5.618  0.5331 -0.0704  0.4609
   71MOL   C14221282   4.539   8.007   5.723  0.1542  0.1375  0.0740
   71MOL   C14321283   4.542   7.953   5.850 -0.0448  0.4574  0.1917
   71MOL   N14421284   4.512   7.827   5.876  0.3029  0.5435  0.1978
   71MOL   H14521285   4.337   7.663   5.991  2.5009  0.2834 -1.3364
   71MOL   H14621286   4.225   7.703   5.865  0.5234 -0.7569 -1.7213
   71MOL   H14721287   4.359   7.584   5.711  0.5255 -0.5374 -0.0480
   71MOL   H14821288   4.395   7.737   5.572 -0.8142 -2.0452  1.7245
   71MOL   H14921289   4.463   7.969   5.521 -2.7702  0.3487  1.2921
   71MOL   H15021290   4.566   8.110   5.701 -0.9984  0.6058  0.8056
   71MOL   H15121291   4.573   8.005   5.940 -1.9566  0.3210  0.9606
   71MOL   C15221292   4.511   7.511   5.844 -0.0995  0.2669  0.6630
   71MOL   C15321293   4.564   7.430   5.729  0.1625 -0.3993  0.3630
   71MOL   C15421294   4.591   7.506   5.599 -0.1029 -0.4195  0.5027
   71MOL   C15521295   4.701   7.590   5.587 -0.4740 -0.7440  0.1745
   71MOL   C15621296   4.712   7.662   5.464 -0.3686 -0.1647  0.0405
   71MOL   C15721297   4.627   7.632   5.361 -0.2371  0.4773 -0.2354
   71MOL   C15821298   4.529   7.536   5.383  0.0095 -0.0298  0.6491
   71MOL   N15921299   4.507   7.478   5.498 -0.2940  0.3511  0.5472
   71MOL   H16021300   4.481   7.447   5.927  0.5139  0.6488  1.1864
   71MOL   H16121301   4.597   7.570   5.876  0.7646 -0.9906  0.7134
   71MOL   H16221302   4.484   7.357   5.711 -1.2837  1.4724 -1.0901
   71MOL   H16321303   4.767   7.603   5.672 -0.0600 -1.0100 -0.1050
   71MOL   H16421304   4.786   7.741   5.453 -2.3172  1.6749 -0.1223
   71MOL   H16521305   4.639   7.688   5.269 -2.3644  0.0581 -0.7878
   71MOL   H16621306   4.469   7.507   5.298  1.1780 -0.8058  0.0767
   71MOL   C16721307   4.687   7.347   5.760  0.1831  0.3449  0.4812
   71MOL   C16821308   4.690   7.264   5.887  0.5511  0.3454  0.5310
   71MOL   C16921309   4.597   7.144   5.874 -0.7390 -0.7896 -0.1090
   71MOL   C17021310   4.489   7.129   5.964  0.1400  0.1883  0.1936
   71MOL   C17121311   4.403   7.021   5.947 -0.3493 -0.5715 -0.3350
   71MOL   C17221312   4.427   6.937   5.835  0.5057 -0.7894  0.0651
   71MOL   C17321313   4.544   6.950   5.755 -0.7324  0.1686 -0.0427
   71MOL   N17421314   4.628   7.053   5.776 -0.0837 -0.4059  0.8906
   71MOL   H17521315   4.777   7.409   5.758  0.1625  0.3662  0.2747
   71MOL   H17621316   4.705   7.286   5.672 -1.0625 -1.5879  1.5263
   71MOL   H17721317   4.646   7.319   5.971 -0.2111 -0.1901  0.4856
   71MOL   H17821318   4.477   7.195   6.048 -0.3334 -0.6399  0.7878
   71MOL   H17921319   4.325   7.003   6.020 -0.0861  1.8918  0.6070
   71MOL   H18021320   4.353   6.861   5.814 -1.1675  0.6837  0.4930
   71MOL   H18121321   4.569   6.884   5.673 -0.5442  1.1400 -0.7729
   71MOL   C18221322   4.838   7.221   5.905  0.0374  0.2380 -0.4259
   71MOL   C18321323   4.927   7.320   5.978  0.0162 -0.1235 -0.0669
   71MOL   C18421324   4.855   7.395   6.091 -0.3956 -0.0420 -0.2569
   71MOL   C18521325   4.801   7.522   6.079  0.3318  0.2825  0.3490
   71MOL   C18621326   4.730   7.591   6.181  0.1828  0.0138  0.6879
   71MOL   C18721327   4.732   7.529   6.304 -0.2205  0.3086 -0.7648
   71MOL   C18821328   4.786   7.398   6.310  0.1014 -0.4690 -0.3188
   71MOL   N18921329   4.846   7.330   6.210 -0.2774  0.1763  0.0578
   71MOL   H19021330   4.881   7.182   5.812  0.1075 -2.7528  0.7894
   71MOL   H19121331   4.837   7.132   5.968 -0.0228  1.3483  1.1544
   71MOL   H19221332   4.950   7.402   5.910  0.1765  1.0366  1.3576
   71MOL   H19321333   4.818   7.578   5.988 -0.1863  1.0653  0.7300
   71MOL   H19421334   4.690   7.686   6.147  1.4318  1.0610  2.0745
   71MOL   H19521335   4.670   7.571   6.383 -0.4752 -1.7760  0.1917
   71MOL   H19621336   4.773   7.346   6.404  1.3102  0.0194  0.1300
   71MOL   C19721337   5.068   7.272   6.028  0.2071 -0.3058  0.1938
   71MOL   C19821338   5.178   7.276   5.923 -0.0071 -0.0530  0.7543
   71MOL   C19921339   5.179   7.399   5.833  0.6543 -0.2342  0.1211
   71MOL   C20021340   5.174   7.375   5.687 -0.8566 -0.5653 -0.4135
   71MOL   C20121341   5.179   7.488   5.596 -0.7169 -0.3429 -0.3183
   71MOL   C20221342   5.165   7.615   5.654 -0.3682 -0.0033  0.1332
   71MOL   C20321343   5.180   7.620   5.793  0.3313  0.1117 -0.0139
   71MOL   N20421344   5.187   7.526   5.884 -0.2095  0.6698  0.6152
   71MOL   H20521345   5.064   7.179   6.084  0.9898 -0.8546 -0.6263
   71MOL   H20621346   5.096   7.342   6.106  1.6647  0.1482 -0.7010
   71MOL   H20721347   5.155   7.192   5.858  0.6609 -0.3691  0.9216
   71MOL   H20821348   5.184   7.274   5.649  4.5931 -0.5624  0.6260
   71MOL   H20921349   5.184   7.481   5.489 -3.6900 -0.0851 -0.4942
   71MOL   H21021350   5.155   7.708   5.601 -0.5062 -2.3530 -4.1127
   71MOL   H21121351   5.173   7.716   5.842 -0.4010  0.3831 -0.6470
   71MOL   C21221352   5.312   7.239   5.988 -0.3262  0.1090 -0.0049
   71MOL   C21321353   5.318   7.092   6.046 -0.3565 -0.4260 -0.4925
   71MOL   C21421354   5.324   6.992   5.939 -0.2689 -0.4303 -0.2218
   71MOL   C21521355   5.224   6.890   5.929  0.6512 -0.2698 -0.7697
   71MOL   C21621356   5.252   6.785   5.843 -0.8110  0.6418  0.2656
   71MOL   C21721357   5.372   6.785   5.776 -0.5449 -0.6930  0.1617
   71MOL   C21821358   5.450   6.898   5.779 -0.2400  0.0500  0.7307
   71MOL   N21921359   5.423   7.006   5.851 -0.0981  0.1866  0.6676
   71MOL   H22021360   5.328   7.309   6.070  0.0627 -0.9428  0.8249
   71MOL   H22121361   5.389   7.250   5.912 -1.2290 -1.2778 -1.1448
   71MOL   H22221362   5.234   7.060   6.108 -0.7893  0.5337 -0.5669
   71MOL   H22321363   5.138   6.885   5.994  2.9793  1.1744  2.5237
   71MOL   H22421364   5.181   6.706   5.822 -0.6387  0.4308  0.4658
   71MOL   H22521365   5.405   6.717   5.699  0.1140 -0.1016 -0.0947
   71MOL   H22621366   5.542   6.908   5.723 -0.5371  1.1739  0.4268
   71MOL   C22721367   5.444   7.085   6.138 -0.1899 -0.6545  0.2375
   71MOL   C22821368   5.464   6.949   6.206  0.0884  0.7881 -0.2737
   71MOL   C22921369   5.590   6.962   6.294 -0.1537  0.0868  0.3688
   71MOL   C23021370   5.706   6.899   6.265  1.0580  0.0944 -0.0977
   71MOL   C23121371   5.817   6.920   6.342 -0.9561 -0.2418 -0.4349
   71MOL   C23221372   5.813   6.996   6.461  0.5529 -0.2258 -0.3093
   71MOL   C23321373   5.692   7.069   6.480  0.2856  0.6139 -0.1103
   71MOL   N23421374   5.588   7.054   6.396  0.1595  0.8547 -0.4210
   71MOL   H23521375   5.451   7.162   6.215 -0.0514 -0.0572 -0.3610
   71MOL   H23621376   5.535   7.100   6.080 -0.9834 -3.8559 -1.9479
   71MOL   H23721377   5.494   6.873   6.134  1.3771  0.6166  0.4167
   71MOL   H23821378   5.720   6.839   6.176  1.1164  2.3690 -1.6372
   71MOL   H23921379   5.906   6.859   6.346  0.3874  1.5841 -1.5138
   71MOL   H24021380   5.896   7.002   6.530 -0.6430 -0.1801  1.1419
   71MOL   H24121381   5.689   7.133   6.567  0.5945 -0.8087  0.9827
   71MOL   C24221382   5.334   6.894   6.277  0.6449 -0.0771 -0.4162
   71MOL   C24321383   5.356   6.777   6.371 -0.0137  0.8149 -0.3259
   71MOL   C24421384   5.398   6.825   6.513  0.5258  0.4990  0.1902
   71MOL   C24521385   5.527   6.794   6.563  0.0572  0.4576  0.0002
   71MOL   C24621386   5.562   6.848   6.690 -0.1930 -0.7739 -0.5132
   71MOL   C24721387   5.460   6.918   6.760  0.3536  0.6145  0.2742
   71MOL   C24821388   5.333   6.940   6.701  0.5233  0.1855  0.9568
   71MOL   N24921389   5.297   6.890   6.581  0.0212  0.9608  0.6496
   71MOL   H25021390   5.262   6.860   6.202  2.2669 -1.1093 -1.5502
   71MOL   H25121391   5.285   6.977   6.327 -1.9220 -1.5674 -0.3957
   71MOL   H25221392   5.442   6.728   6.326  0.5305  0.8417  0.6557
   71MOL   H25321393   5.595   6.740   6.499 -0.8868 -2.1865  1.1557
   71MOL   H25421394   5.660   6.832   6.732 -0.7864 -0.2663  1.0653
   71MOL   H25521395   5.472   6.951   6.862 -1.1915  3.7595 -0.4767
   71MOL   H25621396   5.255   6.984   6.761  1.4309  2.3689  0.5767
   71MOL   C25721397   5.259   6.650   6.368 -0.3213  0.1733 -0.4135
   71MOL   C25821398   5.115   6.674   6.433 -0.6296  0.4886  0.4733
   71MOL   C25921399   5.031   6.787   6.366 -0.6192 -0.0876  0.3622
   71MOL   C26021400   4.982   6.891   6.440 -0.8888  0.2063  0.1057
   71MOL   C26121401   4.905   6.989   6.377  0.0168 -0.5381 -0.5176
   71MOL   C26221402   4.865   6.964   6.245  0.4479 -0.1038 -0.6282
   71MOL   C26321403   4.914   6.854   6.174 -0.5364  0.2829 -0.0857
   71MOL   N26421404   4.997   6.768   6.237  0.6662  0.3534 -0.2490
   71MOL   H26521405   5.314   6.572   6.421 -0.3877  1.5357  1.7575
   71MOL   H26621406   5.240   6.614   6.267  0.9917  0.0386 -0.6166
   71MOL   H26721407   5.118   6.705   6.537 -1.5153 -0.8981  0.9138
   71MOL   H26821408   5.008   6.905   6.544 -0.2615 -0.5007  0.0524
   71MOL   H26921409   4.883   7.080   6.431 -0.8285 -1.0510  0.0176
   71MOL   H27021410   4.803   7.034   6.190  1.3095  1.3790  0.2556
   71MOL   H27121411   4.883   6.829   6.073 -3.1996  0.2941  0.6751
   71MOL   C27221412   5.040   6.541   6.426  0.3144  0.8693  0.1575
   71MOL   C27321413   4.893   6.545   6.461  0.1442  1.1981  0.5206
   71MOL   C27421414   4.823   6.416   6.423 -0.4221  0.0198  0.1970
   71MOL   C27521415   4.719   6.419   6.331 -0.3888 -0.0880  0.9368
   71MOL   C27621416   4.664   6.301   6.281 -0.1217  0.3846  0.7426
   71MOL   C27721417   4.702   6.175   6.339 -0.2640 -0.2264  0.0874
   71MOL   C27821418   4.790   6.180   6.446 -0.1271  0.4197  0.3413
   71MOL   N27921419   4.848   6.295   6.482 -0.4220  0.1778 -0.0969
   71MOL   H28021420   5.092   6.466   6.486 -0.5109  1.8029  2.0534
   71MOL   H28121421   5.033   6.513   6.320 -1.8060 -0.6554  0.6628
   71MOL   H28221422   4.852   6.618   6.392 -0.2226 -1.7001 -2.4593
   71MOL   H28321423   4.690   6.514   6.288  0.6478 -1.1937 -2.4132
   71MOL   H28421424   4.600   6.307   6.194  3.1503  0.1083 -1.7961
   71MOL   H28521425   4.656   6.083   6.309 -0.0699 -0.6714  1.1373
   71MOL   H28621426   4.824   6.089   6.491  0.2697  1.4170  2.1112
   71MOL   C28721427   4.877   6.598   6.609  0.3311 -0.0560 -0.2181
   71MOL   C28821428   4.729   6.618   6.653 -0.0355  0.2198  0.0256
   71MOL   C28921429   4.665   6.740   6.589  0.0426  0.4563  0.9716
   71MOL   C29021430   4.586   6.734   6.475  0.6974  0.2908 -0.2663
   71MOL   C29121431   4.519   6.851   6.440 -0.1876  0.0811  0.0813
   71MOL   C29221432   4.540   6.975   6.505 -0.2384  0.2993 -0.1839
   71MOL   C29321433   4.645   6.965   6.606  0.0535  0.1971 -0.7008
   71MOL   N29421434   4.694   6.853   6.647 -0.9976  0.3585  0.2557
   71MOL   H29521435   4.928   6.693   6.622  1.0926 -0.6751  1.4443
   71MOL   H29621436   4.920   6.521   6.673 -0.2645  0.1660  0.4536
   71MOL   H29721437   4.724   6.640   6.760  0.4751  0.2986  0.0347
   71MOL   H29821438   4.569   6.645   6.417 -1.0905  0.7217 -0.4412
   71MOL   H29921439   4.453   6.844   6.354  0.2234  1.7691 -0.3878
   71MOL   H30021440   4.512   7.068   6.459 -0.9700  0.8197  1.2648
   71MOL   H30121441   4.700   7.053   6.637  0.0353 -0.3164  0.8232
   71MOL   H30221442   4.664   6.539   6.617 -0.0422  0.1079  0.2768
   72MOL     C121443   2.832   0.397   1.689  0.5874 -0.0706  0.6738
   72MOL     C221444   2.799   0.248   1.675 -0.4160  0.0973  0.6578
   72MOL     C321445   2.915   0.178   1.614 -0.1165  0.2296 -1.0527
   72MOL     C421446   2.907   0.129   1.480 -0.6343  0.6275  0.3090
   72MOL     C521447   3.012   0.061   1.420 -1.0349 -0.0647 -0.4460
   72MOL     C621448   3.136   0.068   1.493  0.2900  0.4097 -0.1947
   72MOL     C721449   3.143   0.124   1.622  0.6782  0.0780 -0.3694
   72MOL     N821450   3.033   0.171   1.685  0.1422 -0.2963 -0.1947
   72MOL     H921451   2.862   0.441   1.594  1.2662 -1.5330  0.1998
   72MOL    H1021452   2.749   0.458   1.728 -0.1326 -1.4713  1.3506
   72MOL    H1121453   2.718   0.254   1.602 -0.4472 -0.4237  0.6508
   72MOL    H1221454   2.812   0.143   1.429 -0.1392 -3.0961 -1.8158
   72MOL    H1321455   3.007   0.012   1.324 -0.6444  0.2358 -0.6271
   72MOL    H1421456   3.215   0.013   1.444  0.1673  1.5037 -1.6441
   72MOL    H1521457   3.237   0.122   1.675 -0.1712  1.1633  1.2373
   72MOL    H1621458   2.910   0.412   1.763 -0.5836  0.6859  1.7873
   72MOL    C1721459   2.746   0.178   1.807  0.0277 -0.0251 -0.4747
   72MOL    C1821460   2.691   0.036   1.796 -0.0572  0.3267  0.5168
   72MOL    C1921461   2.562   0.018   1.722  0.1807 -0.4554  0.3929
   72MOL    C2021462   2.444   8.117   1.776  0.5361 -0.0462  0.5826
   72MOL    C2121463   2.328   8.096   1.694  0.4417 -0.1361  0.0430
   72MOL    C2221464   2.340   8.136   1.560  0.6616  0.1876 -0.0703
   72MOL    C2321465   2.460   0.036   1.513 -1.0012  0.5955  0.1920
   72MOL    N2421466   2.569   0.054   1.590  0.4967 -0.3725  0.1881
   72MOL    H2521467   2.663   0.234   1.850  0.2929 -1.0588  1.4559
   72MOL    H2621468   2.820   0.183   1.887  2.2235 -3.2098 -2.2040
   72MOL    H2721469   2.670   0.033   1.903  1.8065  3.1325  1.0218
   72MOL    H2821470   2.440   8.098   1.882 -0.4883 -0.5399  0.4577
   72MOL    H2921471   2.237   8.064   1.743 -1.6031  4.1258 -0.8327
   72MOL    H3021472   2.253   8.141   1.495 -0.4541 -2.9304  1.1257
   72MOL    H3121473   2.468   0.063   1.409 -1.5018 -0.2560 -0.0675
   72MOL    C3221474   2.799   8.076   1.770 -0.3556  0.0390  0.2970
   72MOL    C3321475   2.909   8.065   1.880 -0.3749  0.1849  0.7633
   72MOL    C3421476   2.854   8.018   2.015  0.2814 -0.3954 -0.2661
   72MOL    C3521477   2.840   8.099   2.130  0.4292  0.2565  0.0034
   72MOL    C3621478   2.781   8.049   2.247 -0.3960 -0.1072 -0.1639
   72MOL    C3721479   2.737   7.915   2.247 -0.1081  0.3176 -0.4428
   72MOL    C3821480   2.762   7.842   2.132  0.3144 -0.8155  0.8872
   72MOL    N3921481   2.820   7.889   2.020  0.6562 -0.9124 -0.4172
   72MOL    H4021482   2.846   8.079   1.671  0.1499 -1.6751  0.4698
   72MOL    H4121483   2.742   7.983   1.765 -0.0298 -0.1210 -0.4551
   72MOL    H4221484   2.939   0.015   1.906 -1.2816  1.0529 -1.5036
   72MOL    H4321485   2.871   0.048   2.106 -0.8895  0.7671  0.4441
   72MOL    H4421486   2.768   8.110   2.335 -3.2775  0.1073 -0.6718
   72MOL    H4521487   2.675   7.880   2.328  1.1460 -1.1840 -0.1091
   72MOL    H4621488   2.710   7.748   2.126  0.8907 -1.1166  0.4965
   72MOL    C4721489   3.035   7.990   1.825  0.7570  0.0732  0.2970
   72MOL    C4821490   3.154   7.982   1.923  0.9196 -0.3456  0.4240
   72MOL    C4921491   3.257   7.901   1.852 -0.0045 -0.2011 -0.2006
   72MOL    C5021492   3.286   7.764   1.878 -0.4916 -0.4818  0.4400
   72MOL    C5121493   3.393   7.695   1.815  0.0311 -0.0552  0.1114
   72MOL    C5221494   3.484   7.774   1.737  0.2842 -0.4256  0.1080
   72MOL    C5321495   3.447   7.909   1.714  0.1126 -0.0887 -0.8611
   72MOL    N5421496   3.334   7.967   1.762  0.9299  0.4888 -0.5011
   72MOL    H5521497   3.056   8.027   1.725 -0.7434 -1.7346 -0.7217
   72MOL    H5621498   2.999   7.890   1.799  0.4925  0.4636 -0.8398
   72MOL    H5721499   3.112   7.934   2.011 -0.3104  2.8191  1.6662
   72MOL    H5821500   3.237   7.713   1.960  0.8483  0.3100  1.7666
   72MOL    H5921501   3.421   7.598   1.853  0.4353 -0.3041 -0.8002
   72MOL    H6021502   3.571   7.722   1.701  2.8443  1.8652  2.7525
   72MOL    H6121503   3.499   7.983   1.655  1.6703 -0.5541 -0.1007
   72MOL    C6221504   3.201   8.117   1.975  0.2365 -0.1741 -0.3844
   72MOL    C6321505   3.205   8.136   2.128 -1.1467  0.3753  0.0895
   72MOL    C6421506   3.261   8.015   2.206  0.0623  0.1887  0.2240
   72MOL    C6521507   3.182   7.967   2.311 -0.3752  0.0071  0.4928
   72MOL    C6621508   3.224   7.855   2.383 -0.3906  0.5117  0.1488
   72MOL    C6721509   3.351   7.799   2.350  0.4393  0.8888  0.3076
   72MOL    C6821510   3.428   7.861   2.246 -0.4404  0.5015  0.0649
   72MOL    N6921511   3.384   7.966   2.177 -0.3044  0.6840  0.8190
   72MOL    H7021512   3.138   0.048   1.943 -0.9272  0.0451  2.3199
   72MOL    H7121513   3.301   8.139   1.936  0.1760 -2.4048 -1.8357
   72MOL    H7221514   3.102   0.005   2.157 -1.4064 -0.6031 -0.1045
   72MOL    H7321515   3.086   8.014   2.327 -1.2441 -1.0829 -1.3202
   72MOL    H7421516   3.158   7.813   2.457 -1.1091  1.4663  0.0652
   72MOL    H7521517   3.391   7.706   2.389 -0.8680  0.1274 -0.1349
   72MOL    H7621518   3.527   7.831   2.216 -1.3560  0.0284 -2.6058
   72MOL    C7721519   3.288   0.110   2.167 -0.1838 -0.1606 -0.4146
   72MOL    C7821520   3.250   0.248   2.104 -0.3608 -0.4691  0.1471
   72MOL    C7921521   3.105   0.291   2.139 -0.3859 -0.5015  0.4404
   72MOL    C8021522   3.009   0.310   2.046  0.2169  0.2596  0.2083
   72MOL    C8121523   2.887   0.363   2.079  0.5510 -0.0686  0.5790
   72MOL    C8221524   2.857   0.384   2.214  0.1996 -0.0507  0.1059
   72MOL    C8321525   2.961   0.363   2.303 -0.1296  0.0814 -0.8611
   72MOL    N8421526   3.080   0.308   2.268 -0.1223  0.1394 -0.5777
   72MOL    H8521527   3.394   0.089   2.155 -0.0758  0.3935 -0.4163
   72MOL    H8621528   3.268   0.128   2.273 -1.5877 -1.0953 -0.4986
   72MOL    H8721529   3.256   0.240   1.996  0.5861  0.4544  0.1208
   72MOL    H8821530   3.029   0.292   1.941  0.8548 -0.8772  0.5166
   72MOL    H8921531   2.807   0.394   2.012  0.4782  1.6150  1.4168
   72MOL    H9021532   2.759   0.423   2.234  0.1263  0.2212 -0.7562
   72MOL    H9121533   2.945   0.380   2.408 -0.0200 -0.2389 -0.7916
   72MOL    C9221534   3.335   0.364   2.156  0.3636  0.5035 -0.0560
   72MOL    C9321535   3.479   0.373   2.101 -0.3392  0.0271  0.9713
   72MOL    C9421536   3.482   0.331   1.951  0.2287 -0.3428  0.1548
   72MOL    C9521537   3.539   0.215   1.899 -0.4546 -0.0772  0.7056
   72MOL    C9621538   3.520   0.182   1.763  1.2541  0.2410 -0.2102
   72MOL    C9721539   3.454   0.282   1.685  0.3403 -1.0266  0.1100
   72MOL    C9821540   3.405   0.395   1.742  0.0646  0.2631 -0.1324
   72MOL    N9921541   3.416   0.422   1.874  0.1375  0.5472 -0.1392
   72MOL   H10021542   3.340   0.371   2.264 -0.4221 -0.7350  0.0791
   72MOL   H10121543   3.292   0.455   2.115 -0.9496 -0.3631 -0.6307
   72MOL   H10221544   3.525   0.294   2.161 -0.3893 -0.3540  0.5117
   72MOL   H10321545   3.578   0.151   1.978 -2.4685 -0.9023  1.0558
   72MOL   H10421546   3.549   0.089   1.716  1.5829 -0.6846  1.7761
   72MOL   H10521547   3.437   0.262   1.580 -3.7875  1.6569  0.1401
   72MOL   H10621548   3.361   0.472   1.679 -1.2021  0.5931  1.1188
   72MOL   C10721549   3.555   0.499   2.128  0.1971  0.2110 -0.5106
   72MOL   C10821550   3.693   0.509   2.072 -0.3666 -0.6262 -0.6257
   72MOL   C10921551   3.751   0.648   2.091 -0.2712 -0.1719 -0.0014
   72MOL   C11021552   3.711   0.739   2.193  0.3801 -0.4279 -0.4616
   72MOL   C11121553   3.773   0.864   2.196  0.1676  0.3162 -0.2341
   72MOL   C11221554   3.872   0.900   2.105  0.2830  0.4868 -0.7046
   72MOL   C11321555   3.909   0.802   2.012 -0.1050  0.1096  0.5093
   72MOL   N11421556   3.855   0.677   2.007  0.0094  0.2689 -0.3612
   72MOL   H11521557   3.560   0.511   2.236 -0.8036  1.2099 -0.5674
   72MOL   H11621558   3.483   0.579   2.112 -2.7866 -1.5988  2.9734
   72MOL   H11721559   3.676   0.509   1.964 -0.1452  1.3273 -0.6801
   72MOL   H11821560   3.637   0.715   2.268  0.2508  2.1419  0.2958
   72MOL   H11921561   3.732   0.929   2.272  0.7386  0.0454  0.3065
   72MOL   H12021562   3.935   0.987   2.106  1.2377 -0.1854 -1.4429
   72MOL   H12121563   3.986   0.823   1.939  0.0618 -0.4845  0.5165
   72MOL   C12221564   3.795   0.403   2.095  0.4336  0.1917 -0.6224
   72MOL   C12321565   3.861   0.390   2.236 -0.1432 -0.1102 -0.4785
   72MOL   C12421566   3.758   0.383   2.344 -0.0148  0.3857 -0.0980
   72MOL   C12521567   3.743   0.480   2.440  0.5147 -0.2447 -0.1591
   72MOL   C12621568   3.628   0.476   2.525  0.0209  0.0032 -0.0810
   72MOL   C12721569   3.546   0.361   2.514  0.3379  0.3396  0.2060
   72MOL   C12821570   3.587   0.254   2.430  0.3509 -0.1999 -0.5202
   72MOL   N12921571   3.691   0.265   2.350 -0.7186  0.9042 -0.2903
   72MOL   H13021572   3.876   0.416   2.023  1.5459  1.2544  0.7890
   72MOL   H13121573   3.765   0.306   2.053  3.3624 -0.8814 -0.3420
   72MOL   H13221574   3.916   0.481   2.257 -0.6185  0.3513 -1.2270
   72MOL   H13321575   3.814   0.561   2.448 -1.4083  1.5824 -1.0061
   72MOL   H13421576   3.594   0.560   2.585  1.0041 -0.5112  1.1987
   72MOL   H13521577   3.455   0.352   2.571 -0.5021  0.5892 -1.0896
   72MOL   H13621578   3.536   0.158   2.432  0.6678 -0.3579 -0.0101
   72MOL   C13721579   3.971   0.282   2.233  0.4736  0.0187  0.2690
   72MOL   C13821580   4.014   0.212   2.364 -0.1642 -0.2260 -0.2004
   72MOL   C13921581   4.084   0.073   2.340  0.2554 -0.3687 -0.2693
   72MOL   C14021582   4.026   8.103   2.385 -0.0995 -0.5051 -0.1015
   72MOL   C14121583   4.083   7.983   2.352  0.0381  0.3178  0.0769
   72MOL   C14221584   4.198   7.991   2.274  0.3264 -0.4277 -0.4482
   72MOL   C14321585   4.250   8.111   2.230  0.3625 -0.9289 -0.2752
   72MOL   N14421586   4.189   0.073   2.250  0.1050 -0.2567 -0.1819
   72MOL   H14521587   4.057   0.315   2.174 -0.6429  1.9676 -0.2991
   72MOL   H14621588   3.928   0.203   2.173 -0.3248  1.2322 -0.7766
   72MOL   H14721589   3.920   0.179   2.410  0.4498 -1.1934  0.3772
   72MOL   H14821590   3.934   8.101   2.441  0.2811  3.0721  0.7492
   72MOL   H14921591   4.053   7.882   2.376  2.2698 -0.6255 -0.9113
   72MOL   H15021592   4.258   7.907   2.244 -0.9543 -2.2029  1.8420
   72MOL   H15121593   4.330   8.108   2.157  0.7594  2.3229 -0.0506
   72MOL   C15221594   4.097   0.294   2.468 -0.0146 -0.1647 -0.3028
   72MOL   C15321595   4.036   0.317   2.611  0.4384  0.2058 -0.0591
   72MOL   C15421596   3.972   0.185   2.666  0.2359 -0.5429  0.5459
   72MOL   C15521597   3.834   0.173   2.675 -0.2319  0.0641 -0.3233
   72MOL   C15621598   3.776   0.052   2.706 -0.5000 -0.8804 -0.4320
   72MOL   C15721599   3.872   8.097   2.733 -0.5086  0.7350 -0.3280
   72MOL   C15821600   4.011   8.119   2.734  0.5319  0.4842 -0.7995
   72MOL   N15921601   4.056   0.084   2.696  0.1944  0.0351  0.2174
   72MOL   H16021602   4.103   0.393   2.422 -0.2608 -0.9888 -2.1939
   72MOL   H16121603   4.199   0.255   2.476  0.8753  2.2842  0.9806
   72MOL   H16221604   3.950   0.380   2.592  0.7304  0.5425 -0.2808
   72MOL   H16321605   3.783   0.262   2.641  0.8373  0.2688 -1.4393
   72MOL   H16421606   3.670   0.032   2.708 -0.6928  0.0463 -1.0496
   72MOL   H16521607   3.829   8.005   2.772  0.2153  1.0030  1.1314
   72MOL   H16621608   4.078   8.041   2.768  0.3521  0.2285 -1.0343
   72MOL   C16721609   4.138   0.389   2.712  0.3986  0.2107 -0.4740
   72MOL   C16821610   4.215   0.519   2.670  0.4201  0.2322  0.1719
   72MOL   C16921611   4.117   0.614   2.616  0.4831 -0.2993  0.4118
   72MOL   C17021612   4.116   0.655   2.482  0.1333  0.1811 -0.5028
   72MOL   C17121613   4.016   0.747   2.446  0.5082 -0.4623  0.5587
   72MOL   C17221614   3.920   0.794   2.540 -0.1008  0.0766 -0.2205
   72MOL   C17321615   3.934   0.752   2.668  0.1931 -0.5730 -0.3079
   72MOL   N17421616   4.037   0.674   2.708  0.2638 -0.0554 -0.0655
   72MOL   H17521617   4.214   0.318   2.743 -2.3185 -2.1085  1.1807
   72MOL   H17621618   4.073   0.419   2.794  3.1080  1.2130  1.3628
   72MOL   H17721619   4.280   0.482   2.591 -1.3340 -1.1783 -0.6548
   72MOL   H17821620   4.191   0.613   2.416  0.9082  2.2252 -0.9880
   72MOL   H17921621   4.010   0.780   2.343  1.6593 -3.2129 -0.4339
   72MOL   H18021622   3.846   0.868   2.512 -1.4712 -1.1807  0.0151
   72MOL   H18121623   3.871   0.790   2.747  1.3242 -1.6099  1.1106
   72MOL   C18221624   4.292   0.579   2.790  0.3179  0.1976  0.5113
   72MOL   C18321625   4.403   0.489   2.844 -0.4244  0.0932  0.4132
   72MOL   C18421626   4.542   0.559   2.831 -0.1040  0.0616 -0.1967
   72MOL   C18521627   4.649   0.495   2.772  0.1130  0.3431  0.2023
   72MOL   C18621628   4.769   0.565   2.742 -0.2810 -0.5276 -0.1397
   72MOL   C18721629   4.786   0.687   2.802 -0.0384 -0.1905  0.1532
   72MOL   C18821630   4.678   0.739   2.872 -0.1028  0.5429  0.0543
   72MOL   N18921631   4.557   0.683   2.884  0.6560 -0.0575 -0.3567
   72MOL   H19021632   4.217   0.591   2.868 -0.6091  1.1482 -0.5099
   72MOL   H19121633   4.329   0.678   2.764 -1.2217  1.6353  3.5298
   72MOL   H19221634   4.406   0.397   2.786 -0.8203  0.3736 -0.0538
   72MOL   H19321635   4.627   0.394   2.741 -2.2661  0.8690  0.0235
   72MOL   H19421636   4.848   0.518   2.687  0.9325  2.9504 -1.4983
   72MOL   H19521637   4.878   0.744   2.800  0.8771 -1.6283  0.7608
   72MOL   H19621638   4.683   0.839   2.913 -0.9341  0.6808 -0.1727
   72MOL   C19721639   4.377   0.452   2.994  0.0658 -0.2296 -0.8363
   72MOL   C19821640   4.316   0.317   3.025 -0.1193 -0.6267  0.2552
   72MOL   C19921641   4.402   0.204   2.967 -0.2857  0.9866 -0.1637
   72MOL   C20021642   4.350   0.116   2.869  0.4609 -0.0234 -0.2215
   72MOL   C20121643   4.431   0.014   2.827  0.0030  0.5204  0.3167
   72MOL   C20221644   4.563   8.150   2.873 -0.4012 -0.0692 -0.0601
   72MOL   C20321645   4.609   0.092   2.966 -0.5946  0.5207  0.1491
   72MOL   N20421646   4.531   0.190   3.012 -0.1386 -0.0980 -0.7339
   72MOL   H20521647   4.333   0.537   3.047  0.6411 -0.0772 -0.5950
   72MOL   H20621648   4.475   0.455   3.042  1.4989  1.2225 -3.7295
   72MOL   H20721649   4.226   0.318   2.964  1.1824 -1.8590 -1.7579
   72MOL   H20821650   4.251   0.132   2.831 -0.3548 -1.6563  1.1640
   72MOL   H20921651   4.405   8.093   2.751  1.8829 -0.7542  0.8468
   72MOL   H21021652   4.615   8.062   2.838  0.1392 -0.3175  1.3536
   72MOL   H21121653   4.713   0.090   2.993 -0.6730 -0.5778  0.4122
   72MOL   C21221654   4.298   0.295   3.181 -0.2753  0.2167  0.0990
   72MOL   C21321655   4.177   0.386   3.240  0.5372 -0.4292  0.7546
   72MOL   C21421656   4.053   0.379   3.149 -0.0709 -0.6278 -0.0502
   72MOL   C21521657   4.020   0.490   3.071  0.1945 -0.5497  0.5470
   72MOL   C21621658   3.913   0.477   2.979  0.0923  0.7411  0.4548
   72MOL   C21721659   3.863   0.344   2.959 -0.4892 -0.1113  0.4505
   72MOL   C21821660   3.914   0.240   3.031 -0.1086 -0.0940  0.3951
   72MOL   N21921661   4.007   0.255   3.132  0.0517  0.0827 -0.6110
   72MOL   H22021662   4.394   0.328   3.219 -0.4761  1.2129 -0.2316
   72MOL   H22121663   4.286   0.189   3.204 -1.4796  0.8605  2.6818
   72MOL   H22221664   4.222   0.486   3.236  0.1892 -0.3292 -1.0450
   72MOL   H22321665   4.056   0.591   3.085 -1.3445  0.3247 -1.4809
   72MOL   H22421666   3.873   0.565   2.932  1.0369  0.7416 -0.3550
   72MOL   H22521667   3.783   0.333   2.888  0.3809 -1.2270 -0.3880
   72MOL   H22621668   3.860   0.149   3.010 -1.5898  0.3751  2.0805
   72MOL   C22721669   4.141   0.366   3.384  0.3291 -0.3754 -0.0940
   72MOL   C22821670   4.252   0.375   3.495 -0.5369 -0.3210 -1.2164
   72MOL   C22921671   4.327   0.499   3.467 -0.5256 -0.1766 -0.4856
   72MOL   C23021672   4.469   0.506   3.451 -0.3870  0.2382 -0.1869
   72MOL   C23121673   4.523   0.631   3.439 -1.0936 -0.2109  0.0596
   72MOL   C23221674   4.452   0.746   3.438 -0.5984  0.7427 -0.4253
   72MOL   C23321675   4.309   0.731   3.439 -0.4442 -0.4523  0.6415
   72MOL   N23421676   4.252   0.609   3.456 -0.7678  0.2971  0.1702
   72MOL   H23521677   4.108   0.262   3.383 -1.5421  0.2148 -0.9562
   72MOL   H23621678   4.056   0.431   3.408 -0.7819 -0.8699 -2.5302
   72MOL   H23721679   4.314   0.291   3.464 -2.5825 -1.3734 -2.5609
   72MOL   H23821680   4.533   0.423   3.478  0.7172  1.1958  0.1627
   72MOL   H23921681   4.631   0.634   3.444 -1.0028 -0.5634 -1.3770
   72MOL   H24021682   4.496   0.843   3.421 -0.7399  1.0540  0.9287
   72MOL   H24121683   4.238   0.812   3.430  1.2089  1.0935  1.2439
   72MOL   C24221684   4.183   0.383   3.637  0.4061 -0.2830 -0.7985
   72MOL   C24321685   4.271   0.338   3.759  0.1110 -0.2770 -0.2136
   72MOL   C24421686   4.243   0.425   3.881 -0.1716  0.1625  0.0423
   72MOL   C24521687   4.333   0.523   3.928 -0.1039 -0.9677  0.0569
   72MOL   C24621688   4.285   0.599   4.032 -0.4188  0.1724  0.4022
   72MOL   C24721689   4.153   0.580   4.090 -0.0598 -0.9102 -0.1551
   72MOL   C24821690   4.068   0.497   4.024  0.1579 -0.0765 -0.2417
   72MOL   N24921691   4.112   0.414   3.925 -0.2068 -0.0741  0.4198
   72MOL   H25021692   4.094   0.322   3.632  1.4983 -1.9694 -0.0594
   72MOL   H25121693   4.154   0.487   3.653 -0.2759 -0.6998  0.7533
   72MOL   H25221694   4.377   0.360   3.744 -0.5489  2.0372 -1.7218
   72MOL   H25321695   4.432   0.540   3.889 -0.6269 -0.1173 -0.9056
   72MOL   H25421696   4.353   0.672   4.073  1.8243 -3.2450  2.9936
   72MOL   H25521697   4.108   0.645   4.164  1.8705 -0.8066  0.9656
   72MOL   H25621698   3.969   0.483   4.067 -0.4357 -5.6436 -2.9770
   72MOL   C25721699   4.276   0.187   3.787  0.0859 -0.2015 -0.4416
   72MOL   C25821700   4.288   0.088   3.671  0.3332 -0.6919 -0.8728
   72MOL   C25921701   4.415   0.093   3.592  0.0388  0.3881  0.9654
   72MOL   C26021702   4.420   0.056   3.452 -0.5731 -0.2084 -0.3582
   72MOL   C26121703   4.545   0.053   3.386 -0.0983 -0.1050 -0.6003
   72MOL   C26221704   4.657   0.087   3.460  0.4331  0.0977  0.0851
   72MOL   C26321705   4.641   0.112   3.595  0.0800 -0.1252  0.1589
   72MOL   N26421706   4.526   0.114   3.663 -0.5515  0.5127 -0.4125
   72MOL   H26521707   4.184   0.167   3.842  0.3898 -1.3018 -0.3236
   72MOL   H26621708   4.356   0.179   3.861  0.8144 -2.9335 -1.4843
   72MOL   H26721709   4.199   0.106   3.611 -0.0731  0.5237  0.1003
   72MOL   H26821710   4.337   0.027   3.390 -1.2238  1.1683 -0.1546
   72MOL   H26921711   4.545   0.016   3.284 -1.8348  0.9077 -0.9843
   72MOL   H27021712   4.757   0.080   3.420 -0.4762  0.3429 -2.3221
   72MOL   H27121713   4.725   0.131   3.660  0.2012  1.3192 -0.3892
   72MOL   C27221714   4.267   8.096   3.727  0.4205  0.2988 -0.7698
   72MOL   C27321715   4.247   7.985   3.631 -0.3951 -0.0499  0.8526
   72MOL   C27421716   4.269   7.852   3.699  0.5234 -0.2425  0.2148
   72MOL   C27521717   4.386   7.771   3.683  0.2256  0.7211  0.4215
   72MOL   C27621718   4.397   7.646   3.755  0.5063  0.5794  1.0797
   72MOL   C27721719   4.281   7.606   3.819 -0.4257  0.4143  0.6397
   72MOL   C27821720   4.176   7.691   3.840 -0.3728  0.2497  0.1732
   72MOL   N27921721   4.169   7.811   3.782  0.7252  0.1940  0.3905
   72MOL   H28021722   4.175   8.103   3.785  1.4476 -1.2320  1.0998
   72MOL   H28121723   4.353   8.068   3.788  0.5400 -0.8534 -1.4392
   72MOL   H28221724   4.329   7.984   3.559  1.4661  2.1954  2.8527
   72MOL   H28321725   4.461   7.799   3.612 -0.2629  0.4735 -0.1949
   72MOL   H28421726   4.478   7.579   3.729 -0.4468  0.0806 -0.7362
   72MOL   H28521727   4.275   7.510   3.868 -0.3368 -0.5854 -1.2843
   72MOL   H28621728   4.100   7.675   3.915  0.2394 -1.0232  0.5441
   72MOL   C28721729   4.112   7.996   3.548 -0.9500 -0.4530 -0.0076
   72MOL   C28821730   4.069   7.888   3.439 -0.4173 -0.0864 -0.6250
   72MOL   C28921731   4.155   7.896   3.320 -0.3366  0.1843 -0.4801
   72MOL   C29021732   4.261   7.806   3.301  0.2388 -0.2205  0.1224
   72MOL   C29121733   4.352   7.829   3.201 -0.2142  0.2288 -0.0580
   72MOL   C29221734   4.334   7.943   3.121 -0.3890 -0.4070 -0.7196
   72MOL   C29321735   4.221   8.025   3.143  0.2525  0.6582 -0.1247
   72MOL   N29421736   4.133   8.002   3.241 -0.4452 -0.3497  0.0880
   72MOL   H29521737   4.119   8.092   3.497 -0.4584 -1.1892 -1.3444
   72MOL   H29621738   4.029   8.012   3.617 -0.0060 -0.3117  1.1006
   72MOL   H29721739   3.967   7.908   3.408 -0.1605 -2.0539 -2.8336
   72MOL   H29821740   4.265   7.720   3.365  1.6068 -1.0961 -1.1091
   72MOL   H29921741   4.432   7.762   3.174 -0.5316 -0.0679 -0.2664
   72MOL   H30021742   4.403   7.962   3.039  1.6108 -0.5107  0.8876
   72MOL   H30121743   4.189   8.107   3.080 -0.1480  0.0655 -0.7026
   72MOL   H30221744   4.077   7.785   3.474  1.3422  0.6721  1.3550
   73MOL     C121745   7.890   4.305   3.879  0.6515 -0.4248  0.7113
   73MOL     C221746   7.777   4.296   3.983 -0.2606 -0.9287  0.0658
   73MOL     C321747   7.656   4.397   3.952  0.1396  0.3487  0.0269
   73MOL     C421748   7.659   4.525   4.016  0.6247 -0.1129 -0.9722
   73MOL     C521749   7.546   4.611   3.989  0.1020  0.0746 -0.3386
   73MOL     C621750   7.446   4.566   3.909 -0.2500  0.0897  0.4446
   73MOL     C721751   7.451   4.440   3.852 -0.0413  1.0836  0.3090
   73MOL     N821752   7.559   4.358   3.867  0.3417 -0.1128  0.0382
   73MOL     H921753   7.953   4.392   3.898  1.8037 -1.0154 -0.3035
   73MOL    H1021754   7.943   4.209   3.870  1.7236  0.3418 -1.8588
   73MOL    H1121755   7.832   4.325   4.073 -1.0302 -0.4597  0.3876
   73MOL    H1221756   7.737   4.547   4.087  0.8460  0.5935 -1.4368
   73MOL    H1321757   7.539   4.714   4.020 -1.6165 -0.6568  1.8409
   73MOL    H1421758   7.372   4.637   3.877  2.0362  2.3215 -0.1010
   73MOL    H1521759   7.358   4.404   3.810 -0.7385  2.0348  1.0154
   73MOL    H1621760   7.847   4.323   3.780  2.6625  1.1569  0.0802
   73MOL    C1721761   7.722   4.150   4.003 -0.1313 -0.0105  0.7634
   73MOL    C1821762   7.824   4.041   4.040  0.1389 -0.6772  0.0690
   73MOL    C1921763   7.926   4.094   4.141 -0.0610  0.3674 -0.7482
   73MOL    C2021764   8.057   4.138   4.111  0.3026  0.8646  0.0278
   73MOL    C2121765   8.133   4.199   4.210  0.6217 -0.5034  0.4989
   73MOL    C2221766   8.079   4.213   4.340 -0.2141  0.4103 -0.7010
   73MOL    C2321767   7.950   4.155   4.366  0.1675  0.2813  0.3878
   73MOL    N2421768   7.877   4.104   4.267  0.1680  0.2385  0.6782
   73MOL    H2521769   7.666   4.114   3.917  2.8993 -3.0178 -0.0582
   73MOL    H2621770   7.648   4.151   4.084  1.1198 -0.0813  1.9238
   73MOL    H2721771   7.883   3.983   3.969  1.5100  0.8402 -0.0291
   73MOL    H2821772   8.103   4.126   4.014  0.9446 -0.5977  0.5066
   73MOL    H2921773   0.083   4.229   4.189  0.9778 -2.3355 -0.5722
   73MOL    H3021774   8.124   4.270   4.420 -2.7791 -0.5352  1.5208
   73MOL    H3121775   7.896   4.161   4.459 -1.6936  5.0352 -0.8379
   73MOL    C3221776   7.751   3.921   4.102 -0.0240  0.0580 -0.1096
   73MOL    C3321777   7.643   3.840   4.016 -0.2135 -0.3309 -0.6126
   73MOL    C3421778   7.708   3.706   3.965  0.1914  0.3265  0.4323
   73MOL    C3521779   7.733   3.687   3.828  0.5763  0.4350 -0.1142
   73MOL    C3621780   7.798   3.564   3.801  0.0629  0.3886 -0.0081
   73MOL    C3721781   7.824   3.469   3.898 -0.6094 -0.1800  0.3715
   73MOL    C3821782   7.804   3.502   4.030  0.8357 -0.2591  0.0234
   73MOL    N3921783   7.740   3.619   4.058  0.5227  1.0171 -0.3200
   73MOL    H4021784   7.693   3.958   4.186  2.7073  1.8252  1.0691
   73MOL    H4121785   7.831   3.863   4.147 -0.9481 -1.7677 -0.7642
   73MOL    H4221786   7.614   3.900   3.930  0.2287  1.4912  0.4857
   73MOL    H4321787   7.699   3.755   3.752 -3.0198 -1.5120 -0.3927
   73MOL    H4421788   7.821   3.537   3.699  2.4679  0.4230  0.4983
   73MOL    H4521789   7.872   3.376   3.870 -1.9920 -0.1000 -2.5279
   73MOL    H4621790   7.827   3.437   4.113 -2.2746  1.0058  1.9734
   73MOL    C4721791   7.522   3.810   4.105 -0.6777 -0.3327 -0.2480
   73MOL    C4821792   7.414   3.915   4.083 -0.5160  0.4320  0.0222
   73MOL    C4921793   7.358   3.908   3.942  0.0290  0.7463  0.4139
   73MOL    C5021794   7.381   4.008   3.844 -0.8954 -0.1012  0.3674
   73MOL    C5121795   7.330   3.982   3.712 -0.0415  0.0164 -0.3115
   73MOL    C5221796   7.237   3.879   3.687 -0.4885  0.5281 -0.0983
   73MOL    C5321797   7.224   3.782   3.786 -0.2328 -0.0414 -0.8120
   73MOL    N5421798   7.281   3.798   3.910 -0.4097  0.0066  0.5447
   73MOL    H5521799   7.547   3.802   4.211 -0.8928  0.8194 -0.1053
   73MOL    H5621800   7.494   3.707   4.081  0.8921 -0.7897 -0.2397
   73MOL    H5721801   7.451   4.017   4.092 -1.1613  1.0561 -3.6571
   73MOL    H5821802   7.441   4.096   3.860 -1.4780  0.2416  0.6644
   73MOL    H5921803   7.343   4.055   3.634  1.2035 -0.5643 -0.6582
   73MOL    H6021804   7.206   3.862   3.585 -1.4797 -1.4131  0.5058
   73MOL    H6121805   7.176   3.686   3.774  0.2919 -0.4829  0.6055
   73MOL    C6221806   7.299   3.906   4.187  0.2998  0.2064  0.1261
   73MOL    C6321807   7.335   3.970   4.326 -0.2113  0.4421 -0.0061
   73MOL    C6421808   7.382   4.109   4.309  0.7567  0.3555 -0.2516
   73MOL    C6521809   7.522   4.142   4.324  0.3996 -0.3070  0.3513
   73MOL    C6621810   7.563   4.266   4.285  0.8762  0.6864 -0.0860
   73MOL    C6721811   7.467   4.363   4.252  0.5963 -0.1449 -0.3361
   73MOL    C6821812   7.331   4.325   4.243 -0.2728 -0.3096  0.0186
   73MOL    N6921813   7.293   4.197   4.263  0.7257  0.1355  0.7224
   73MOL    H7021814   7.261   3.804   4.181  1.2312 -0.0339 -2.5344
   73MOL    H7121815   7.217   3.964   4.145 -0.3550  0.2551  1.4289
   73MOL    H7221816   7.416   3.911   4.368 -1.8147 -1.4881  0.4573
   73MOL    H7321817   7.595   4.068   4.353  0.4001  0.4575  2.3567
   73MOL    H7421818   7.668   4.290   4.281  0.8486  1.1581  1.5900
   73MOL    H7521819   7.493   4.465   4.229  1.8085 -0.6318 -1.1257
   73MOL    H7621820   7.253   4.389   4.205 -0.2428 -1.1745 -1.5651
   73MOL    C7721821   7.225   3.949   4.435  0.3561 -0.2706 -1.1106
   73MOL    C7821822   7.199   3.802   4.483 -0.0365 -0.9975 -0.3464
   73MOL    C7921823   7.328   3.746   4.527  0.2140 -0.5822 -0.8557
   73MOL    C8021824   7.389   3.637   4.464 -0.5316 -0.2222  0.3577
   73MOL    C8121825   7.500   3.569   4.516 -0.2859  0.0656 -0.2645
   73MOL    C8221826   7.559   3.629   4.636  0.9199  0.2948 -0.1483
   73MOL    C8321827   7.494   3.745   4.691 -0.1519  0.3250 -0.5458
   73MOL    N8421828   7.382   3.800   4.636  0.5944 -0.5114  0.7516
   73MOL    H8521829   7.128   3.987   4.402 -0.1042 -0.2730  0.2315
   73MOL    H8621830   7.248   3.999   4.529 -3.1956  1.0016 -0.8407
   73MOL    H8721831   7.174   3.746   4.393 -1.7411 -0.8234 -0.0012
   73MOL    H8821832   7.354   3.602   4.368 -1.3048  2.5972 -0.4335
   73MOL    H8921833   7.548   3.497   4.452 -0.5891  1.3003 -1.9070
   73MOL    H9021834   7.654   3.604   4.681  1.1572 -1.2948 -1.5204
   73MOL    H9121835   7.527   3.800   4.778 -0.3142  0.9964 -0.9099
   73MOL    C9221836   7.089   3.787   4.588 -0.2105 -0.9810  0.2213
   73MOL    C9321837   7.054   3.654   4.659  0.0564  0.4338 -0.4984
   73MOL    C9421838   6.954   3.658   4.776  0.3684 -0.8867  0.0536
   73MOL    C9521839   6.961   3.580   4.892 -0.1826  0.4885  0.1169
   73MOL    C9621840   6.856   3.605   4.988  0.2813 -0.1726  0.3548
   73MOL    C9721841   6.759   3.703   4.963 -0.0175  0.1059  0.0766
   73MOL    C9821842   6.760   3.775   4.846  0.7673  1.1443 -0.2135
   73MOL    N9921843   6.852   3.748   4.752  0.1356 -0.4880 -0.4210
   73MOL   H10021844   6.999   3.824   4.538 -0.5155  1.3143  2.3569
   73MOL   H10121845   7.099   3.864   4.663 -0.1286 -0.0888 -0.6947
   73MOL   H10221846   7.143   3.607   4.700 -0.9299 -0.9660  0.1257
   73MOL   H10321847   7.037   3.511   4.927  0.3664  1.0625  0.0750
   73MOL   H10421848   6.851   3.556   5.084 -0.0010 -0.0047  0.4268
   73MOL   H10521849   6.680   3.721   5.035 -2.1218  0.0067 -2.1741
   73MOL   H10621850   6.700   3.864   4.833 -0.4351  0.6014  1.4990
   73MOL   C10721851   7.011   3.547   4.554 -0.4715 -0.2903 -0.8923
   73MOL   C10821852   7.010   3.401   4.602 -0.1132 -0.3628 -0.7232
   73MOL   C10921853   6.937   3.328   4.499 -0.2014 -0.4645  0.1682
   73MOL   C11021854   6.790   3.326   4.511 -0.6233  0.6387  0.0238
   73MOL   C11121855   6.718   3.274   4.405 -0.0883 -0.5333 -0.1003
   73MOL   C11221856   6.787   3.245   4.287  0.3583  0.0561  0.2283
   73MOL   C11321857   6.926   3.241   4.292 -0.0733 -0.1319 -0.1652
   73MOL   N11421858   7.003   3.296   4.390 -0.0169 -0.2140 -0.3542
   73MOL   H11521859   7.071   3.546   4.463 -0.2234  2.8927 -0.8136
   73MOL   H11621860   6.910   3.566   4.518 -0.5610 -1.0335 -1.0320
   73MOL   H11721861   6.949   3.403   4.692 -0.1003  1.9715 -0.7416
   73MOL   H11821862   6.738   3.373   4.594 -3.4213 -0.9074 -0.7904
   73MOL   H11921863   6.612   3.287   4.387  0.0603 -0.6254 -1.0958
   73MOL   H12021864   6.736   3.224   4.195  0.3249 -1.9190  0.6918
   73MOL   H12121865   6.988   3.228   4.204  0.5245 -0.8497  0.3578
   73MOL   C12221866   7.155   3.349   4.634 -0.4793 -0.0076 -0.2165
   73MOL   C12321867   7.192   3.202   4.629  0.2076 -0.1877  0.6392
   73MOL   C12421868   7.343   3.187   4.611  0.4368 -0.2669 -0.1253
   73MOL   C12521869   7.382   3.122   4.492  0.4759  0.6406  0.7624
   73MOL   C12621870   7.514   3.088   4.467  0.1268  0.2740  0.4268
   73MOL   C12721871   7.610   3.135   4.560 -0.2618  0.5497  0.0511
   73MOL   C12821872   7.563   3.202   4.675  0.6426 -0.2356 -0.1881
   73MOL   N12921873   7.431   3.231   4.705 -0.0929  0.0702  0.0842
   73MOL   H13021874   7.168   3.384   4.737 -2.0192 -1.9738  0.6756
   73MOL   H13121875   7.224   3.398   4.565  0.0202  0.1682  0.3998
   73MOL   H13221876   7.147   3.163   4.538  0.1022  0.4211  0.4287
   73MOL   H13321877   7.306   3.084   4.426  2.2921  0.0927 -1.0804
   73MOL   H13421878   7.543   3.035   4.377 -2.1956 -1.6412  0.7354
   73MOL   H13521879   7.714   3.110   4.546 -0.1945  1.3489 -0.9478
   73MOL   H13621880   7.629   3.240   4.752 -0.6893  0.7594  0.4770
   73MOL   C13721881   7.126   3.117   4.739  0.5663  0.5336 -0.9941
   73MOL   C13821882   7.191   2.979   4.758  0.3779 -0.2048  0.3056
   73MOL   C13921883   7.149   2.907   4.891 -0.4516 -0.1222  0.3286
   73MOL   C14021884   7.239   2.911   4.999 -0.2563  0.2162  1.0826
   73MOL   C14121885   7.195   2.864   5.122 -0.2311  0.6218 -0.3321
   73MOL   C14221886   7.074   2.796   5.127  0.4554 -0.5761 -0.0723
   73MOL   C14321887   7.000   2.793   5.010 -0.0649 -0.5051  0.2551
   73MOL   N14421888   7.027   2.850   4.895 -0.3570 -0.3610  0.5490
   73MOL   H14521889   7.020   3.107   4.715  0.6331 -2.8448 -0.1665
   73MOL   H14621890   7.145   3.167   4.834 -1.4248  0.9182 -0.7840
   73MOL   H14721891   7.298   2.997   4.767  0.3059  0.5646 -0.2940
   73MOL   H14821892   7.334   2.959   4.980  0.2336 -0.3682  2.0170
   73MOL   H14921893   7.258   2.876   5.209  0.6333 -1.3790 -0.6685
   73MOL   H15021894   7.055   2.747   5.221  0.7798 -0.3707  0.1001
   73MOL   H15121895   6.904   2.743   5.019 -0.6708  0.5247 -0.4237
   73MOL   C15221896   7.170   2.888   4.634  0.3193  0.5691  1.1216
   73MOL   C15321897   7.241   2.752   4.614  0.6056  0.4562 -0.3247
   73MOL   C15421898   7.216   2.690   4.483  0.1160  0.0480 -0.0239
   73MOL   C15521899   7.167   2.558   4.474  0.3641 -0.5602  0.2235
   73MOL   C15621900   7.147   2.502   4.349  0.5867 -0.5886 -0.5070
   73MOL   C15721901   7.166   2.582   4.233  0.3591 -0.5946 -1.1108
   73MOL   C15821902   7.227   2.711   4.244  0.7440 -0.7569 -0.2116
   73MOL   N15921903   7.243   2.761   4.368  0.3822  0.1838  1.1121
   73MOL   H16021904   7.201   2.942   4.544  1.9949 -0.0436  1.3136
   73MOL   H16121905   7.063   2.888   4.613  0.5077 -1.0112  0.0879
   73MOL   H16221906   7.187   2.698   4.692  1.7217  3.4190  2.6121
   73MOL   H16321907   7.133   2.507   4.563 -1.1377 -0.3723 -0.2201
   73MOL   H16421908   7.095   2.407   4.341  0.2671 -0.3047 -1.9542
   73MOL   H16521909   7.135   2.538   4.139  0.1909 -1.5884 -0.6066
   73MOL   H16621910   7.267   2.754   4.153 -1.1808 -0.4011 -0.9188
   73MOL   C16721911   7.394   2.773   4.648  0.3065 -0.5878 -0.3540
   73MOL   C16821912   7.503   2.676   4.593  0.4032  0.1027 -0.2318
   73MOL   C16921913   7.637   2.742   4.605 -0.2130  0.1004  0.5129
   73MOL   C17021914   7.715   2.743   4.488 -0.1320 -0.3894  0.6752
   73MOL   C17121915   7.849   2.780   4.499  0.5529 -0.2160 -0.0433
   73MOL   C17221916   7.901   2.820   4.622 -0.1053 -0.0760 -0.2406
   73MOL   C17321917   7.814   2.812   4.733  0.6879  0.3630  0.1386
   73MOL   N17421918   7.685   2.774   4.726  0.9054 -0.0705 -0.1062
   73MOL   H17521919   7.411   2.797   4.753  0.8321  0.2389 -0.6240
   73MOL   H17621920   7.415   2.868   4.598 -1.1051  0.8691  1.7290
   73MOL   H17721921   7.486   2.660   4.487 -1.4035  1.4634 -0.1839
   73MOL   H17821922   7.682   2.707   4.391 -1.0997  0.5480  0.6473
   73MOL   H17921923   7.906   2.760   4.409 -0.2244 -0.4203 -0.4938
   73MOL   H18021924   8.004   2.854   4.620 -0.1356 -0.0298 -0.8778
   73MOL   H18121925   7.849   2.848   4.828 -0.0642  0.4669  0.3801
   73MOL   C18221926   7.504   2.533   4.654  0.4471  0.0906 -0.0515
   73MOL   C18321927   7.601   2.427   4.603  0.0181 -0.2061 -1.0034
   73MOL   C18421928   7.653   2.344   4.718 -0.2075 -0.3538 -0.3737
   73MOL   C18521929   7.777   2.362   4.777  0.2872 -0.1357 -0.2705
   73MOL   C18621930   7.805   2.294   4.898  0.4131 -0.4837 -0.3629
   73MOL   C18721931   7.715   2.209   4.946  0.1462 -0.2126 -0.2868
   73MOL   C18821932   7.599   2.189   4.872 -0.3405 -0.1350  0.2419
   73MOL   N18921933   7.562   2.256   4.764  0.1181  0.2200 -0.3596
   73MOL   H19021934   7.402   2.494   4.650  0.6051 -0.3728  0.3002
   73MOL   H19121935   7.514   2.539   4.763  0.3677 -2.1177  0.1197
   73MOL   H19221936   7.687   2.477   4.560  0.2793  0.4571  0.2687
   73MOL   H19321937   7.842   2.437   4.735  1.3285 -1.0821 -0.3733
   73MOL   H19421938   7.893   2.309   4.960 -0.4164 -2.2760  1.3135
   73MOL   H19521939   7.727   2.158   5.040 -0.1885  1.5288  0.7172
   73MOL   H19621940   7.527   2.112   4.895  0.7024 -1.4672 -0.8456
   73MOL   C19721941   7.541   2.344   4.476 -0.6021 -0.1996 -0.2391
   73MOL   C19821942   7.626   2.231   4.419  0.0387 -0.0744 -0.1631
   73MOL   C19921943   7.596   2.101   4.488 -0.0772  0.2281 -0.1520
   73MOL   C20021944   7.690   2.035   4.573 -0.0206 -0.5428  0.0598
   73MOL   C20121945   7.650   1.919   4.639 -0.0213  0.2712 -0.5201
   73MOL   C20221946   7.521   1.865   4.615  0.7977  0.1122  0.3297
   73MOL   C20321947   7.437   1.934   4.526  0.1249 -0.2726  0.3311
   73MOL   N20421948   7.467   2.055   4.476 -0.4092  0.5890  0.8106
   73MOL   H20521949   7.524   2.422   4.401 -0.0686  0.2242  0.0725
   73MOL   H20621950   7.445   2.305   4.505 -1.4829  0.4667 -2.1286
   73MOL   H20721951   7.727   2.270   4.429 -0.5484  1.2843  0.4788
   73MOL   H20821952   7.788   2.080   4.582  0.5184 -1.4840 -1.0714
   73MOL   H20921953   7.710   1.869   4.713 -0.2644  0.7606  0.0093
   73MOL   H21021954   7.480   1.775   4.658 -1.2996  0.1227 -1.5629
   73MOL   H21121955   7.335   1.904   4.505  0.7825 -0.2029 -3.3549
   73MOL   C21221956   7.616   2.215   4.263  0.1426  0.0192  0.8014
   73MOL   C21321957   7.639   2.065   4.197 -0.1938  0.1664  0.5467
   73MOL   C21421958   7.588   2.052   4.055  0.3632 -0.0831  0.6758
   73MOL   C21521959   7.468   1.979   4.024  0.2951  0.0036 -0.4517
   73MOL   C21621960   7.436   1.942   3.890 -0.2157  0.1530 -0.7836
   73MOL   C21721961   7.523   1.986   3.789  0.3880  0.5111  0.4144
   73MOL   C21821962   7.628   2.073   3.828 -0.4281  0.2874  1.1284
   73MOL   N21921963   7.670   2.094   3.959  0.1737 -0.3127  0.9251
   73MOL   H22021964   7.662   2.299   4.210 -0.0307 -0.5301 -0.2305
   73MOL   H22121965   7.513   2.243   4.239 -0.3529 -0.3202  2.5187
   73MOL   H22221966   7.580   1.984   4.242  1.3863 -1.7704 -0.7897
   73MOL   H22321967   7.410   1.942   4.107 -0.6115  2.4950  0.0617
   73MOL   H22421968   7.354   1.875   3.870  1.0639 -1.9513  0.7254
   73MOL   H22521969   7.490   1.951   3.692  2.3884  1.6946 -0.7406
   73MOL   H22621970   7.696   2.122   3.760  2.8073 -1.4454  2.9596
   73MOL   C22721971   7.787   2.021   4.206  0.0005  0.4735 -0.0258
   73MOL   C22821972   7.833   1.874   4.171 -0.1034 -0.5672  0.0848
   73MOL   C22921973   7.750   1.770   4.239 -0.4325  0.3502 -0.6009
   73MOL   C23021974   7.776   1.738   4.371 -0.2133  0.0984 -0.5287
   73MOL   C23121975   7.695   1.640   4.432 -0.1896  0.1982 -0.1337
   73MOL   C23221976   7.587   1.589   4.360  0.2575  0.0050  0.0312
   73MOL   C23321977   7.570   1.624   4.225  0.0299  0.0677  0.1750
   73MOL   N23421978   7.651   1.717   4.168  0.1762 -0.3979 -0.2747
   73MOL   H23521979   7.817   2.045   4.308  0.3784 -1.4963  0.3446
   73MOL   H23621980   7.847   2.081   4.137 -0.4757 -0.4300 -1.2517
   73MOL   H23721981   7.929   1.870   4.222 -0.5383 -0.4204  0.9216
   73MOL   H23821982   7.862   1.770   4.428 -0.9169 -1.1678  1.3130
   73MOL   H23921983   7.716   1.604   4.531  0.1688  1.8716  0.4147
   73MOL   H24021984   7.514   1.513   4.387  2.7623 -1.4090  3.1973
   73MOL   H24121985   7.485   1.583   4.174 -0.8987  1.6251  0.4171
   73MOL   C24221986   7.876   1.834   4.029 -0.2205 -0.0010 -0.0914
   73MOL   C24321987   7.959   1.710   4.006 -0.0033  0.0846 -0.1606
   73MOL   C24421988   7.967   1.664   3.865  0.4355 -0.8023 -0.9025
   73MOL   C24521989   7.933   1.530   3.842 -0.2656  0.3804  0.5462
   73MOL   C24621990   7.944   1.480   3.710 -0.4279  0.1239 -0.1585
   73MOL   C24721991   7.984   1.567   3.608 -0.4408 -0.5965 -0.5377
   73MOL   C24821992   8.021   1.699   3.641  0.2409  0.1332  1.1541
   73MOL   N24921993   8.008   1.749   3.769 -0.9937 -0.4342  0.9641
   73MOL   H25021994   7.934   1.913   3.981  0.0331  0.0985  0.3728
   73MOL   H25121995   7.784   1.816   3.973  0.4447 -1.1224 -0.8366
   73MOL   H25221996   7.919   1.629   4.067  0.6165 -2.6620 -3.2377
   73MOL   H25321997   7.917   1.456   3.920 -0.8453 -1.0557 -0.8951
   73MOL   H25421998   7.921   1.384   3.667  0.2855  0.3758 -1.0949
   73MOL   H25521999   7.999   1.525   3.510 -1.7860 -0.0855 -0.9654
   73MOL   H25622000   8.056   1.769   3.567 -0.2174 -0.5399  0.2916
   73MOL   C25722001   8.111   1.731   4.053  0.5388  1.0038  0.0160
   73MOL   C25822002   0.025   1.601   4.114  0.0355  0.0599 -0.5506
   73MOL   C25922003   0.177   1.617   4.121 -0.1777  0.1725 -1.0531
   73MOL   C26022004   0.266   1.549   4.033 -0.0197  0.7136 -0.6040
   73MOL   C26122005   0.404   1.572   4.037  0.2590 -0.0588  0.3424
   73MOL   C26222006   0.457   1.655   4.135 -0.2518  0.1816  0.3526
   73MOL   C26322007   0.358   1.721   4.212 -0.2730 -0.5043  0.1136
   73MOL   N26422008   0.227   1.708   4.209  0.6461  0.5089  0.1279
   73MOL   H26522009   8.109   1.807   4.131  0.1723 -0.2052  1.1850
   73MOL   H26622010   0.017   1.780   3.974 -2.4667  3.8149 -0.5339
   73MOL   H26722011   0.023   1.524   4.037 -1.6539 -0.2618 -0.2103
   73MOL   H26822012   0.225   1.482   3.959  0.7971  1.9186 -2.1680
   73MOL   H26922013   0.476   1.535   3.966 -1.6331 -0.5394 -1.3782
   73MOL   H27022014   0.561   1.679   4.149  0.2285 -0.7979 -1.3819
   73MOL   H27122015   0.389   1.790   4.289 -2.8105  0.2749  0.4778
   73MOL   C27222016   8.108   1.550   4.237 -0.7536  0.4895 -0.0302
   73MOL   C27322017   0.041   1.444   4.316  0.8047 -0.2746  0.3436
   73MOL   C27422018   8.138   1.433   4.459  0.2130  0.3217  0.5829
   73MOL   C27522019   0.040   1.506   4.563 -0.4675  0.6335 -0.3806
   73MOL   C27622020   8.137   1.501   4.687 -0.4966  0.2505 -0.3500
   73MOL   C27722021   8.021   1.429   4.703  0.3236 -0.8980 -0.1163
   73MOL   C27822022   7.962   1.360   4.591  0.6210  0.4957 -0.5457
   73MOL   N27922023   8.025   1.364   4.469  0.1177  0.2826 -0.4591
   73MOL   H28022024   8.010   1.509   4.213 -0.4495  0.0719 -0.5643
   73MOL   H28122025   8.092   1.641   4.294  0.2862 -0.4496  1.8263
   73MOL   H28222026   0.141   1.483   4.330  1.1960 -0.0267 -2.9329
   73MOL   H28322027   0.127   1.567   4.544 -0.1256  0.6334  1.1994
   73MOL   H28422028   0.029   1.566   4.761 -0.8757 -0.4310  0.4749
   73MOL   H28522029   7.974   1.432   4.800  0.8470 -3.6000  0.2545
   73MOL   H28622030   7.872   1.299   4.592  0.9929 -0.0489  0.1533
   73MOL   C28722031   0.053   1.298   4.246 -0.0584  0.3543  0.9761
   73MOL   C28822032   0.139   1.193   4.338 -0.5174  0.0202  0.1923
   73MOL   C28922033   0.284   1.228   4.342 -0.1836  0.0094 -0.1485
   73MOL   C29022034   0.339   1.294   4.457 -0.0256 -0.5259 -0.1123
   73MOL   C29122035   0.475   1.318   4.467 -0.0035  0.1058 -0.1780
   73MOL   C29222036   0.555   1.307   4.351  0.1018  0.0430  0.5685
   73MOL   C29322037   0.497   1.247   4.241 -0.1226  0.0127 -0.6151
   73MOL   N29422038   0.369   1.204   4.237 -0.3441 -0.0569 -0.3562
   73MOL   H29522039   0.083   1.295   4.141  0.5797 -1.4955  1.1853
   73MOL   H29622040   8.109   1.247   4.238 -1.3416  2.7255  1.0278
   73MOL   H29722041   0.130   1.093   4.294  1.7784  0.6817 -1.8934
   73MOL   H29822042   0.273   1.319   4.538  0.2748  0.6373 -0.2215
   73MOL   H29922043   0.516   1.360   4.558  0.5466 -0.3491 -0.2128
   73MOL   H30022044   0.651   1.356   4.342 -1.4028  2.6758 -2.0089
   73MOL   H30122045   0.566   1.245   4.157  3.2433 -0.0313  2.0694
   73MOL   H30222046   0.103   1.180   4.440 -0.9856 -1.3723 -0.1392
   74MOL     C122047   1.280   0.585   0.885  0.1986  0.2736 -0.2281
   74MOL     C222048   1.233   0.476   0.984 -0.2576  0.2310  0.3670
   74MOL     C322049   1.270   0.336   0.945 -1.2137  0.8596 -0.5531
   74MOL     C422050   1.197   0.220   0.996  0.1583  0.0054  0.7219
   74MOL     C522051   1.236   0.091   0.963 -0.1945 -0.3282 -0.1647
   74MOL     C622052   1.354   0.075   0.882 -1.0220 -0.7292  0.3653
   74MOL     C722053   1.430   0.187   0.847 -0.1047 -0.0936 -0.2686
   74MOL     N822054   1.390   0.310   0.873 -0.1851  0.0141  0.7630
   74MOL     H922055   1.387   0.579   0.866  0.5088 -2.8768  2.1107
   74MOL    H1022056   1.235   0.559   0.789 -2.2958  1.0067  0.7034
   74MOL    H1122057   1.125   0.478   0.994 -0.4024  0.4116 -1.2359
   74MOL    H1222058   1.111   0.244   1.055 -0.9369 -0.0872 -0.8032
   74MOL    H1322059   1.180   0.003   0.990  1.2033 -1.1004  0.2326
   74MOL    H1422060   1.397   8.131   0.857  1.2215 -0.0914  1.6581
   74MOL    H1522061   1.530   0.170   0.810 -0.8725 -1.0614 -1.9331
   74MOL    H1622062   1.246   0.685   0.911 -1.0927  0.2378 -1.7541
   74MOL    C1722063   1.296   0.505   1.122  0.3672  0.3767 -0.7594
   74MOL    C1822064   1.242   0.626   1.205  0.1017 -0.2894  0.1063
   74MOL    C1922065   1.097   0.612   1.235  0.1318  1.0115 -0.2652
   74MOL    C2022066   1.008   0.708   1.196 -0.0914  0.6526 -0.0104
   74MOL    C2122067   0.871   0.690   1.220 -0.3187 -0.4337  0.4203
   74MOL    C2222068   0.833   0.581   1.298  0.7259 -0.5618  0.3666
   74MOL    C2322069   0.928   0.484   1.331  0.0646 -0.3420 -0.4730
   74MOL    N2422070   1.062   0.503   1.302  0.4997 -0.0380  0.3329
   74MOL    H2522071   1.403   0.519   1.107  0.4260 -0.9896 -1.6540
   74MOL    H2622072   1.285   0.425   1.194 -1.0153  0.6126 -0.6909
   74MOL    H2722073   1.270   0.717   1.151  1.1699 -0.4375  0.4071
   74MOL    H2822074   1.054   0.788   1.141  1.7161 -1.7658 -2.1603
   74MOL    H2922075   0.807   0.769   1.183 -1.0483 -0.3010  1.9214
   74MOL    H3022076   0.729   0.556   1.315 -0.3513  0.2114 -4.4362
   74MOL    H3122077   0.896   0.392   1.377 -0.7118 -0.0918 -0.5173
   74MOL    C3222078   1.315   0.643   1.343  0.3628 -0.0667  0.5501
   74MOL    C3322079   1.467   0.662   1.336 -0.2557 -0.4757 -0.0692
   74MOL    C3422080   1.502   0.792   1.266  0.7410  0.6852 -0.6050
   74MOL    C3522081   1.568   0.787   1.139  0.1016  0.3748 -0.2803
   74MOL    C3622082   1.592   0.908   1.069 -0.1184 -0.3037  0.2423
   74MOL    C3722083   1.561   1.035   1.131  0.6153 -0.0704  0.3105
   74MOL    C3822084   1.497   1.027   1.257  0.5610  0.5129  0.4703
   74MOL    N3922085   1.457   0.909   1.316 -0.1373 -0.0044  0.4998
   74MOL    H4022086   1.303   0.551   1.399  0.5974  0.2582  1.1402
   74MOL    H4122087   1.275   0.726   1.401 -2.6988 -1.1683  0.0834
   74MOL    H4222088   1.501   0.575   1.280  1.6897  0.3206 -0.1839
   74MOL    H4322089   1.607   0.693   1.102 -0.5180  1.3431 -3.4712
   74MOL    H4422090   1.637   0.911   0.971 -0.3291  1.3166  0.1757
   74MOL    H4522091   1.595   1.118   1.072 -3.0308 -0.1431 -2.0759
   74MOL    H4622092   1.467   1.123   1.297  0.6095  0.5307  0.4637
   74MOL    C4722093   1.546   0.658   1.474  0.4043 -0.1238 -0.0980
   74MOL    C4822094   1.659   0.545   1.479 -0.9633 -0.0009 -0.4447
   74MOL    C4922095   1.744   0.558   1.352 -0.1170  0.2742  0.1798
   74MOL    C5022096   1.746   0.454   1.259 -0.2540 -0.0317  0.1813
   74MOL    C5122097   1.805   0.484   1.131 -0.2003  0.3151 -0.2377
   74MOL    C5222098   1.871   0.610   1.110  0.2876  0.6750 -0.5958
   74MOL    C5322099   1.864   0.701   1.217 -0.0209 -0.0853  0.1949
   74MOL    N5422100   1.800   0.673   1.330  0.1818 -0.2915 -0.3568
   74MOL    H5522101   1.479   0.661   1.560 -1.7896 -1.9724 -1.6740
   74MOL    H5622102   1.598   0.754   1.478  1.4623 -0.6771 -0.2856
   74MOL    H5722103   1.613   0.447   1.474 -1.1886 -0.0268  1.7659
   74MOL    H5822104   1.693   0.362   1.282  0.2826  0.2501  2.7049
   74MOL    H5922105   1.794   0.419   1.045 -1.5237  0.0572  0.1167
   74MOL    H6022106   1.916   0.638   1.016  0.2847 -0.0615 -0.8227
   74MOL    H6122107   1.921   0.793   1.219  1.4276 -0.7605 -4.0110
   74MOL    C6222108   1.744   0.554   1.612 -0.1075 -0.3296 -0.3706
   74MOL    C6322109   1.725   0.438   1.708  0.2925 -0.0315  0.5991
   74MOL    C6422110   1.830   0.434   1.818  0.0529 -0.2654  0.2129
   74MOL    C6522111   1.841   0.533   1.916  0.9875  0.4496 -0.3528
   74MOL    C6622112   1.936   0.527   2.016 -0.0804  0.7461 -0.0211
   74MOL    C6722113   2.024   0.409   2.016  0.2219  0.1567 -0.1197
   74MOL    C6822114   2.017   0.329   1.899 -0.1325  0.2509  0.4623
   74MOL    N6922115   1.918   0.336   1.811  0.6237 -0.3235 -0.2093
   74MOL    H7022116   1.738   0.648   1.667  0.2693  0.1401 -1.1294
   74MOL    H7122117   1.849   0.546   1.584 -0.2532 -1.5766 -0.6204
   74MOL    H7222118   1.730   0.345   1.651  0.9063  1.0385 -1.1489
   74MOL    H7322119   1.765   0.609   1.911  0.7473  0.3308  1.2152
   74MOL    H7422120   1.928   0.595   2.099 -1.8991  0.6868 -0.1385
   74MOL    H7522121   2.089   0.383   2.098  0.0884 -0.5926 -0.2492
   74MOL    H7622122   2.088   0.250   1.883  0.9609  1.8842 -3.3167
   74MOL    C7722123   1.575   0.441   1.772 -1.6064  0.5719  0.1344
   74MOL    C7822124   1.508   0.293   1.793 -0.5239 -0.1959  0.4342
   74MOL    C7922125   1.446   0.229   1.670  0.3898  0.3601  0.2844
   74MOL    C8022126   1.528   0.160   1.578  0.2686 -0.1821  0.4866
   74MOL    C8122127   1.490   0.120   1.449  0.1280 -0.2148 -0.5083
   74MOL    C8222128   1.355   0.153   1.415 -0.7601  0.2611 -0.5017
   74MOL    C8322129   1.272   0.229   1.504  0.1538  0.1662 -0.2442
   74MOL    N8422130   1.316   0.256   1.628 -0.5416  0.5798 -0.1441
   74MOL    H8522131   1.502   0.488   1.706 -1.0235  2.1057  0.5803
   74MOL    H8622132   1.577   0.496   1.866 -2.7141  0.9631 -0.0693
   74MOL    H8722133   1.419   0.305   1.855 -2.1371 -2.4403 -1.3400
   74MOL    H8822134   1.633   0.146   1.600 -0.3397 -1.8124  2.5894
   74MOL    H8922135   1.560   0.085   1.374 -0.8159 -1.7922 -0.6762
   74MOL    H9022136   1.310   0.125   1.321 -1.6184  2.9118 -0.9283
   74MOL    H9122137   1.168   0.251   1.485 -0.0120 -0.8293 -0.5016
   74MOL    C9222138   1.599   0.193   1.878 -0.4755 -0.1226 -0.2136
   74MOL    C9322139   1.640   0.235   2.020 -0.1403  0.4982 -0.8845
   74MOL    C9422140   1.525   0.286   2.113  0.1728 -0.3159 -0.0788
   74MOL    C9522141   1.494   0.421   2.123  0.0076 -0.0778 -0.3117
   74MOL    C9622142   1.372   0.446   2.185 -0.1702 -0.8186 -0.3622
   74MOL    C9722143   1.286   0.344   2.226  0.5066  0.1398  0.3739
   74MOL    C9822144   1.334   0.214   2.208  0.2507  0.5435  0.0076
   74MOL    N9922145   1.449   0.181   2.148  0.0166  0.1576  0.1010
   74MOL   H10022146   1.688   0.164   1.822 -1.1479 -0.6145 -1.0274
   74MOL   H10122147   1.546   0.098   1.891  0.0925 -0.9440 -3.4275
   74MOL   H10222148   1.710   0.319   2.013  0.0931  0.6448  2.4049
   74MOL   H10322149   1.571   0.491   2.095  0.3822  0.0647  1.0535
   74MOL   H10422150   1.339   0.545   2.213  1.4529 -0.7207  1.2324
   74MOL   H10522151   1.194   0.357   2.282 -0.5722  0.7961 -1.5112
   74MOL   H10622152   1.264   0.133   2.221 -1.1162  1.9067  1.2622
   74MOL   C10722153   1.728   0.123   2.081 -0.5988 -0.3521 -0.3964
   74MOL   C10822154   1.745   0.131   2.235 -0.2696 -0.0688 -0.2523
   74MOL   C10922155   1.819   0.011   2.286  0.1661 -0.7453  0.6782
   74MOL   C11022156   1.755   8.038   2.299  0.3269  0.0306  0.0186
   74MOL   C11122157   1.826   7.940   2.365  0.4176  0.1078  0.8586
   74MOL   C11222158   1.961   7.952   2.384 -0.2561  0.3669  0.4622
   74MOL   C11322159   2.020   8.072   2.353 -0.0087  0.0818 -0.4421
   74MOL   N11422160   1.954   0.026   2.304  0.2284  1.2067 -0.2189
   74MOL   H11522161   1.826   0.121   2.035  0.6774  0.2704  2.1951
   74MOL   H11622162   1.671   0.033   2.056  0.9890 -1.5044  0.0295
   74MOL   H11722163   1.643   0.135   2.274 -1.3312  1.2213 -3.0282
   74MOL   H11822164   1.651   8.037   2.270  0.7400  0.7530 -1.5837
   74MOL   H11922165   1.769   7.851   2.385  1.0295 -0.9529 -1.8359
   74MOL   H12022166   2.015   7.871   2.431 -1.7604 -1.2016 -0.4880
   74MOL   H12122167   2.125   8.089   2.373 -0.1277  0.0841  0.1967
   74MOL   C12222168   1.813   0.266   2.280 -0.3914  0.0797  0.1940
   74MOL   C12322169   1.822   0.302   2.437 -0.4288  0.0590 -0.2473
   74MOL   C12422170   1.907   0.420   2.467 -0.1697  0.4070  0.2894
   74MOL   C12522171   2.030   0.410   2.542  1.0201 -0.0149 -0.3270
   74MOL   C12622172   2.102   0.525   2.576  0.1019  0.4941 -0.0287
   74MOL   C12722173   2.065   0.644   2.514  0.4681  0.8869  0.0803
   74MOL   C12822174   1.950   0.647   2.432 -0.4598  0.0758 -0.0229
   74MOL   N12922175   1.871   0.537   2.407  0.2519 -0.1289  0.2138
   74MOL   H13022176   1.768   0.351   2.231  1.4699  0.9040 -0.1485
   74MOL   H13122177   1.913   0.261   2.236 -0.3219  0.5456  0.3070
   74MOL   H13222178   1.866   0.214   2.482 -1.8805 -0.5051  0.0909
   74MOL   H13322179   2.066   0.316   2.582 -1.0675 -1.4172 -1.6907
   74MOL   H13422180   2.190   0.524   2.639 -0.1637  0.0262  0.3460
   74MOL   H13522181   2.121   0.736   2.521  0.2922  0.9999  0.0214
   74MOL   H13622182   1.921   0.740   2.384 -2.0635 -0.8801 -0.9728
   74MOL   C13722183   1.681   0.316   2.491  0.3856 -1.1289  0.0314
   74MOL   C13822184   1.674   0.332   2.644 -0.0628  0.2491 -0.0522
   74MOL   C13922185   1.693   0.479   2.700  0.7497 -0.5816 -0.1057
   74MOL   C14022186   1.791   0.491   2.798 -0.3645  0.2855  0.1518
   74MOL   C14122187   1.829   0.620   2.840  0.0797  0.0692 -0.2203
   74MOL   C14222188   1.751   0.723   2.787  0.1392 -0.1244 -0.3263
   74MOL   C14322189   1.653   0.700   2.693  0.2049  0.3146 -0.4384
   74MOL   N14422190   1.615   0.577   2.649 -0.4483  0.5131  0.6148
   74MOL   H14522191   1.630   0.220   2.477 -0.1750 -0.8055 -0.1484
   74MOL   H14622192   1.629   0.400   2.446  1.5347 -0.4992 -0.1320
   74MOL   H14722193   1.765   0.282   2.679 -0.3691  0.1014  0.5492
   74MOL   H14822194   1.852   0.409   2.834 -1.3178 -1.2482 -1.6346
   74MOL   H14922195   1.904   0.635   2.916 -2.5459  0.7536  2.3340
   74MOL   H15022196   1.764   0.821   2.830 -0.0382 -0.1398 -0.2365
   74MOL   H15122197   1.593   0.781   2.655  1.2853  1.0068 -0.6812
   74MOL   C15222198   1.563   0.257   2.716 -0.3674 -0.2553  0.5250
   74MOL   C15322199   1.563   0.101   2.711  0.2290 -0.4817  0.5050
   74MOL   C15422200   1.695   0.042   2.761  0.3571 -0.4904 -0.3657
   74MOL   C15522201   1.801   0.005   2.678  0.3830  0.1884 -0.2206
   74MOL   C15622202   1.922   8.102   2.738 -0.1744 -0.0106  0.1504
   74MOL   C15722203   1.935   8.109   2.874  0.5524  0.0140 -0.0661
   74MOL   C15822204   1.827   8.152   2.948 -0.0091 -0.7109 -0.0966
   74MOL   N15922205   1.711   0.042   2.897 -0.0388 -0.3895 -0.2187
   74MOL   H16022206   1.473   0.286   2.662  0.0092 -2.7600 -1.5434
   74MOL   H16122207   1.550   0.286   2.820 -1.8860 -0.5386  0.4291
   74MOL   H16222208   1.552   0.063   2.609 -0.0317 -0.5034  0.5407
   74MOL   H16322209   1.786   0.013   2.571 -0.2638  0.6290 -0.0956
   74MOL   H16422210   2.009   8.066   2.685 -0.1115 -0.2697  0.4283
   74MOL   H16522211   2.021   8.071   2.928  0.3771 -0.6766 -0.2644
   74MOL   H16622212   1.841   0.012   3.054 -2.3112 -1.7197  0.3658
   74MOL   C16722213   1.446   0.032   2.786  0.3908  0.1708 -0.7736
   74MOL   C16822214   1.318   8.148   2.697 -0.2652  0.2711 -0.1503
   74MOL   C16922215   1.348   8.066   2.566  0.2271  0.4938 -0.2673
   74MOL   C17022216   1.422   7.942   2.571  0.3413 -0.0334  0.1198
   74MOL   C17122217   1.439   7.862   2.458 -0.2936 -0.5652  0.3838
   74MOL   C17222218   1.371   7.902   2.348  0.2970  0.1615  0.5256
   74MOL   C17322219   1.298   8.014   2.349 -0.3825  0.7078  0.5580
   74MOL   N17422220   1.287   8.098   2.456  0.5692 -0.5479  0.3240
   74MOL   H17522221   1.416   0.081   2.879  0.8493 -0.1200 -0.4745
   74MOL   H17622222   1.483   8.091   2.829  0.8222  0.8669  0.3988
   74MOL   H17722223   1.302   0.090   2.645 -1.2312 -1.4743 -3.0902
   74MOL   H17822224   1.476   7.922   2.662  1.3545 -0.5775 -0.5957
   74MOL   H17922225   1.481   7.762   2.463 -1.9975 -1.3526 -0.8670
   74MOL   H18022226   1.359   7.842   2.258  1.3121 -0.4803  0.8104
   74MOL   H18122227   1.230   8.041   2.270  0.2976 -0.0154 -0.2703
   74MOL   C18222228   1.188   8.110   2.778  0.0084  0.0988 -0.5864
   74MOL   C18322229   1.132   7.966   2.782 -0.1413  1.0621 -0.5588
   74MOL   C18422230   1.220   7.866   2.865 -0.2473  1.2105  0.0874
   74MOL   C18522231   1.274   7.751   2.805 -0.1505 -0.3431  0.2885
   74MOL   C18622232   1.346   7.660   2.875 -0.1320 -0.1475 -0.1779
   74MOL   C18722233   1.374   7.698   3.010 -0.2096 -0.1691  0.5017
   74MOL   C18822234   1.321   7.813   3.067  0.0255  0.4236 -0.0552
   74MOL   N18922235   1.240   7.897   2.998 -0.1569  0.4198  1.3601
   74MOL   H19022236   1.111   0.015   2.726  0.4391  1.6048  0.3823
   74MOL   H19122237   1.198   8.148   2.880  0.1926 -0.2651 -0.4678
   74MOL   H19222238   1.118   7.926   2.681  0.0083 -0.5045  0.0302
   74MOL   H19322239   1.254   7.752   2.699 -0.5428  1.7621  0.3508
   74MOL   H19422240   1.388   7.568   2.837  2.4625  0.8638  0.1674
   74MOL   H19522241   1.440   7.638   3.071  0.9757  0.9971  0.3942
   74MOL   H19622242   1.329   7.841   3.171 -0.0465  1.5089 -0.3416
   74MOL   C19722243   0.988   7.971   2.836 -0.3663 -0.2863  0.1631
   74MOL   C19822244   0.926   7.835   2.872 -0.3062 -0.3997  0.0185
   74MOL   C19922245   0.789   7.860   2.937 -0.9803 -0.0201 -0.5798
   74MOL   C20022246   0.785   7.857   3.075 -0.3460  0.3564 -0.3213
   74MOL   C20122247   0.665   7.880   3.142  1.2141 -0.5843 -0.4505
   74MOL   C20222248   0.550   7.922   3.067 -0.0925 -0.1067 -0.4980
   74MOL   C20322249   0.569   7.936   2.933 -0.1800 -0.0139 -0.2251
   74MOL   N20422250   0.682   7.897   2.868 -0.2157 -0.1227 -0.5254
   74MOL   H20522251   0.929   8.039   2.774  0.7886  0.4141 -0.2009
   74MOL   H20622252   1.003   8.028   2.927  4.1397  0.5002 -0.9542
   74MOL   H20722253   0.981   7.773   2.942  0.3201 -0.1584 -0.2605
   74MOL   H20822254   0.878   7.842   3.127 -0.6602 -0.1886  0.0904
   74MOL   H20922255   0.670   7.878   3.250  0.5207  0.8177 -0.3798
   74MOL   H21022256   0.458   7.951   3.116  1.4038 -0.5557  2.7057
   74MOL   H21122257   0.489   7.976   2.872 -0.8714  0.3255  0.9012
   74MOL   C21222258   0.897   7.746   2.746 -0.1229  0.0559 -0.0696
   74MOL   C21322259   0.837   7.609   2.773  0.0116  0.6722 -0.1062
   74MOL   C21422260   0.770   7.551   2.651  0.6658  0.1778  0.5421
   74MOL   C21522261   0.628   7.524   2.650 -0.9619  0.5732 -0.5586
   74MOL   C21622262   0.573   7.468   2.533 -0.7728  0.3257 -0.3746
   74MOL   C21722263   0.655   7.464   2.420 -0.2689  0.4013  0.1183
   74MOL   C21822264   0.795   7.492   2.428  0.2693 -0.2124 -0.2603
   74MOL   N21922265   0.848   7.533   2.545 -0.3053 -0.2094  0.3397
   74MOL   H22022266   0.983   7.737   2.679  0.1289  0.3164  0.2124
   74MOL   H22122267   0.815   7.796   2.696 -3.2093 -3.7398  0.9788
   74MOL   H22222268   0.755   7.615   2.844 -1.0099 -3.3502 -0.8356
   74MOL   H22322269   0.568   7.552   2.736  0.7925 -1.5014  1.4227
   74MOL   H22422270   0.466   7.451   2.531 -0.3817 -2.5267  0.6234
   74MOL   H22522271   0.615   7.427   2.327  1.3476  2.3027 -1.3915
   74MOL   H22622272   0.861   7.484   2.343 -1.0949  0.3620 -1.3998
   74MOL   C22722273   0.943   7.508   2.826 -0.3809  0.5182  0.2244
   74MOL   C22822274   0.929   7.485   2.978 -0.3120  0.0521  0.8306
   74MOL   C22922275   0.831   7.368   3.004  0.6114  0.0797  0.2348
   74MOL   C23022276   0.717   7.402   3.082  0.4217  0.4256 -0.1877
   74MOL   C23122277   0.615   7.307   3.100 -0.4333  0.0992  0.3403
   74MOL   C23222278   0.642   7.182   3.046  0.0568  0.3823 -0.1368
   74MOL   C23322279   0.761   7.153   2.976 -0.4802  0.0781 -0.5340
   74MOL   N23422280   0.857   7.243   2.956 -0.0151  0.0566  0.6655
   74MOL   H23522281   1.044   7.537   2.797 -0.8398  0.8768 -1.0788
   74MOL   H23622282   0.908   7.418   2.775 -2.8326  0.6772  1.5265
   74MOL   H23722283   0.885   7.578   3.014 -1.5603 -1.0702  2.2718
   74MOL   H23822284   0.699   7.499   3.125 -1.0738 -0.0123  0.2110
   74MOL   H23922285   0.523   7.328   3.153 -0.9704 -0.5753 -0.3177
   74MOL   H24022286   0.577   7.097   3.060  1.2296 -0.8031 -1.8061
   74MOL   H24122287   0.768   7.051   2.939  0.3201 -0.8355  2.0352
   74MOL   C24222288   1.069   7.467   3.043  0.4159 -0.0300 -0.4105
   74MOL   C24322289   1.076   7.466   3.194 -0.1200  0.0662 -0.3102
   74MOL   C24422290   1.188   7.378   3.251 -0.4542 -0.6736  0.6298
   74MOL   C24522291   1.160   7.252   3.296 -1.0511  0.0383  0.4544
   74MOL   C24622292   1.275   7.170   3.331 -0.4263  0.5431 -0.5813
   74MOL   C24722293   1.405   7.216   3.300  1.1255  0.6456 -0.0878
   74MOL   C24822294   1.418   7.347   3.250 -0.5857 -0.0882  0.2223
   74MOL   N24922295   1.312   7.423   3.235  0.1151 -0.4331  0.5245
   74MOL   H25022296   1.133   7.546   3.004  2.3206 -1.1676  0.3082
   74MOL   H25122297   1.107   7.371   3.008  1.1232 -0.5006  1.5524
   74MOL   H25222298   0.989   7.409   3.226 -0.2168 -0.4306 -1.4574
   74MOL   H25322299   1.064   7.204   3.312 -0.0897 -2.9165 -2.0942
   74MOL   H25422300   1.281   7.070   3.370  1.6878  1.4575  1.5677
   74MOL   H25522301   1.489   7.150   3.315  2.4420  1.6140 -2.8667
   74MOL   H25622302   1.521   7.376   3.238 -0.5774 -0.0584  0.3758
   74MOL   C25722303   1.065   7.608   3.262  0.3020 -0.0369 -0.1953
   74MOL   C25822304   1.015   7.610   3.410  0.6400 -0.7293 -0.3584
   74MOL   C25922305   0.868   7.584   3.424 -0.2490  0.1551 -0.3685
   74MOL   C26022306   0.770   7.684   3.431 -0.5355  0.6604  0.0399
   74MOL   C26122307   0.637   7.643   3.449 -0.1884 -0.2673  0.4118
   74MOL   C26222308   0.614   7.506   3.478 -0.0934 -0.2534  0.6217
   74MOL   C26322309   0.717   7.418   3.466  0.7776 -0.1045 -0.0711
   74MOL   N26422310   0.838   7.456   3.439 -0.1366  0.0713 -0.1599
   74MOL   H26522311   1.006   7.678   3.202  0.4890 -0.0914 -0.4450
   74MOL   H26622312   1.165   7.652   3.258  0.6871 -0.7897  1.0363
   74MOL   H26722313   1.028   7.716   3.433 -0.2100 -0.9726  1.2671
   74MOL   H26822314   0.795   7.789   3.433  1.4332  0.2310 -1.1180
   74MOL   H26922315   0.553   7.711   3.451 -0.0637 -0.1285  1.2390
   74MOL   H27022316   0.518   7.465   3.507  0.7863 -2.6661  0.2619
   74MOL   H27122317   0.707   7.315   3.496  2.5203  0.1815  1.6125
   74MOL   C27222318   1.094   7.528   3.519 -0.0728 -0.0120 -0.2229
   74MOL   C27322319   1.233   7.576   3.555  0.4861  0.3305  0.3090
   74MOL   C27422320   1.237   7.727   3.567 -0.0703  0.3610  0.5518
   74MOL   C27522321   1.310   7.799   3.469 -0.1674  0.2702 -0.5130
   74MOL   C27622322   1.330   7.938   3.486 -0.2141  0.5804 -0.3391
   74MOL   C27722323   1.268   7.996   3.600  0.2943 -0.1867 -0.2819
   74MOL   C27822324   1.186   7.916   3.680  0.2876  0.2603  0.2775
   74MOL   N27922325   1.154   7.789   3.657 -0.5978 -0.1738  0.1716
   74MOL   H28022326   1.090   7.420   3.502  0.2425 -0.4707  2.3985
   74MOL   H28122327   1.034   7.556   3.606  0.0356  2.4835 -0.9194
   74MOL   H28222328   1.300   7.562   3.470 -0.0656 -1.6645  0.1737
   74MOL   H28322329   1.364   7.747   3.391 -2.3511 -3.2313  0.1938
   74MOL   H28422330   1.393   7.991   3.417  0.9003  2.2699  1.9025
   74MOL   H28522331   1.289   8.099   3.625 -0.4357 -0.1274  0.1006
   74MOL   H28622332   1.149   7.966   3.768 -0.3789  1.6270 -0.7437
   74MOL   C28722333   1.274   7.513   3.686 -0.5731  0.0258  0.2318
   74MOL   C28822334   1.325   7.371   3.681 -0.3371 -0.1329 -0.0948
   74MOL   C28922335   1.396   7.327   3.806 -0.0057  0.2633 -0.2644
   74MOL   C29022336   1.321   7.288   3.913  0.4121 -0.1389 -0.0413
   74MOL   C29122337   1.388   7.276   4.040 -0.2396 -0.1334  0.6266
   74MOL   C29222338   1.525   7.299   4.042 -0.3709 -0.2100 -0.1158
   74MOL   C29322339   1.589   7.344   3.928 -0.8424  0.1164  0.0596
   74MOL   N29422340   1.528   7.349   3.807  0.0768 -0.6368 -0.2673
   74MOL   H29522341   1.199   7.529   3.763 -0.7891  0.8466 -0.1456
   74MOL   H29622342   1.359   7.571   3.722 -1.9626  1.4560  1.1906
   74MOL   H29722343   1.397   7.366   3.600 -0.9633  0.3873 -0.6927
   74MOL   H29822344   1.215   7.275   3.903  0.2436  0.3451  1.0350
   74MOL   H29922345   1.328   7.249   4.126  0.1072 -0.1123  0.8747
   74MOL   H30022346   1.584   7.294   4.133 -1.6933 -2.4158  0.6711
   74MOL   H30122347   1.693   7.372   3.932 -0.6335 -0.8777  3.7579
   74MOL   H30222348   1.248   7.303   3.644  0.7022 -0.8675 -0.9453
   75MOL     C122349   1.670   6.447   4.939  0.5161  0.0730 -0.3041
   75MOL     C222350   1.631   6.350   4.826 -0.4224 -0.6898 -0.2055
   75MOL     C322351   1.527   6.416   4.735  0.1420  0.9005 -0.2764
   75MOL     C422352   1.396   6.363   4.723 -0.0118 -0.7986 -0.0619
   75MOL     C522353   1.312   6.441   4.638  0.6804  0.7872  0.3962
   75MOL     C622354   1.350   6.569   4.587  0.0047  0.4017 -0.0104
   75MOL     C722355   1.485   6.605   4.605  0.2502  0.2742 -0.2014
   75MOL     N822356   1.568   6.529   4.680  0.0021 -0.2746 -0.4227
   75MOL     H922357   1.581   6.503   4.970  0.2725  0.6442 -1.9817
   75MOL    H1022358   1.712   6.396   5.025 -1.2351 -0.5470  0.2086
   75MOL    H1122359   1.581   6.267   4.875  0.8757 -0.1992  2.0372
   75MOL    H1222360   1.368   6.273   4.775  0.9857 -0.8825  0.3443
   75MOL    H1322361   1.215   6.405   4.609 -0.9068  4.5472  0.6994
   75MOL    H1422362   1.298   6.629   4.515 -0.0925 -2.0898 -2.0846
   75MOL    H1522363   1.532   6.686   4.551  2.6741 -1.7781 -1.2372
   75MOL    H1622364   1.735   6.529   4.909  0.8060 -0.2980 -0.6843
   75MOL    C1722365   1.751   6.297   4.747  0.8398  0.2472 -0.0491
   75MOL    C1822366   1.878   6.259   4.826 -0.3601 -0.4075 -0.6485
   75MOL    C1922367   1.851   6.131   4.903 -0.2263 -0.2339  0.7197
   75MOL    C2022368   1.840   6.123   5.046 -0.4722 -0.1105  0.3002
   75MOL    C2122369   1.835   5.995   5.104  0.6536  0.3629  0.1806
   75MOL    C2222370   1.838   5.883   5.024 -0.3310 -0.3048  0.0273
   75MOL    C2322371   1.831   5.903   4.889 -0.4570 -0.0243  0.1766
   75MOL    N2422372   1.836   6.022   4.825 -0.1734 -0.1770  0.1196
   75MOL    H2522373   1.790   6.376   4.684 -1.4094  1.9664  0.6652
   75MOL    H2622374   1.719   6.216   4.681 -0.5833  0.4135  0.4184
   75MOL    H2722375   1.904   6.337   4.898  0.6666  0.9686 -2.4474
   75MOL    H2822376   1.837   6.211   5.108 -0.7338  1.0799 -1.3440
   75MOL    H2922377   1.826   5.977   5.210  0.4377  0.2123  0.1347
   75MOL    H3022378   1.831   5.785   5.069 -0.3044 -0.3342 -0.0332
   75MOL    H3122379   1.822   5.820   4.821  1.4107  1.1154 -1.5146
   75MOL    C3222380   2.000   6.246   4.738 -0.3061  0.4564 -0.0181
   75MOL    C3322381   2.074   6.369   4.697 -0.2952  0.8271 -0.3514
   75MOL    C3422382   2.116   6.433   4.829 -0.9151  0.1299  0.1947
   75MOL    C3522383   2.054   6.551   4.873 -0.6671 -0.1108  0.0436
   75MOL    C3622384   2.084   6.601   5.000  0.0428  0.8704  0.4816
   75MOL    C3722385   2.186   6.544   5.074 -0.1452  0.6267  0.1297
   75MOL    C3822386   2.244   6.427   5.018  0.5654 -0.7175 -0.1436
   75MOL    N3922387   2.208   6.369   4.904  0.5192  0.4318 -0.2011
   75MOL    H4022388   1.973   6.202   4.642  2.0485  2.8762 -1.8482
   75MOL    H4122389   2.072   6.179   4.785 -3.2937 -3.1774 -0.4107
   75MOL    H4222390   2.016   6.442   4.640 -1.4004  0.1651 -0.0806
   75MOL    H4322391   1.996   6.602   4.797 -0.7311  2.2785  1.6289
   75MOL    H4422392   2.028   6.685   5.040 -1.3417 -0.6626  1.8506
   75MOL    H4522393   2.232   6.591   5.160  1.7699 -1.6119  0.3835
   75MOL    H4622394   2.329   6.385   5.070  0.0567 -0.8767  0.5610
   75MOL    C4722395   2.196   6.338   4.609 -0.4611 -0.8312 -0.2888
   75MOL    C4822396   2.162   6.292   4.472 -0.3543  0.2667  0.3042
   75MOL    C4922397   2.069   6.387   4.394  0.3772 -0.1871 -0.1810
   75MOL    C5022398   1.954   6.342   4.331  0.4599 -0.1638 -0.3029
   75MOL    C5122399   1.871   6.433   4.262 -0.1926  0.7315  1.0137
   75MOL    C5222400   1.913   6.570   4.264  0.2229  0.3451 -0.3919
   75MOL    C5322401   2.033   6.613   4.326 -0.0034  0.3303 -0.5175
   75MOL    N5422402   2.114   6.520   4.385  0.7853  0.5427  0.2144
   75MOL    H5522403   2.256   6.258   4.653 -0.2301 -0.5678 -0.1208
   75MOL    H5622404   2.265   6.422   4.598  0.4832 -1.5764 -0.1157
   75MOL    H5722405   2.104   6.200   4.481 -0.8370  0.6257  0.8019
   75MOL    H5822406   1.917   6.240   4.326  1.7054 -0.5580 -1.5563
   75MOL    H5922407   1.798   6.385   4.199  0.0910 -1.8267  2.5387
   75MOL    H6022408   1.846   6.642   4.221 -1.7987 -1.1198  0.2233
   75MOL    H6122409   2.059   6.716   4.340  1.2210 -0.1380  0.7223
   75MOL    C6222410   2.281   6.256   4.373 -0.5483  0.2760  0.1048
   75MOL    C6322411   2.390   6.157   4.419 -0.2541 -0.1710 -0.6511
   75MOL    C6422412   2.330   6.026   4.485  0.1732  0.6088  0.0060
   75MOL    C6522413   2.387   5.974   4.597  0.8908 -0.7151 -0.3530
   75MOL    C6622414   2.331   5.869   4.666  0.0018  0.3972  0.6830
   75MOL    C6722415   2.212   5.821   4.612 -0.0220 -0.5135  0.5328
   75MOL    C6822416   2.169   5.866   4.481 -0.0185 -0.2201 -0.0069
   75MOL    N6922417   2.232   5.964   4.416  0.1733 -0.0086  0.1272
   75MOL    H7022418   2.333   6.331   4.314 -2.3458 -0.1060 -2.0615
   75MOL    H7122419   2.232   6.191   4.300  0.2476 -0.3272  0.0982
   75MOL    H7222420   2.451   6.209   4.493 -0.4543 -2.7506  1.3971
   75MOL    H7322421   2.472   6.032   4.628 -0.8540  0.0364  3.3501
   75MOL    H7422422   2.373   5.829   4.757 -0.9710 -1.3671  0.3781
   75MOL    H7522423   2.159   5.744   4.666  1.1663 -1.7032  0.0243
   75MOL    H7622424   2.077   5.829   4.440  0.8207 -0.2094 -1.9605
   75MOL    C7722425   2.488   6.115   4.313  0.1006 -0.8288  0.0663
   75MOL    C7822426   2.587   6.225   4.263 -0.0843  0.7638  0.1774
   75MOL    C7922427   2.674   6.273   4.365  0.2275 -0.2617 -0.2855
   75MOL    C8022428   2.666   6.404   4.417  0.7697  0.2654 -0.1287
   75MOL    C8122429   2.767   6.448   4.503 -0.1589  0.8958 -0.3613
   75MOL    C8222430   2.862   6.351   4.545  0.0238 -0.6732  0.0244
   75MOL    C8322431   2.855   6.217   4.493 -0.1218 -0.3008 -0.2569
   75MOL    N8422432   2.759   6.185   4.403 -0.3534 -0.1578  0.2160
   75MOL    H8522433   2.436   6.048   4.244 -1.9365  1.0160 -0.2370
   75MOL    H8622434   2.551   6.035   4.351  0.9594 -0.4814 -0.6290
   75MOL    H8722435   2.535   6.317   4.237 -1.3514  0.1222  0.3850
   75MOL    H8822436   2.587   6.473   4.394 -1.1330 -0.7886  2.9749
   75MOL    H8922437   2.779   6.544   4.552  0.6413  1.3387 -1.4057
   75MOL    H9022438   2.954   6.375   4.596  1.6245  0.1591 -3.1265
   75MOL    H9122439   2.910   6.136   4.539  3.3645  2.5488  0.8171
   75MOL    C9222440   2.661   6.177   4.138 -0.9358 -0.3488  0.2863
   75MOL    C9322441   2.575   6.139   4.010  0.0022 -0.0009 -0.8721
   75MOL    C9422442   2.431   6.198   3.994  0.5599 -0.1419  0.1625
   75MOL    C9522443   2.319   6.113   3.978 -0.1173  0.5014 -0.1485
   75MOL    C9622444   2.186   6.165   3.963 -0.3493 -0.2204 -0.2800
   75MOL    C9722445   2.186   6.302   3.953  0.2691 -0.4137 -1.1532
   75MOL    C9822446   2.301   6.381   3.963  0.2573 -0.1940 -0.0567
   75MOL    N9922447   2.421   6.333   3.981 -0.6818  0.1601  0.0222
   75MOL   H10022448   2.734   6.101   4.164  0.6107  1.4646  1.3249
   75MOL   H10122449   2.726   6.262   4.117 -0.2952 -1.2790 -1.5695
   75MOL   H10222450   2.549   6.034   4.018 -1.5254  0.3499 -1.0392
   75MOL   H10322451   2.330   6.006   3.983  1.6317  0.6339 -1.0054
   75MOL   H10422452   2.101   6.099   3.948 -0.1816 -0.2929 -0.9306
   75MOL   H10522453   2.086   6.344   3.952 -1.1505 -3.4399  1.9136
   75MOL   H10622454   2.296   6.489   3.963  2.2366 -0.0629  2.1095
   75MOL   C10722455   2.664   6.158   3.878 -0.1928  0.1181  0.4303
   75MOL   C10822456   2.807   6.099   3.880  0.1866 -0.4491  0.4432
   75MOL   C10922457   2.809   5.948   3.916  0.4617 -0.8316 -0.1430
   75MOL   C11022458   2.880   5.901   4.027  0.1061 -0.4193  0.0115
   75MOL   C11122459   2.869   5.764   4.061  0.3889 -0.7494 -0.1451
   75MOL   C11222460   2.782   5.682   3.991  0.1076  0.1179 -0.2539
   75MOL   C11322461   2.715   5.739   3.877  0.3949 -0.0575  0.3772
   75MOL   N11422462   2.730   5.869   3.844 -0.3344 -0.0848 -0.0395
   75MOL   H11522463   2.670   6.266   3.863  0.8554  0.1153  0.7785
   75MOL   H11622464   2.615   6.110   3.794  1.5625  0.2951 -0.7043
   75MOL   H11722465   2.871   6.143   3.956  0.8910 -1.1266  0.2543
   75MOL   H11822466   2.929   5.974   4.090 -2.2834  1.1247  0.1755
   75MOL   H11922467   2.928   5.729   4.145  0.0585 -0.5306  0.1818
   75MOL   H12022468   2.764   5.580   4.024 -0.6258  0.2506 -0.2229
   75MOL   H12122469   2.638   5.690   3.819  0.6587  0.3224 -0.3008
   75MOL   C12222470   2.869   6.128   3.741  0.1471  0.6512 -0.2828
   75MOL   C12322471   2.968   6.029   3.667  0.1707 -0.9077 -0.2371
   75MOL   C12422472   2.987   6.063   3.520  0.1967  0.8799 -0.1741
   75MOL   C12522473   2.965   5.966   3.417  0.0146 -0.1584  0.6853
   75MOL   C12622474   2.979   6.001   3.282 -0.2109  0.5796 -0.2849
   75MOL   C12722475   3.003   6.136   3.254  0.6259  0.0681  0.0017
   75MOL   C12822476   3.029   6.224   3.361 -0.5688 -0.3021 -0.0916
   75MOL   N12922477   3.021   6.190   3.487  0.4317 -0.0886  0.1411
   75MOL   H13022478   2.907   6.230   3.744  0.4681  0.5854 -2.0078
   75MOL   H13122479   2.787   6.142   3.670 -0.1391 -0.6194 -0.2134
   75MOL   H13222480   2.922   5.930   3.669 -0.8461 -0.4254  0.7157
   75MOL   H13322481   2.952   5.865   3.453  0.0909 -0.1101  0.8501
   75MOL   H13422482   2.970   5.928   3.203  1.2586 -0.8590  0.8401
   75MOL   H13522483   3.013   6.173   3.153  0.4388 -0.5174 -0.2338
   75MOL   H13622484   3.057   6.327   3.342 -1.5242  0.2573  1.4529
   75MOL   C13722485   3.098   6.022   3.744  0.2953  0.5754  0.1889
   75MOL   C13822486   3.167   5.879   3.737  0.0863  0.2020 -0.2267
   75MOL   C13922487   3.228   5.840   3.600  0.3707  0.5890 -0.0828
   75MOL   C14022488   3.174   5.736   3.529  0.4829 -0.3127  0.4168
   75MOL   C14122489   3.225   5.711   3.402  0.0617  0.4034  0.5344
   75MOL   C14222490   3.334   5.786   3.354 -0.0646  0.6804  0.1888
   75MOL   C14322491   3.396   5.877   3.446  0.0918  0.3048  0.0433
   75MOL   N14422492   3.336   5.907   3.565 -0.0010 -0.2758 -0.2658
   75MOL   H14522493   3.080   6.037   3.851  0.6419  0.4517  0.2682
   75MOL   H14622494   3.176   6.096   3.721 -0.6987  1.4481 -0.3953
   75MOL   H14722495   3.080   5.817   3.759 -0.3232  1.5476  2.1178
   75MOL   H14822496   3.094   5.673   3.567  0.4814  0.2756  1.3916
   75MOL   H14922497   3.190   5.638   3.330  0.9656  0.9810 -0.5133
   75MOL   H15022498   3.353   5.782   3.248 -0.0458  1.4449  0.1613
   75MOL   H15122499   3.490   5.923   3.422  1.5390 -3.0591 -1.1134
   75MOL   C15222500   3.269   5.854   3.849 -0.3953 -0.1794 -0.3597
   75MOL   C15322501   3.310   5.702   3.862 -0.5206 -0.1394  0.2699
   75MOL   C15422502   3.443   5.691   3.938  0.5761  0.1277  0.7024
   75MOL   C15522503   3.557   5.628   3.884  0.1802 -0.0531  0.2224
   75MOL   C15622504   3.675   5.623   3.961  0.2387  0.5194  0.5729
   75MOL   C15722505   3.681   5.676   4.092  0.2346 -0.1051  0.2860
   75MOL   C15822506   3.568   5.746   4.129 -0.6540  0.5144 -0.3525
   75MOL   N15922507   3.455   5.758   4.056  0.0357 -0.3771  0.0598
   75MOL   H16022508   3.237   5.888   3.947  0.8475 -0.1130  0.0252
   75MOL   H16122509   3.352   5.920   3.823  0.4022 -1.2716 -0.6224
   75MOL   H16222510   3.337   5.663   3.764 -0.0419 -2.2729  1.2227
   75MOL   H16322511   3.563   5.582   3.786 -1.7517 -0.6625  0.3463
   75MOL   H16422512   3.757   5.560   3.931  0.6211  0.7210  1.1872
   75MOL   H16522513   3.763   5.659   4.160  1.6416 -1.9343 -1.7379
   75MOL   H16622514   3.556   5.790   4.227 -2.3642 -2.3667  0.7988
   75MOL   C16722515   3.192   5.622   3.929 -0.0867  0.2806  0.0424
   75MOL   C16822516   3.234   5.500   4.015  0.4184  0.0235  0.2224
   75MOL   C16922517   3.117   5.440   4.092 -0.1203 -1.0594  0.3113
   75MOL   C17022518   3.126   5.425   4.230  0.4713 -0.1192  0.0298
   75MOL   C17122519   3.039   5.331   4.291  0.6559 -0.0677  0.4303
   75MOL   C17222520   2.941   5.263   4.212 -0.4601  0.3261  0.0403
   75MOL   C17322521   2.928   5.302   4.079 -0.3600 -0.3733  0.3017
   75MOL   N17422522   3.016   5.385   4.021 -0.1590 -0.5367 -0.0673
   75MOL   H17522523   3.113   5.593   3.860  0.9137  1.7922 -1.7653
   75MOL   H17622524   3.140   5.691   3.995  0.8872  1.4676 -0.4306
   75MOL   H17722525   3.304   5.542   4.088 -0.3733  0.7224  0.5788
   75MOL   H17822526   3.197   5.483   4.288  0.5444  0.5953 -0.7553
   75MOL   H17922527   3.040   5.296   4.393  0.4483 -2.0445 -0.2257
   75MOL   H18022528   2.874   5.186   4.248 -0.0769  0.5682  1.3001
   75MOL   H18122529   2.849   5.258   4.020 -1.4187  2.7627 -0.6946
   75MOL   C18222530   3.305   5.383   3.938 -0.0327  0.6490 -0.0035
   75MOL   C18322531   3.364   5.259   4.010 -0.5376 -0.6986 -0.6155
   75MOL   C18422532   3.361   5.134   3.921 -0.0419 -0.4192  0.5027
   75MOL   C18522533   3.447   5.119   3.810  0.1601 -0.0248 -0.2385
   75MOL   C18622534   3.438   4.994   3.739 -0.0550 -0.5761  0.3729
   75MOL   C18722535   3.348   4.897   3.781  0.3991  0.3019 -0.3863
   75MOL   C18822536   3.282   4.919   3.900 -0.1011  0.3030 -0.6637
   75MOL   N18922537   3.284   5.035   3.963  0.2595 -0.1279  0.1201
   75MOL   H19022538   3.377   5.423   3.866  1.2555  0.7575  1.3132
   75MOL   H19122539   3.237   5.336   3.867 -1.3574  0.8818  1.0911
   75MOL   H19222540   3.295   5.241   4.092 -2.2105 -0.0495 -1.8708
   75MOL   H19322541   3.513   5.201   3.785 -0.0905  1.1324  2.7201
   75MOL   H19422542   3.500   4.979   3.653  0.7540 -0.0289  0.8510
   75MOL   H19522543   3.353   4.805   3.724  1.9325 -0.1383  0.4336
   75MOL   H19622544   3.215   4.844   3.939  0.3661 -0.7013 -1.7901
   75MOL   C19722545   3.505   5.279   4.073  0.3219 -0.2740  0.0687
   75MOL   C19822546   3.558   5.185   4.178  0.3750  0.6848  0.2084
   75MOL   C19922547   3.707   5.186   4.182  0.0417  0.3577  0.5165
   75MOL   C20022548   3.767   5.066   4.209  0.4370  0.1110 -0.2249
   75MOL   C20122549   3.907   5.063   4.208  0.0256  0.1121 -0.2138
   75MOL   C20222550   3.982   5.185   4.194  0.1264 -0.3994 -1.4762
   75MOL   C20322551   3.909   5.297   4.157 -0.2780 -0.1210 -0.8840
   75MOL   N20422552   3.771   5.303   4.153 -0.0980 -0.5856 -0.3692
   75MOL   H20522553   3.524   5.377   4.115 -2.5709  0.3119  0.1454
   75MOL   H20622554   3.577   5.277   3.991 -0.3660 -0.6440 -0.5363
   75MOL   H20722555   3.532   5.085   4.144  2.1763 -1.1259  3.8336
   75MOL   H20822556   3.711   4.977   4.235 -1.2145  1.5913  1.3561
   75MOL   H20922557   3.969   4.976   4.226  1.8397  0.8288 -2.7293
   75MOL   H21022558   4.090   5.186   4.195  0.1571 -1.7308  1.1190
   75MOL   H21122559   3.967   5.383   4.128  0.4240  0.4978  2.1609
   75MOL   C21222560   3.509   5.215   4.316  0.7541 -0.6653 -0.7449
   75MOL   C21322561   3.406   5.113   4.375  0.0402 -0.5364 -0.2420
   75MOL   C21422562   3.474   4.997   4.441 -0.2635  0.4245  0.1147
   75MOL   C21522563   3.489   4.882   4.364  0.4029 -0.8941 -0.0790
   75MOL   C21622564   3.548   4.766   4.422 -0.3967 -0.0386  0.8826
   75MOL   C21722565   3.585   4.774   4.554 -0.9869 -1.1635  0.1737
   75MOL   C21822566   3.558   4.893   4.629  0.2077  0.2671  0.0648
   75MOL   N21922567   3.512   5.004   4.570 -0.2906  0.1204  0.0805
   75MOL   H22022568   3.456   5.310   4.324  2.1416  0.0413  0.3973
   75MOL   H22122569   3.585   5.226   4.394 -0.7357  1.0471  0.5241
   75MOL   H22222570   3.351   5.084   4.285  0.2156  0.1224 -0.5593
   75MOL   H22322571   3.462   4.876   4.259  0.3418 -4.1773  0.0827
   75MOL   H22422572   3.569   4.681   4.360 -2.0973 -0.5256  0.9574
   75MOL   H22522573   3.631   4.689   4.604  1.1577  0.2958  0.7575
   75MOL   H22622574   3.571   4.899   4.736 -3.9469  0.8694  0.5971
   75MOL   C22722575   3.312   5.187   4.478 -0.0881  0.3426  0.2847
   75MOL   C22822576   3.212   5.099   4.562  0.1729 -0.3414 -0.0425
   75MOL   C22922577   3.154   5.191   4.664  0.2453 -0.5917  0.3377
   75MOL   C23022578   3.233   5.216   4.780 -0.2888 -0.5763 -0.5573
   75MOL   C23122579   3.179   5.306   4.877  0.7764 -0.3752 -0.3086
   75MOL   C23222580   3.062   5.380   4.847 -0.0290 -0.0127  0.0545
   75MOL   C23322581   2.996   5.356   4.729 -0.0759  0.3534 -0.0433
   75MOL   N23422582   3.037   5.264   4.638  0.0728  0.6602  0.5593
   75MOL   H23522583   3.260   5.279   4.450 -0.9443  0.0454  0.8945
   75MOL   H23622584   3.379   5.230   4.552  0.5511  0.2806 -0.2604
   75MOL   H23722585   3.265   5.037   4.633 -0.0275 -0.2851  0.1567
   75MOL   H23822586   3.330   5.170   4.789  0.4958  1.0223 -0.5250
   75MOL   H23922587   3.241   5.330   4.962  0.7596 -0.2922 -0.3197
   75MOL   H24022588   3.012   5.438   4.923 -0.0668  0.8168 -0.5848
   75MOL   H24122589   2.902   5.406   4.714  0.2565  0.5593 -1.5450
   75MOL   C24222590   3.124   5.004   4.491  0.4743  0.0018  0.6305
   75MOL   C24322591   2.980   4.964   4.540 -0.2807 -0.6004  0.3803
   75MOL   C24422592   2.918   4.871   4.439  0.3284 -0.0642 -0.5070
   75MOL   C24522593   2.806   4.910   4.356  0.4491  1.0219  0.2973
   75MOL   C24622594   2.757   4.825   4.256 -0.3843  0.4314  0.8043
   75MOL   C24722595   2.823   4.706   4.230 -0.1664 -0.6100 -0.7371
   75MOL   C24822596   2.935   4.677   4.321 -0.1515 -0.1637  0.0117
   75MOL   N24922597   2.975   4.748   4.425 -0.2383  0.5900  0.3667
   75MOL   H25022598   3.191   4.920   4.477  0.1068 -0.0425 -0.9428
   75MOL   H25122599   3.122   5.045   4.390  0.3335 -0.4955  0.4294
   75MOL   H25222600   2.916   5.051   4.546 -2.1870 -2.0928  2.2464
   75MOL   H25322601   2.751   5.000   4.379  1.4186  1.9872 -1.0635
   75MOL   H25422602   2.668   4.865   4.210 -0.3256  1.1832  1.3482
   75MOL   H25522603   2.795   4.625   4.164  1.9875 -1.5045 -0.6089
   75MOL   H25622604   2.994   4.588   4.303  3.3722  2.2294 -0.8195
   75MOL   C25722605   2.982   4.895   4.678 -1.2631 -1.2308  0.0155
   75MOL   C25822606   2.853   4.928   4.761 -0.5198 -0.3516 -0.7904
   75MOL   C25922607   2.721   4.904   4.711  0.5278  0.8329 -0.3465
   75MOL   C26022608   2.623   5.004   4.693 -0.6300  0.2646  0.4197
   75MOL   C26122609   2.493   4.967   4.657  0.5854  0.0404 -0.4791
   75MOL   C26222610   2.467   4.835   4.632  0.2781 -0.0532 -0.0832
   75MOL   C26322611   2.566   4.734   4.648 -0.0622 -0.4099  0.4521
   75MOL   N26422612   2.694   4.773   4.689  0.5513  0.6230  0.1723
   75MOL   H26522613   3.056   4.939   4.745 -0.5492 -0.7341 -1.0733
   75MOL   H26622614   3.008   4.789   4.672 -0.3732 -0.9753 -0.8809
   75MOL   H26722615   2.861   5.035   4.783  1.9664 -0.3703 -1.4985
   75MOL   H26822616   2.643   5.110   4.702  0.2542  0.0315  1.2843
   75MOL   H26922617   2.410   5.035   4.652  2.0803  2.0139  0.9374
   75MOL   H27022618   2.370   4.808   4.592 -1.4737  3.0118  1.8527
   75MOL   H27122619   2.547   4.633   4.618 -0.1865  0.2892 -1.9160
   75MOL   C27222620   2.874   4.866   4.903  0.0498 -0.3005 -0.3420
   75MOL   C27322621   2.754   4.850   4.997  0.5377 -0.0046 -0.2151
   75MOL   C27422622   2.762   4.740   5.102  0.0549  0.0778  0.4721
   75MOL   C27522623   2.673   4.632   5.108  0.1588 -0.5413 -0.2864
   75MOL   C27622624   2.693   4.528   5.204  0.4022 -0.3752 -1.1494
   75MOL   C27722625   2.803   4.537   5.294  0.0120  0.2334  0.3667
   75MOL   C27822626   2.887   4.649   5.282  0.3820 -0.5817 -0.0984
   75MOL   N27922627   2.872   4.746   5.185  0.0605  0.3111  0.6074
   75MOL   H28022628   2.961   4.904   4.956 -1.3745  2.4831  0.0727
   75MOL   H28122629   2.905   4.767   4.871  0.4263 -1.2510  2.7317
   75MOL   H28222630   2.667   4.815   4.942  0.3788 -0.2321  0.1801
   75MOL   H28322631   2.584   4.630   5.047  0.6090 -2.7714 -0.9340
   75MOL   H28422632   2.621   4.451   5.225 -0.6399  0.8116 -0.3152
   75MOL   H28522633   2.825   4.477   5.380 -0.0331  0.1879  0.3463
   75MOL   H28622634   2.957   4.671   5.361 -0.6428 -0.1866  0.7010
   75MOL   C28722635   2.717   4.983   5.056 -0.1875  0.5192 -0.0262
   75MOL   C28822636   2.593   4.973   5.148  0.4251 -0.7790  0.5673
   75MOL   C28922637   2.539   5.111   5.183 -0.2373 -0.2042  0.7535
   75MOL   C29022638   2.511   5.140   5.319  0.0223 -0.7809 -0.2590
   75MOL   C29122639   2.473   5.277   5.342 -0.0646 -0.0995 -0.1220
   75MOL   C29222640   2.460   5.369   5.238  0.0998 -0.0089  0.0750
   75MOL   C29322641   2.481   5.321   5.109  0.3020 -0.0660  0.3990
   75MOL   N29422642   2.516   5.192   5.078  0.2556  0.1792 -0.3330
   75MOL   H29522643   2.692   5.051   4.975 -1.6408 -0.5806 -0.5369
   75MOL   H29622644   2.797   5.032   5.112  0.2646 -0.6277  0.3495
   75MOL   H29722645   2.621   4.924   5.242 -1.1677  0.0681  1.5027
   75MOL   H29822646   2.506   5.066   5.398 -0.4289  0.4854  0.9244
   75MOL   H29922647   2.443   5.293   5.445 -1.0160 -0.1769 -0.3833
   75MOL   H30022648   2.421   5.469   5.256 -2.4433 -0.8732 -0.5283
   75MOL   H30122649   2.457   5.381   5.022  1.0574  1.8517  1.4996
   75MOL   H30222650   2.512   4.912   5.110 -0.9614  1.5329 -0.2615
   76MOL     C122651   6.881   4.392   1.493 -0.4335  0.7455 -0.1248
   76MOL     C222652   6.838   4.313   1.625 -0.4143  0.4217  0.0280
   76MOL     C322653   6.901   4.372   1.748  0.4363 -0.2467  0.1729
   76MOL     C422654   6.971   4.287   1.836 -0.2141 -0.1963  0.6062
   76MOL     C522655   7.031   4.341   1.945  0.1698  0.4258  0.3666
   76MOL     C622656   7.027   4.480   1.963 -0.4626 -0.4102 -0.3491
   76MOL     C722657   6.946   4.555   1.876 -0.2522 -0.4390  0.0345
   76MOL     N822658   6.883   4.502   1.774  0.3366 -0.2978  0.3515
   76MOL     H922659   6.853   4.337   1.403  0.1831 -0.0937  0.1912
   76MOL    H1022660   6.827   4.487   1.498 -1.7130  0.0110  0.0629
   76MOL    H1122661   6.878   4.214   1.602  1.9767  0.8771  2.0509
   76MOL    H1222662   6.982   4.181   1.814  2.9061  0.8984 -3.7507
   76MOL    H1322663   7.095   4.281   2.008  1.6470  0.0380 -1.4519
   76MOL    H1422664   7.084   4.524   2.044 -0.0806  2.9903 -2.3607
   76MOL    H1522665   6.943   4.662   1.890 -1.2139 -0.5012  0.3377
   76MOL    H1622666   6.987   4.419   1.498 -0.1350 -0.0036 -2.1076
   76MOL    C1722667   6.683   4.314   1.644 -0.3689 -0.6716 -0.1099
   76MOL    C1822668   6.604   4.239   1.542  1.1245 -0.0539  0.4729
   76MOL    C1922669   6.621   4.087   1.539 -0.6390  0.0474 -0.1618
   76MOL    C2022670   6.589   4.008   1.654  0.5425  0.3412  0.2777
   76MOL    C2122671   6.638   3.872   1.637  0.2287  0.2097 -0.7004
   76MOL    C2222672   6.690   3.826   1.514  0.4479 -0.6497 -0.4336
   76MOL    C2322673   6.706   3.921   1.416  0.2888 -0.0379 -0.2581
   76MOL    N2422674   6.679   4.045   1.432 -0.2106  0.2704  0.3277
   76MOL    H2522675   6.653   4.419   1.643  1.8086 -0.0128  0.7210
   76MOL    H2622676   6.650   4.279   1.742 -0.6679  1.5609  0.6227
   76MOL    H2722677   6.627   4.273   1.441 -0.4472 -0.3183  0.0171
   76MOL    H2822678   6.542   4.039   1.746 -2.6508 -1.1957 -0.7674
   76MOL    H2922679   6.625   3.794   1.711  0.3515  2.2767  1.5402
   76MOL    H3022680   6.719   3.724   1.495 -0.5978 -0.5140 -2.8970
   76MOL    H3122681   6.750   3.886   1.324  0.8860 -3.9155  1.3911
   76MOL    C3222682   6.453   4.276   1.565  0.2796 -0.4115  0.2517
   76MOL    C3322683   6.371   4.307   1.444  0.0635 -0.1168  0.3086
   76MOL    C3422684   6.404   4.443   1.381  0.1064 -0.6956 -0.2835
   76MOL    C3522685   6.319   4.549   1.396  0.5958  0.6933  0.0698
   76MOL    C3622686   6.353   4.674   1.340 -0.1110 -0.5369 -0.5739
   76MOL    C3722687   6.472   4.686   1.268  0.1430  0.4360  0.3995
   76MOL    C3822688   6.550   4.574   1.252 -0.4111  0.6121 -0.0139
   76MOL    N3922689   6.519   4.454   1.310  0.6407 -0.3676 -0.3253
   76MOL    H4022690   6.440   4.366   1.626  2.4739  1.2255 -1.6253
   76MOL    H4122691   6.395   4.206   1.625  1.5789 -1.5859  0.1769
   76MOL    H4222692   6.269   4.319   1.479 -1.4998  1.5977 -4.3533
   76MOL    H4322693   6.229   4.549   1.456 -0.1463  0.6042 -1.0177
   76MOL    H4422694   6.292   4.762   1.352  0.7930 -0.0443  0.6358
   76MOL    H4522695   6.493   4.775   1.210  1.1178  0.2455  0.4457
   76MOL    H4622696   6.645   4.571   1.202 -0.0639 -2.7416  0.7556
   76MOL    C4722697   6.373   4.199   1.336  1.0430 -0.2051 -0.6645
   76MOL    C4822698   6.328   4.057   1.374 -0.1061 -0.5487  0.2792
   76MOL    C4922699   6.185   4.037   1.418  0.4104  0.0735 -0.6530
   76MOL    C5022700   6.156   3.992   1.549  0.4240 -0.4562 -0.7265
   76MOL    C5122701   6.019   3.972   1.583 -0.3096  0.3044  0.4937
   76MOL    C5222702   5.927   4.010   1.483  0.6784 -0.4344  0.2289
   76MOL    C5322703   5.967   4.050   1.355 -0.4131  0.3534  0.4093
   76MOL    N5422704   6.091   4.072   1.327 -0.5352  0.1870  0.4561
   76MOL    H5522705   6.472   4.192   1.291  0.3064 -1.0556 -2.2051
   76MOL    H5622706   6.309   4.236   1.255  0.7695 -0.0050 -0.3587
   76MOL    H5722707   6.383   4.028   1.464 -0.0657  1.4170  0.9021
   76MOL    H5822708   6.225   3.970   1.629  0.1496 -1.1792 -0.6792
   76MOL    H5922709   5.990   3.933   1.679 -2.6668  3.1532  1.0149
   76MOL    H6022710   5.821   4.003   1.507  0.4970  0.1040 -0.3984
   76MOL    H6122711   5.887   4.080   1.289 -0.7287  1.9203  1.4882
   76MOL    C6222712   6.378   3.952   1.269  0.1313 -0.1220 -0.3059
   76MOL    C6322713   6.342   3.808   1.276  0.6997 -0.2371  0.4928
   76MOL    C6422714   6.401   3.729   1.159 -0.1509  0.2706  0.1889
   76MOL    C6522715   6.539   3.724   1.137 -0.0055  0.0578 -0.1846
   76MOL    C6622716   6.583   3.650   1.027 -0.2911 -0.1234  0.2261
   76MOL    C6722717   6.496   3.577   0.945 -0.2451 -0.2601 -0.1582
   76MOL    C6822718   6.362   3.572   0.990 -0.7813 -0.3796  0.3060
   76MOL    N6922719   6.317   3.649   1.086  0.3195 -0.0924 -0.2776
   76MOL    H7022720   6.485   3.966   1.251  0.1324  0.2213 -0.0316
   76MOL    H7122721   6.345   3.996   1.175 -3.1213 -0.6247  0.5517
   76MOL    H7222722   6.233   3.801   1.267  0.3893 -0.6103  3.8916
   76MOL    H7322723   6.605   3.781   1.201 -0.8910 -0.4117  1.1589
   76MOL    H7422724   6.684   3.670   0.993 -0.8288  1.0823 -0.6982
   76MOL    H7522725   6.523   3.513   0.862  2.8036  1.1841 -0.3480
   76MOL    H7622726   6.295   3.500   0.944  0.2616 -1.4416  0.4184
   76MOL    C7722727   6.369   3.738   1.410 -0.6587 -0.3234 -0.2253
   76MOL    C7822728   6.292   3.603   1.439  0.0392 -0.1896 -0.5692
   76MOL    C7922729   6.385   3.501   1.511  0.2396 -0.9800 -0.3068
   76MOL    C8022730   6.387   3.368   1.476 -0.0325 -0.4562  0.7240
   76MOL    C8122731   6.466   3.281   1.546 -0.1945 -0.0171  0.7985
   76MOL    C8222732   6.549   3.333   1.653  0.0792  0.9772 -0.3534
   76MOL    C8322733   6.541   3.471   1.678 -0.0150  0.1617  0.0923
   76MOL    N8422734   6.460   3.554   1.617  0.1680  0.3558 -0.1377
   76MOL    H8522735   6.356   3.798   1.501  1.5192  1.0297 -0.7786
   76MOL    H8622736   6.474   3.713   1.396  0.0257  2.0743  0.4460
   76MOL    H8722737   6.289   3.551   1.343 -0.6423  0.5786 -0.9656
   76MOL    H8822738   6.324   3.331   1.396  0.3527 -0.7633  0.5663
   76MOL    H8922739   6.476   3.175   1.524  0.5262  0.4768 -1.4692
   76MOL    H9022740   6.622   3.278   1.711 -0.4982  0.9300  0.3340
   76MOL    H9122741   6.604   3.509   1.758 -0.5727  1.1669  0.0518
   76MOL    C9222742   6.164   3.619   1.524  0.2634  0.0528 -0.3218
   76MOL    C9322743   6.038   3.542   1.472  0.2170  0.2915  0.3200
   76MOL    C9422744   5.978   3.601   1.347  0.4145 -0.2043  0.2788
   76MOL    C9522745   5.876   3.698   1.354 -0.2529 -0.5321  0.9732
   76MOL    C9622746   5.834   3.752   1.232 -0.0390  0.5783 -0.0986
   76MOL    C9722747   5.901   3.714   1.115 -0.1018 -0.3558  0.2451
   76MOL    C9822748   5.999   3.621   1.118  0.6462  0.3579 -0.1044
   76MOL    N9922749   6.042   3.570   1.233 -0.1158 -0.4962  0.3952
   76MOL   H10022750   6.135   3.724   1.536 -1.0546 -0.1286 -1.7299
   76MOL   H10122751   6.170   3.586   1.627 -0.8593 -0.2530 -0.3449
   76MOL   H10222752   5.968   3.573   1.550 -0.9079  0.7193 -0.8377
   76MOL   H10322753   5.829   3.713   1.450 -0.0346 -2.3810  1.3940
   76MOL   H10422754   5.752   3.821   1.244 -1.4015 -1.4414  2.7924
   76MOL   H10522755   5.865   3.758   1.023 -1.5201  1.2478  1.5544
   76MOL   H10622756   6.052   3.585   1.031  1.1658  0.0725  0.3277
   76MOL   C10722757   6.030   3.395   1.488  0.0685  0.2806  1.1104
   76MOL   C10822758   5.902   3.322   1.441  0.6654  0.0761 -0.9298
   76MOL   C10922759   5.911   3.169   1.458 -0.4150  0.4116 -0.4997
   76MOL   C11022760   5.849   3.082   1.368 -0.2529 -0.4334 -0.2601
   76MOL   C11122761   5.847   2.946   1.393  0.1814 -0.3603 -0.3438
   76MOL   C11222762   5.901   2.895   1.511  0.3757 -0.1300 -0.3582
   76MOL   C11322763   5.962   2.985   1.599 -0.3919 -0.4540  0.4256
   76MOL   N11422764   5.969   3.122   1.577 -0.3082 -0.4883 -0.0227
   76MOL   H11522765   6.043   3.394   1.596 -1.0035  3.1710  1.3231
   76MOL   H11622766   6.115   3.353   1.435  0.6352  0.5746  1.7779
   76MOL   H11722767   5.914   3.328   1.332 -0.7057  0.8517 -1.0436
   76MOL   H11822768   5.801   3.120   1.279 -2.6265 -0.7341  0.8575
   76MOL   H11922769   5.818   2.875   1.317  1.4079  0.5287 -1.6646
   76MOL   H12022770   5.902   2.788   1.526 -0.5210 -0.3159 -1.5507
   76MOL   H12122771   6.014   2.950   1.687 -1.9216 -1.7228  0.8564
   76MOL   C12222772   5.757   3.374   1.470  0.9257 -0.3810  0.0153
   76MOL   C12322773   5.716   3.363   1.619 -0.4911 -0.4076 -0.1044
   76MOL   C12422774   5.743   3.486   1.701 -0.3776  0.3851 -0.2865
   76MOL   C12522775   5.844   3.486   1.798 -0.1115  0.2978  0.5898
   76MOL   C12622776   5.864   3.609   1.868  0.3337  0.4202 -0.4984
   76MOL   C12722777   5.785   3.720   1.835 -0.3489 -0.0637  0.3921
   76MOL   C12822778   5.690   3.710   1.725  0.1668 -0.6560 -0.8827
   76MOL   N12922779   5.675   3.594   1.663 -0.4951  0.3538  0.0057
   76MOL   H13022780   5.693   3.302   1.418  2.3560 -1.4097 -0.3812
   76MOL   H13122781   5.741   3.475   1.431 -0.6591 -0.2797  0.8748
   76MOL   H13222782   5.773   3.279   1.660  2.2041  1.9406  1.0947
   76MOL   H13322783   5.888   3.389   1.817  0.8674  0.5797 -0.1911
   76MOL   H13422784   5.941   3.610   1.944  0.3568  2.2187 -0.5292
   76MOL   H13522785   5.798   3.810   1.892  0.0785 -0.5424  1.0592
   76MOL   H13622786   5.630   3.797   1.701  1.2388 -0.0310 -1.3368
   76MOL   C13722787   5.568   3.317   1.636  0.0264 -0.0326 -0.0340
   76MOL   C13822788   5.538   3.171   1.647 -0.4158 -0.8720 -0.0692
   76MOL   C13922789   5.582   3.102   1.781  0.0794  0.6822  0.0180
   76MOL   C14022790   5.639   2.974   1.774  0.0989 -0.4113 -0.2519
   76MOL   C14122791   5.699   2.929   1.895 -0.4504  0.0335  0.1236
   76MOL   C14222792   5.673   2.994   2.016  0.5694 -0.5107  0.1377
   76MOL   C14322793   5.595   3.110   2.010 -0.0351 -0.0333 -0.2598
   76MOL   N14422794   5.551   3.166   1.895  0.4045  0.5732 -0.3546
   76MOL   H14522795   5.510   3.376   1.564  2.5498  0.5545 -1.6614
   76MOL   H14622796   5.528   3.344   1.734 -0.1595 -0.9403  0.1407
   76MOL   H14722797   5.607   3.129   1.574  1.1799 -2.8359  2.5112
   76MOL   H14822798   5.658   2.922   1.681  1.6222  0.1337 -0.2650
   76MOL   H14922799   5.764   2.843   1.887  0.6682  1.0022 -1.5745
   76MOL   H15022800   5.718   2.959   2.108 -1.8608 -1.0563  1.1538
   76MOL   H15122801   5.571   3.154   2.106 -1.3581 -1.9798  0.3285
   76MOL   C15222802   5.392   3.152   1.609  0.1591 -0.3143 -0.2269
   76MOL   C15322803   5.360   3.178   1.455  0.1022 -0.5803  0.2561
   76MOL   C15422804   5.425   3.074   1.361 -0.3248  0.0153 -0.0278
   76MOL   C15522805   5.364   2.948   1.357 -0.4099 -0.0457  0.1727
   76MOL   C15622806   5.401   2.855   1.258 -0.0527  0.1571  0.5172
   76MOL   C15722807   5.502   2.898   1.166  0.1706  1.4058 -0.4136
   76MOL   C15822808   5.563   3.019   1.180  1.1367  0.1584 -0.0586
   76MOL   N15922809   5.526   3.108   1.279 -0.3031 -0.7176 -0.3264
   76MOL   H16022810   5.333   3.234   1.650 -0.8799  0.8962 -3.9323
   76MOL   H16122811   5.360   3.053   1.643  3.1973 -0.9781  0.8962
   76MOL   H16222812   5.390   3.275   1.416 -0.1049 -0.6008  0.0486
   76MOL   H16322813   5.283   2.922   1.423 -1.1503  2.1859  0.1551
   76MOL   H16422814   5.340   2.767   1.244 -1.7545  1.1481  1.6031
   76MOL   H16522815   5.531   2.826   1.092 -0.1768 -1.3404  2.0096
   76MOL   H16622816   5.641   3.051   1.112  1.8362 -1.0917  0.1451
   76MOL   C16722817   5.204   3.176   1.427 -0.5944  0.0713 -1.0091
   76MOL   C16822818   5.125   3.293   1.495 -0.3551  0.2167  0.2606
   76MOL   C16922819   5.181   3.433   1.462  0.3690  0.0662  0.8112
   76MOL   C17022820   5.252   3.499   1.565 -0.0874  0.5269 -0.6728
   76MOL   C17122821   5.292   3.630   1.530  0.3832 -0.1490 -0.4524
   76MOL   C17222822   5.274   3.686   1.405  0.4657 -0.9292  0.7154
   76MOL   C17322823   5.200   3.611   1.313  0.1370  1.2406  0.6515
   76MOL   N17422824   5.160   3.479   1.336  0.0320 -0.2458  0.0228
   76MOL   H17522825   5.159   3.084   1.463  2.2166 -1.2889 -0.8446
   76MOL   H17622826   5.186   3.177   1.320  0.6630  1.7721 -1.2362
   76MOL   H17722827   5.138   3.280   1.603 -0.9514  3.4721  0.7652
   76MOL   H17822828   5.278   3.453   1.659 -1.7658  0.3952 -0.2607
   76MOL   H17922829   5.350   3.682   1.605 -0.1668  0.3076 -0.3439
   76MOL   H18022830   5.307   3.786   1.382  1.0593 -1.7774 -2.3654
   76MOL   H18122831   5.175   3.654   1.218 -1.0165  2.0403  1.3091
   76MOL   C18222832   4.972   3.285   1.459 -0.1162  0.2255 -0.0338
   76MOL   C18322833   4.870   3.350   1.562 -0.4852 -0.6146 -0.0989
   76MOL   C18422834   4.875   3.502   1.548  0.3785  0.1752 -0.4613
   76MOL   C18522835   4.843   3.573   1.433 -0.0923 -0.7723  0.1131
   76MOL   C18622836   4.867   3.709   1.431  0.9628 -0.0671 -0.1079
   76MOL   C18722837   4.913   3.771   1.547  0.4829 -0.7096 -0.4140
   76MOL   C18822838   4.941   3.696   1.661  1.1468  0.1571 -0.2368
   76MOL   N18922839   4.912   3.565   1.664  0.4132  0.1465  0.0686
   76MOL   H19022840   4.956   3.177   1.458 -1.0927  0.3797 -2.0856
   76MOL   H19122841   4.950   3.311   1.356 -2.7305 -1.4386  0.0786
   76MOL   H19222842   4.902   3.316   1.660  1.6297  0.3718 -0.4166
   76MOL   H19322843   4.811   3.517   1.346  1.2663 -0.9152 -0.3075
   76MOL   H19422844   4.846   3.774   1.347 -2.1451 -3.2922 -1.9768
   76MOL   H19522845   4.916   3.879   1.549 -3.4602 -0.5223 -0.0756
   76MOL   H19622846   4.975   3.737   1.755 -0.1194  1.2813 -0.2558
   76MOL   C19722847   4.717   3.298   1.537 -0.7448 -0.3858 -0.1527
   76MOL   C19822848   4.604   3.358   1.622  0.1390  0.1231 -0.5134
   76MOL   C19922849   4.469   3.283   1.600 -0.1617  0.6263 -0.9239
   76MOL   C20022850   4.355   3.361   1.562 -0.0002  0.4411 -0.0722
   76MOL   C20122851   4.235   3.291   1.551  0.4083  0.3475 -0.6236
   76MOL   C20222852   4.236   3.154   1.581  0.6720  0.3328  0.6067
   76MOL   C20322853   4.352   3.083   1.608 -0.3938  0.3994 -0.7895
   76MOL   N20422854   4.466   3.151   1.622  0.2008  0.2545 -0.0803
   76MOL   H20522855   4.723   3.189   1.542 -1.0562 -0.2992  3.6393
   76MOL   H20622856   4.696   3.320   1.433 -2.7388 -1.8109 -0.0803
   76MOL   H20722857   4.594   3.459   1.584 -0.2895 -0.0926 -0.9873
   76MOL   H20822858   4.351   3.465   1.533  0.7827  0.6050  0.3866
   76MOL   H20922859   4.144   3.343   1.523  1.1453  0.9925 -1.8816
   76MOL   H21022860   4.143   3.099   1.581  1.1210 -0.4352  0.9766
   76MOL   H21122861   4.354   2.977   1.631 -4.1394  0.6581  0.9831
   76MOL   C21222862   4.630   3.373   1.780  0.5481 -0.9646 -0.0001
   76MOL   C21322863   4.555   3.483   1.852  0.2865  0.3857  0.6540
   76MOL   C21422864   4.549   3.453   1.999 -0.1742 -0.0718 -0.4088
   76MOL   C21522865   4.423   3.449   2.072  0.1061  0.3899  0.2937
   76MOL   C21622866   4.428   3.424   2.210 -0.4138  0.8405 -0.5741
   76MOL   C21722867   4.554   3.396   2.272  0.8547  0.2947  0.3542
   76MOL   C21822868   4.666   3.409   2.195 -0.1980 -0.0910 -0.1264
   76MOL   N21922869   4.671   3.442   2.065  0.4056 -0.0852  0.2778
   76MOL   H22022870   4.734   3.392   1.805  0.3327  1.7940 -1.0583
   76MOL   H22122871   4.610   3.276   1.826 -2.3946  0.7010  2.3968
   76MOL   H22222872   4.453   3.481   1.813  1.5007  2.6760 -2.9397
   76MOL   H22322873   4.324   3.462   2.030 -0.3597 -2.1681  0.5007
   76MOL   H22422874   4.342   3.408   2.274 -0.7300 -3.5107 -1.9256
   76MOL   H22522875   4.573   3.376   2.376 -0.7726  1.4631  0.9015
   76MOL   H22622876   4.762   3.402   2.243 -0.2808 -0.1724  0.0276
   76MOL   C22722877   4.625   3.622   1.834 -0.1975 -0.9012  0.3050
   76MOL   C22822878   4.577   3.740   1.919 -1.0387 -0.0398  0.1529
   76MOL   C22922879   4.663   3.860   1.911  0.0327  0.8878 -0.1651
   76MOL   C23022880   4.772   3.872   2.000  0.7942 -0.3382  0.2763
   76MOL   C23122881   4.840   3.996   1.987  0.2324 -0.2505 -0.4103
   76MOL   C23222882   4.805   4.084   1.879  0.2297 -0.9200  0.2487
   76MOL   C23322883   4.705   4.048   1.789  0.0843 -0.4454  0.0061
   76MOL   N23422884   4.637   3.935   1.803 -0.6760 -0.6846  0.7253
   76MOL   H23522885   4.630   3.644   1.728  0.8163  1.3767  0.8007
   76MOL   H23622886   4.730   3.610   1.861 -0.0367  3.3627  1.9150
   76MOL   H23722887   4.585   3.699   2.020 -2.1873 -0.6630  0.0093
   76MOL   H23822888   4.798   3.803   2.078  2.6553 -0.3253 -0.3230
   76MOL   H23922889   4.926   4.011   2.050  0.4278 -0.9243 -0.5151
   76MOL   H24022890   4.865   4.170   1.856 -1.4538 -0.0880 -1.1042
   76MOL   H24122891   4.686   4.106   1.701 -2.1601 -0.7993  0.2207
   76MOL   C24222892   4.426   3.767   1.892 -0.1025 -0.4834  0.0267
   76MOL   C24322893   4.363   3.886   1.964  0.4878 -0.1044  0.3813
   76MOL   C24422894   4.233   3.919   1.890  0.3804  0.3432 -0.1288
   76MOL   C24522895   4.230   4.025   1.802  0.3153 -0.1059 -0.7775
   76MOL   C24622896   4.120   4.046   1.722 -0.2096  0.2119 -0.6117
   76MOL   C24722897   4.011   3.958   1.728 -0.1413  0.5890  0.3008
   76MOL   C24822898   4.025   3.849   1.815  0.0993  0.0107 -0.2951
   76MOL   N24922899   4.130   3.832   1.893 -0.4140  0.7362  0.2441
   76MOL   H25022900   4.360   3.681   1.902  0.4775 -1.0415 -0.8599
   76MOL   H25122901   4.420   3.787   1.785  2.3133  0.2733 -0.0116
   76MOL   H25222902   4.433   3.969   1.953 -0.3412  0.2495 -2.6366
   76MOL   H25322903   4.313   4.093   1.790  1.9716 -1.7357  1.0042
   76MOL   H25422904   4.118   4.130   1.653  0.1390  1.1764  0.5407
   76MOL   H25522905   3.925   3.959   1.662  1.6109 -1.6142 -2.1822
   76MOL   H25622906   3.959   3.763   1.821 -0.7252  0.6166 -0.6096
   76MOL   C25722907   4.344   3.852   2.116  0.3630 -0.2369 -0.4500
   76MOL   C25822908   4.349   3.975   2.211 -0.1286  0.0585  0.4490
   76MOL   C25922909   4.280   3.947   2.342 -0.3501 -0.1445  0.4659
   76MOL   C26022910   4.280   3.820   2.404  0.0803 -0.2701  0.4942
   76MOL   C26122911   4.209   3.796   2.526  0.4294 -0.3486  0.2481
   76MOL   C26222912   4.146   3.909   2.585 -0.0874  0.1005  0.0387
   76MOL   C26322913   4.146   4.026   2.511 -0.1549  0.1538 -0.5099
   76MOL   N26422914   4.217   4.051   2.396  0.6156  0.1611 -0.7087
   76MOL   H26522915   4.425   3.789   2.151 -0.0857 -1.1698 -1.0751
   76MOL   H26622916   4.253   3.796   2.134  0.4243 -0.7227 -1.6240
   76MOL   H26722917   4.284   4.050   2.166 -1.1216  0.4250  2.4278
   76MOL   H26822918   4.332   3.734   2.366  0.6250  0.0311  0.5630
   76MOL   H26922919   4.192   3.696   2.561  1.1441 -0.5881 -0.0840
   76MOL   H27022920   4.093   3.911   2.680 -0.4975 -1.0403 -0.1491
   76MOL   H27122921   4.093   4.110   2.553  1.2315  2.2884 -2.9044
   76MOL   C27222922   4.488   4.042   2.233  0.4546  0.3532  0.8848
   76MOL   C27322923   4.490   4.192   2.217 -0.1303 -0.2505  0.6042
   76MOL   C27422924   4.601   4.257   2.302  0.0060 -0.0085 -0.7955
   76MOL   C27522925   4.563   4.362   2.391 -0.1322  0.0313  0.2214
   76MOL   C27622926   4.664   4.446   2.445  0.8204  0.0085 -0.1507
   76MOL   C27722927   4.799   4.416   2.416  0.2923 -0.4136 -0.1692
   76MOL   C27822928   4.823   4.305   2.336  0.0931  0.3237 -0.0588
   76MOL   N27922929   4.722   4.225   2.280 -0.7275  0.7151  0.6681
   76MOL   H28022930   4.556   3.996   2.161 -1.0983 -0.3246 -0.1756
   76MOL   H28122931   4.525   4.018   2.333 -0.0066 -0.6149  0.8316
   76MOL   H28222932   4.399   4.248   2.238 -0.2317  0.7416 -2.3247
   76MOL   H28322933   4.458   4.385   2.393 -0.1692 -0.1615  0.4808
   76MOL   H28422934   4.655   4.531   2.510 -0.3923  0.5243 -0.9715
   76MOL   H28522935   4.880   4.478   2.451 -0.2196  0.1000  0.0954
   76MOL   H28622936   4.926   4.277   2.317 -0.5864 -3.3816  1.2638
   76MOL   C28722937   4.505   4.222   2.066  0.1997 -0.2048 -0.1413
   76MOL   C28822938   4.506   4.367   2.022 -0.2996 -0.1781 -0.2787
   76MOL   C28922939   4.501   4.375   1.874 -0.3570  0.0137 -0.1953
   76MOL   C29022940   4.619   4.400   1.795  0.3465 -0.9622 -0.2411
   76MOL   C29122941   4.611   4.392   1.652 -1.0588  0.1526  0.4713
   76MOL   C29222942   4.483   4.378   1.599  0.2397  0.0065  0.0762
   76MOL   C29322943   4.375   4.352   1.682 -0.2223 -0.6197  0.0201
   76MOL   N29422944   4.384   4.347   1.817 -0.4101 -0.4157 -0.2290
   76MOL   H29522945   4.414   4.180   2.024 -1.2252  0.9406  1.7180
   76MOL   H29622946   4.589   4.168   2.024  0.6368  1.1149 -0.9854
   76MOL   H29722947   4.594   4.427   2.048 -1.0478 -0.1601  2.4151
   76MOL   H29822948   4.720   4.415   1.832  0.6075  0.8242 -1.6029
   76MOL   H29922949   4.694   4.408   1.584 -1.7783  0.1721 -0.3978
   76MOL   H30022950   4.459   4.376   1.493  0.7806 -1.1002 -0.0229
   76MOL   H30122951   4.274   4.338   1.648  0.3869  0.9129 -2.5307
   76MOL   H30222952   4.422   4.427   2.060  0.8803  1.5191 -0.2720
   77MOL     C122953   3.291   4.092   4.468 -0.4584  0.0270  0.1680
   77MOL     C222954   3.436   4.081   4.426 -0.4403 -0.3807  0.1670
   77MOL     C322955   3.488   3.940   4.448  0.7013 -0.5464 -0.1903
   77MOL     C422956   3.539   3.904   4.572 -0.6324 -0.0643 -0.2820
   77MOL     C522957   3.559   3.769   4.601  0.5918 -0.4555  0.2682
   77MOL     C622958   3.536   3.679   4.498 -0.0250 -0.5017 -0.6750
   77MOL     C722959   3.492   3.725   4.374 -0.4351  0.2298 -0.1139
   77MOL     N822960   3.457   3.855   4.355  0.2640 -0.5979 -0.5648
   77MOL     H922961   3.242   4.009   4.417 -2.2353  2.2303 -1.8332
   77MOL    H1022962   3.293   4.088   4.577  2.7348  0.4051  0.1667
   77MOL    H1122963   3.477   4.147   4.502 -1.5426  2.2149 -1.4248
   77MOL    H1222964   3.555   3.979   4.649 -1.2110  1.8519 -1.9904
   77MOL    H1322965   3.609   3.740   4.692  3.0184  0.6245 -0.6682
   77MOL    H1422966   3.565   3.576   4.511  1.2522 -0.5191 -3.2365
   77MOL    H1522967   3.462   3.660   4.293  0.0845 -0.9709  0.6340
   77MOL    H1622968   3.246   4.185   4.432  1.7780  1.3187  0.6070
   77MOL    C1722969   3.484   4.147   4.290 -0.0854  0.3704 -1.0263
   77MOL    C1822970   3.638   4.142   4.255  0.3303  0.4865 -0.9628
   77MOL    C1922971   3.675   4.176   4.117 -0.1220  0.4325  0.5125
   77MOL    C2022972   3.767   4.108   4.031  0.3192 -0.3752  0.4756
   77MOL    C2122973   3.790   4.154   3.900  0.2778 -0.3043 -0.5517
   77MOL    C2222974   3.705   4.248   3.845 -0.4062  0.0005 -0.2505
   77MOL    C2322975   3.619   4.311   3.931 -0.0499  0.5799 -0.0642
   77MOL    N2422976   3.598   4.282   4.060  0.5186 -0.2041  0.2613
   77MOL    H2522977   3.445   4.247   4.274  1.2001  1.0604  0.0802
   77MOL    H2622978   3.449   4.085   4.207  2.2477 -0.0632 -1.7200
   77MOL    H2722979   3.673   4.039   4.258 -0.9975 -0.0291 -2.4468
   77MOL    H2822980   3.831   4.028   4.064  0.5989  0.0137  0.8785
   77MOL    H2922981   3.861   4.096   3.843 -0.4565  1.2731 -3.1848
   77MOL    H3022982   3.715   4.272   3.740 -1.1063  0.4393 -0.2185
   77MOL    H3122983   3.562   4.394   3.891 -1.2884  0.5445  1.5412
   77MOL    C3222984   3.717   4.223   4.357  0.2773 -0.0395 -0.7026
   77MOL    C3322985   3.876   4.246   4.324 -0.1546  0.1761 -0.2258
   77MOL    C3422986   3.905   4.391   4.311 -0.2889 -0.1708 -0.4753
   77MOL    C3522987   3.948   4.453   4.195  0.1952  1.0031 -0.3494
   77MOL    C3622988   3.972   4.589   4.191 -0.2614  0.0677  0.2580
   77MOL    C3722989   3.945   4.658   4.312 -0.7358  0.1124 -0.6256
   77MOL    C3822990   3.900   4.591   4.426 -0.5213  0.2163  0.5483
   77MOL    N3922991   3.879   4.459   4.424  0.0213  0.4479 -0.4534
   77MOL    H4022992   3.705   4.192   4.461 -0.6528 -3.5379 -1.7800
   77MOL    H4122993   3.665   4.318   4.369 -1.2947 -0.9969  0.1845
   77MOL    H4222994   3.895   4.206   4.224 -0.0764  0.6963 -0.4252
   77MOL    H4322995   3.945   4.400   4.101  0.6961 -2.0308  1.2633
   77MOL    H4422996   4.000   4.629   4.095  1.6391  1.5712  1.3981
   77MOL    H4522997   3.959   4.765   4.308 -1.5451  0.2638  0.4031
   77MOL    H4622998   3.886   4.638   4.523 -0.5348  1.5070 -0.0575
   77MOL    C4722999   3.971   4.177   4.427 -0.3856 -0.2749 -0.6750
   77MOL    C4823000   3.973   4.026   4.450  0.5234  0.0889 -0.0510
   77MOL    C4923001   3.978   3.951   4.323 -0.1510  0.2659 -0.1202
   77MOL    C5023002   3.906   3.837   4.296 -0.7814 -0.2373 -0.0764
   77MOL    C5123003   3.918   3.778   4.167 -0.7313 -0.6748 -0.1973
   77MOL    C5223004   4.010   3.833   4.073 -1.2812 -0.3759 -0.8758
   77MOL    C5323005   4.086   3.946   4.120  0.5094  0.2052  0.5702
   77MOL    N5423006   4.068   4.003   4.237  0.8613 -0.0595  0.1415
   77MOL    H5523007   3.934   4.216   4.522 -0.6488 -0.7862 -0.5622
   77MOL    H5623008   4.072   4.208   4.400  0.4392 -1.7606  0.5663
   77MOL    H5723009   3.884   3.999   4.507 -0.3055  1.8469 -0.4853
   77MOL    H5823010   3.848   3.798   4.378 -0.8294 -1.8539 -0.8647
   77MOL    H5923011   3.868   3.686   4.141 -1.3704 -0.0800 -1.0937
   77MOL    H6023012   4.019   3.781   3.979 -1.2502 -0.5032 -0.8039
   77MOL    H6123013   4.167   3.991   4.064  0.5834 -0.1454  0.3936
   77MOL    C6223014   4.102   3.997   4.531 -0.3043  0.1301  0.0075
   77MOL    C6323015   4.106   3.857   4.600 -0.0730  0.9641  0.2378
   77MOL    C6423016   4.243   3.817   4.654 -0.6570  0.2485  0.1200
   77MOL    C6523017   4.315   3.712   4.596  0.9627  0.0525 -0.2251
   77MOL    C6623018   4.448   3.687   4.636  0.0836  0.7672  0.2338
   77MOL    C6723019   4.498   3.766   4.746 -0.1016 -0.4978 -0.1570
   77MOL    C6823020   4.415   3.866   4.795 -0.4377 -0.1985  0.4135
   77MOL    N6923021   4.291   3.884   4.757  0.1663 -0.8551  0.2018
   77MOL    H7023022   4.119   4.068   4.611 -0.1959 -0.3893  0.4476
   77MOL    H7123023   4.187   4.000   4.463  1.2305 -2.4639  1.7173
   77MOL    H7223024   4.091   3.793   4.513  1.2844  1.0258 -0.0439
   77MOL    H7323025   4.279   3.662   4.508  2.4306 -1.6663  0.1280
   77MOL    H7423026   4.502   3.614   4.577 -1.9282 -1.6309  1.2957
   77MOL    H7523027   4.599   3.761   4.783  0.1290  0.8028 -0.5981
   77MOL    H7623028   4.448   3.941   4.865  2.7546 -2.8948  1.9729
   77MOL    C7723029   3.993   3.843   4.710 -0.2085  0.2694  0.6347
   77MOL    C7823030   3.975   3.695   4.759 -0.1286 -0.1302  0.7695
   77MOL    C7923031   3.888   3.685   4.889 -0.4016  0.3257 -0.0135
   77MOL    C8023032   3.929   3.610   4.999 -0.9093  0.2151 -0.2351
   77MOL    C8123033   3.861   3.626   5.119  0.7473  0.5984  0.1880
   77MOL    C8223034   3.758   3.724   5.122 -0.0855  0.6894 -0.7242
   77MOL    C8323035   3.722   3.789   5.000  0.3254 -0.2637 -0.6027
   77MOL    N8423036   3.789   3.772   4.888 -0.4063  0.3006  0.3017
   77MOL    H8523037   3.896   3.880   4.676 -1.1475 -1.3221  1.5177
   77MOL    H8623038   4.012   3.907   4.796  0.9578  1.5447 -0.5483
   77MOL    H8723039   4.073   3.656   4.787 -0.3559  0.6653  2.7228
   77MOL    H8823040   4.010   3.540   4.987 -1.0714 -0.2046  1.0095
   77MOL    H8923041   3.881   3.577   5.213 -1.2720 -0.2223  0.2300
   77MOL    H9023042   3.693   3.748   5.204  1.1275  0.8356  0.2043
   77MOL    H9123043   3.647   3.867   5.004  1.3400  0.6738  0.6622
   77MOL    C9223044   3.910   3.602   4.650 -0.4582 -0.4730 -0.0594
   77MOL    C9323045   3.897   3.457   4.684  0.4264  0.7718 -0.0117
   77MOL    C9423046   3.803   3.383   4.588 -0.1060  0.0906  0.1460
   77MOL    C9523047   3.837   3.351   4.450  0.5823 -0.2184 -0.1245
   77MOL    C9623048   3.737   3.309   4.362  0.0688  0.1156  0.3001
   77MOL    C9723049   3.608   3.287   4.415  0.0811 -0.1231 -0.8977
   77MOL    C9823050   3.586   3.307   4.554 -0.0198 -0.4725 -0.3057
   77MOL    N9923051   3.682   3.358   4.634  0.4621 -0.4745 -0.5139
   77MOL   H10023052   3.960   3.615   4.554  2.1557 -0.4789  1.2580
   77MOL   H10123053   3.808   3.633   4.627 -0.1721 -0.0520 -0.8301
   77MOL   H10223054   3.856   3.441   4.784  1.2509 -1.1380  0.0387
   77MOL   H10323055   3.932   3.378   4.408  0.9475  0.9182  1.3496
   77MOL   H10423056   3.753   3.298   4.255  1.9445  3.1286  0.2260
   77MOL   H10523057   3.529   3.251   4.352 -0.4364 -0.1370 -0.2474
   77MOL   H10623058   3.485   3.302   4.593  0.0691 -2.7854 -0.3101
   77MOL   C10723059   4.038   3.389   4.683  0.4353 -0.2887 -0.1998
   77MOL   C10823060   4.052   3.247   4.746 -0.3508 -0.4812  0.6264
   77MOL   C10923061   4.007   3.240   4.887 -0.2072 -0.8595  0.1532
   77MOL   C11023062   3.878   3.201   4.930 -0.3748 -0.4091 -0.6624
   77MOL   C11123063   3.854   3.183   5.067  0.3228  0.1260  0.3954
   77MOL   C11223064   3.958   3.207   5.155 -0.7764  0.2098  0.4035
   77MOL   C11323065   4.084   3.241   5.103  0.0902  1.0932 -0.9583
   77MOL   N11423066   4.107   3.263   4.975  0.4292  0.2950  0.7484
   77MOL   H11523067   4.105   3.448   4.745  0.0673 -0.1610  0.0827
   77MOL   H11623068   4.080   3.392   4.582 -1.8752  2.1958 -1.1367
   77MOL   H11723069   4.160   3.240   4.749 -0.1921  1.8534  1.5532
   77MOL   H11823070   3.802   3.171   4.859 -0.8323 -1.2272  0.1541
   77MOL   H11923071   3.758   3.146   5.099  1.0432 -1.7610  0.4807
   77MOL   H12023072   3.947   3.196   5.262 -1.4738 -1.1142  0.1990
   77MOL   H12123073   4.168   3.247   5.171  0.5430 -0.7495 -1.3291
   77MOL   C12223074   4.008   3.129   4.658 -0.5676  0.5788 -0.3123
   77MOL   C12323075   4.057   2.996   4.712 -0.1383  0.3088  0.0440
   77MOL   C12423076   3.964   2.888   4.660 -0.0880 -0.3036 -0.4994
   77MOL   C12523077   3.853   2.859   4.737  0.1213  0.0828 -0.1752
   77MOL   C12623078   3.763   2.756   4.693  0.3176 -0.5710 -0.1384
   77MOL   C12723079   3.788   2.706   4.563  0.4083  0.3523  0.0979
   77MOL   C12823080   3.899   2.751   4.490 -0.4707 -0.0561 -1.2729
   77MOL   N12923081   3.990   2.836   4.540 -0.0093 -0.1161 -0.7888
   77MOL   H13023082   4.040   3.151   4.556  2.9824  0.3205  0.6899
   77MOL   H13123083   3.899   3.139   4.660 -0.7367 -0.9152 -1.5447
   77MOL   H13223084   4.042   2.989   4.820  2.8551 -1.2655  0.4157
   77MOL   H13323085   3.835   2.917   4.827  2.3488  0.3748  0.0991
   77MOL   H13423086   3.685   2.720   4.759 -0.0925 -0.5032 -0.5846
   77MOL   H13523087   3.720   2.634   4.519  2.3123 -1.3345 -0.2242
   77MOL   H13623088   3.934   2.710   4.396  0.3636 -2.6620  0.1305
   77MOL   C13723089   4.208   2.959   4.694  0.6355 -0.3942 -0.2599
   77MOL   C13823090   4.251   2.826   4.756  0.6909  0.0459 -0.1624
   77MOL   C13923091   4.394   2.779   4.697  0.1749 -0.4610 -0.3279
   77MOL   C14023092   4.414   2.641   4.656  0.1354 -0.3527 -0.1756
   77MOL   C14123093   4.546   2.609   4.613 -1.0314  0.8851 -0.3252
   77MOL   C14223094   4.638   2.707   4.602 -0.0264  0.4896 -0.1457
   77MOL   C14323095   4.609   2.837   4.647  0.1047  0.0174  0.1021
   77MOL   N14423096   4.494   2.867   4.706 -0.8285 -0.0168  0.7226
   77MOL   H14523097   4.275   3.029   4.743  0.0800  0.5790 -0.8697
   77MOL   H14623098   4.228   2.964   4.587  0.2291 -3.5805 -0.5523
   77MOL   H14723099   4.175   2.756   4.720  2.0184 -1.6877  0.3355
   77MOL   H14823100   4.336   2.566   4.652 -0.8447  0.6421 -0.0596
   77MOL   H14923101   4.572   2.507   4.588 -1.2172  1.3262 -2.4093
   77MOL   H15023102   4.735   2.668   4.576  0.5214  1.5625  0.2139
   77MOL   H15123103   4.685   2.914   4.649  0.7403 -0.5993 -0.0754
   77MOL   C15223104   4.263   2.830   4.909 -0.1160 -0.3545  0.2390
   77MOL   C15323105   4.145   2.766   4.990 -0.6449  0.0628  0.0079
   77MOL   C15423106   4.127   2.616   4.960 -0.1720  0.1196  0.2556
   77MOL   C15523107   4.007   2.560   4.905 -0.0900 -1.0027  0.1998
   77MOL   C15623108   3.996   2.422   4.886 -0.0105 -0.4519 -0.3910
   77MOL   C15723109   4.109   2.340   4.910  0.3970 -0.2256 -0.6527
   77MOL   C15823110   4.224   2.405   4.974 -0.0834  0.4877 -0.2019
   77MOL   N15923111   4.232   2.536   4.997 -0.0932 -0.4562  0.0365
   77MOL   H16023112   4.271   2.932   4.948 -0.5877 -0.7255  1.2955
   77MOL   H16123113   4.351   2.774   4.939 -0.0168 -0.6859 -0.6468
   77MOL   H16223114   4.058   2.825   4.964 -1.4625 -2.2365 -2.5877
   77MOL   H16323115   3.919   2.621   4.889 -0.6115 -2.0409 -0.8918
   77MOL   H16423116   3.905   2.382   4.843  0.8076 -2.9463  0.1340
   77MOL   H16523117   4.111   2.234   4.892  1.9386 -0.0009 -1.9127
   77MOL   H16623118   4.317   2.357   5.003  0.4888  2.6154  1.6329
   77MOL   C16723119   4.156   2.803   5.134  0.1435 -0.0172 -0.4277
   77MOL   C16823120   4.036   2.764   5.229  0.2326  0.2758 -0.2741
   77MOL   C16923121   4.091   2.749   5.375 -0.5312 -0.9107  0.1433
   77MOL   C17023122   4.184   2.840   5.432  0.3913 -0.3982  0.0285
   77MOL   C17123123   4.258   2.810   5.545 -1.1421 -0.0323 -0.2868
   77MOL   C17223124   4.216   2.692   5.613 -0.4271  0.8528 -0.2408
   77MOL   C17323125   4.124   2.604   5.549 -0.1896 -0.1501  0.6129
   77MOL   N17423126   4.059   2.636   5.435 -0.3880 -0.2935 -0.3463
   77MOL   H17523127   4.169   2.911   5.143  0.1002  0.0118 -0.7068
   77MOL   H17623128   4.244   2.748   5.169  0.7608  0.9702 -0.4021
   77MOL   H17723129   4.007   2.665   5.194 -0.1502 -0.3868  1.8709
   77MOL   H17823130   4.201   2.929   5.374 -1.5893 -1.0193 -1.5995
   77MOL   H17923131   4.327   2.880   5.589  0.5630 -3.4631  2.7565
   77MOL   H18023132   4.259   2.665   5.708 -0.1382  3.1062  0.3040
   77MOL   H18123133   4.098   2.509   5.594 -0.5690 -0.0646  0.5702
   77MOL   C18223134   3.908   2.847   5.212 -0.0061  0.2315  0.6481
   77MOL   C18323135   3.777   2.764   5.247 -0.8267  0.1958  0.9217
   77MOL   C18423136   3.662   2.840   5.309  0.1484  0.2069  1.2328
   77MOL   C18523137   3.651   2.852   5.449  0.3289  0.2838 -0.4656
   77MOL   C18623138   3.540   2.908   5.499  0.3284 -0.1148 -0.2912
   77MOL   C18723139   3.450   2.970   5.414  0.6579  0.6794 -0.0105
   77MOL   C18823140   3.464   2.963   5.275  0.5162  0.5232  0.3230
   77MOL   N18923141   3.575   2.896   5.221  0.7516  0.0886 -0.1471
   77MOL   H19023142   3.896   2.874   5.107  0.0587 -1.2121  0.2604
   77MOL   H19123143   3.914   2.936   5.274  0.7172  0.6070  0.0453
   77MOL   H19223144   3.816   2.701   5.328  1.5463 -0.1688 -0.4391
   77MOL   H19323145   3.724   2.805   5.512  1.7907 -0.0899 -2.3916
   77MOL   H19423146   3.535   2.911   5.606  0.1851  1.5575 -0.3344
   77MOL   H19523147   3.365   3.022   5.455  0.3942 -0.6666  1.1984
   77MOL   H19623148   3.392   3.013   5.211  0.7194  0.6065  0.1608
   77MOL   C19723149   3.744   2.664   5.130 -0.3632 -0.0985 -0.2934
   77MOL   C19823150   3.612   2.577   5.145  0.3021 -0.5836 -0.7540
   77MOL   C19923151   3.562   2.551   5.003 -0.0601  0.4461 -0.5577
   77MOL   C20023152   3.438   2.595   4.959 -0.2211  0.2407 -0.2639
   77MOL   C20123153   3.396   2.568   4.825  0.4934  0.7357  0.4618
   77MOL   C20223154   3.483   2.487   4.741  0.0104  0.1488 -0.4184
   77MOL   C20323155   3.604   2.447   4.794 -0.3967  0.5944 -0.1401
   77MOL   N20423156   3.647   2.481   4.921  0.5599  0.0306 -0.5285
   77MOL   H20523157   3.826   2.593   5.116 -1.0652 -1.1413  0.7860
   77MOL   H20623158   3.739   2.723   5.038  1.7474  0.3664 -0.1385
   77MOL   H20723159   3.531   2.634   5.189  1.2237 -0.0260  0.2430
   77MOL   H20823160   3.372   2.651   5.023  0.3153  0.8375 -0.2245
   77MOL   H20923161   3.304   2.605   4.782  2.3056  2.5778 -1.9700
   77MOL   H21023162   3.459   2.456   4.640 -0.8657 -0.5227 -0.0134
   77MOL   H21123163   3.672   2.395   4.729 -0.0528  0.6979  0.1350
   77MOL   C21223164   3.620   2.447   5.230 -0.0735 -0.6649  0.4176
   77MOL   C21323165   3.612   2.474   5.381  0.0444 -0.3673  0.3954
   77MOL   C21423166   3.471   2.451   5.440 -0.0345  0.7490  0.1967
   77MOL   C21523167   3.414   2.320   5.438 -0.1612 -0.2277 -0.3940
   77MOL   C21623168   3.285   2.295   5.495  0.4940  0.0139 -0.1232
   77MOL   C21723169   3.222   2.402   5.562 -0.5533 -0.1070 -0.1968
   77MOL   C21823170   3.287   2.528   5.555  0.3995 -0.2328  0.2964
   77MOL   N21923171   3.402   2.552   5.489  0.9185  1.0163 -0.0574
   77MOL   H22023172   3.708   2.388   5.205  0.6887  0.3701  0.5754
   77MOL   H22123173   3.536   2.382   5.209  1.4208 -2.4622 -0.0637
   77MOL   H22223174   3.656   2.572   5.400  0.9411 -1.2512  3.1830
   77MOL   H22323175   3.471   2.237   5.398 -0.5024 -0.3715 -0.5826
   77MOL   H22423176   3.236   2.199   5.498  0.3240  0.1450  2.6464
   77MOL   H22523177   3.123   2.385   5.602  0.3391 -2.0648  1.2754
   77MOL   H22623178   3.226   2.611   5.588  0.9994  0.4499 -0.2884
   77MOL   C22723179   3.710   2.383   5.456  1.8244 -0.0540 -0.3847
   77MOL   C22823180   3.695   2.397   5.611 -0.2395  0.3215 -1.0803
   77MOL   C22923181   3.776   2.296   5.682  0.1238 -0.2385 -0.5598
   77MOL   C23023182   3.726   2.193   5.764  0.3590  0.5317  0.1400
   77MOL   C23123183   3.809   2.106   5.837  0.5385  0.0544  0.2388
   77MOL   C23223184   3.947   2.124   5.811  0.2505  0.9262  1.5238
   77MOL   C23323185   3.997   2.232   5.737 -0.8941  0.1468  0.2945
   77MOL   N23423186   3.912   2.321   5.672  0.4994  0.6920 -0.4086
   77MOL   H23523187   3.810   2.405   5.421  1.1948  1.0703 -1.5244
   77MOL   H23623188   3.693   2.278   5.432  1.1801 -0.6349  2.4637
   77MOL   H23723189   3.600   2.358   5.647 -0.9638  3.7893  1.0790
   77MOL   H23823190   3.619   2.185   5.777  0.3399 -0.7719 -0.7013
   77MOL   H23923191   3.769   2.033   5.906 -2.0161  0.5833 -0.6265
   77MOL   H24023192   4.012   2.053   5.859 -0.8232 -0.4285  1.0103
   77MOL   H24123193   4.102   2.254   5.724 -0.8571  0.7700  1.6289
   77MOL   C24223194   3.718   2.543   5.661  0.6704  0.7433 -0.7640
   77MOL   C24323195   3.696   2.570   5.810 -0.2303 -0.7200  0.4558
   77MOL   C24423196   3.763   2.700   5.847  0.6281  0.4503  0.1456
   77MOL   C24523197   3.893   2.702   5.903  0.7487 -0.0212  0.1365
   77MOL   C24623198   3.945   2.829   5.946 -0.1408  0.6945  0.1277
   77MOL   C24723199   3.868   2.940   5.933 -0.7062 -0.0798  0.0564
   77MOL   C24823200   3.743   2.934   5.875  0.2611 -0.3724  0.1630
   77MOL   N24923201   3.688   2.815   5.832 -0.1693 -0.2344  0.0708
   77MOL   H25023202   3.650   2.612   5.611  1.1047  0.8950 -1.1423
   77MOL   H25123203   3.818   2.575   5.632 -0.1061  4.4709  0.3028
   77MOL   H25223204   3.749   2.496   5.869 -0.2441 -1.8341 -0.9041
   77MOL   H25323205   3.949   2.610   5.913 -0.1804 -0.4758  1.3640
   77MOL   H25423206   4.044   2.827   5.988  0.4078  2.7985 -0.9876
   77MOL   H25523207   3.901   3.039   5.961 -0.8611  0.0383 -0.1781
   77MOL   H25623208   3.690   3.019   5.834 -1.3348  0.0669  3.0561
   77MOL   C25723209   3.548   2.565   5.845 -0.7872 -0.3897  0.5108
   77MOL   C25823210   3.508   2.453   5.939 -0.4581 -0.3862 -0.3619
   77MOL   C25923211   3.591   2.447   6.073  0.7133  0.0365  1.0364
   77MOL   C26023212   3.605   2.566   6.150  0.2953  0.5535 -0.2266
   77MOL   C26123213   3.681   2.559   6.269  0.1537 -0.0909  0.2454
   77MOL   C26223214   3.715   2.436   6.327  0.4744  0.5213  0.4099
   77MOL   C26323215   3.684   2.326   6.247  0.2425 -0.0056 -0.1033
   77MOL   N26423216   3.632   2.329   6.122  0.2377 -0.5227 -0.9658
   77MOL   H26523217   3.493   2.552   5.752 -0.0283  0.7865 -0.1138
   77MOL   H26623218   3.508   2.659   5.885 -0.8389  1.1634 -3.0253
   77MOL   H26723219   3.538   2.367   5.879  0.5490 -0.0893 -0.2909
   77MOL   H26823220   3.571   2.659   6.108 -1.4704 -0.1973 -0.5125
   77MOL   H26923221   3.715   2.643   6.328  0.8646 -1.5221  1.9049
   77MOL   H27023222   3.763   2.414   6.421  1.2894 -0.1551 -0.1544
   77MOL   H27123223   3.697   2.224   6.281 -1.5692 -1.1788 -2.8086
   77MOL   C27223224   3.356   2.447   5.958 -0.3120  0.2910 -0.0761
   77MOL   C27323225   3.305   2.322   6.035  0.4804  0.0582 -0.1170
   77MOL   C27423226   3.157   2.334   6.059  0.2081  0.3276  0.6268
   77MOL   C27523227   3.109   2.319   6.192 -0.8260 -0.2589 -0.7963
   77MOL   C27623228   2.968   2.308   6.205 -0.0533  0.1012 -0.4115
   77MOL   C27723229   2.889   2.340   6.098  0.8228  0.1427 -0.2213
   77MOL   C27823230   2.951   2.372   5.977 -0.3878 -1.1686  0.5870
   77MOL   N27923231   3.081   2.368   5.954 -0.5418  0.6719 -0.1623
   77MOL   H28023232   3.310   2.429   5.861 -0.5387 -0.3455  0.1492
   77MOL   H28123233   3.313   2.535   6.008 -2.9505 -0.7036 -0.4912
   77MOL   H28223234   3.348   2.341   6.133 -2.5320  0.1973  1.2551
   77MOL   H28323235   3.170   2.297   6.278 -1.3960  0.7687 -0.1214
   77MOL   H28423236   2.916   2.278   6.294 -0.1099  0.5850 -0.2844
   77MOL   H28523237   2.782   2.327   6.102  0.3423  3.9646  1.0580
   77MOL   H28623238   2.898   2.404   5.889  1.3916 -0.7591 -0.3455
   77MOL   C28723239   3.339   2.181   5.977  0.4909 -0.0839 -0.2395
   77MOL   C28823240   3.305   2.166   5.827 -0.0448  0.3431 -0.1469
   77MOL   C28923241   3.321   2.019   5.791 -0.1045  0.4437  0.5062
   77MOL   C29023242   3.204   1.940   5.776  0.0989  0.3947  0.5012
   77MOL   C29123243   3.207   1.798   5.759 -0.1847 -0.0200 -0.4832
   77MOL   C29223244   3.340   1.743   5.760  0.5564 -0.1486  0.1886
   77MOL   C29323245   3.451   1.833   5.771 -0.1579  0.2257  0.0572
   77MOL   N29423246   3.441   1.968   5.790 -0.1315  0.0262  0.2469
   77MOL   H29523247   3.279   2.101   6.021 -2.1068  1.9871  0.1370
   77MOL   H29623248   3.444   2.157   5.992  0.5143  0.4728  0.5148
   77MOL   H29723249   3.368   2.230   5.765 -1.3735 -1.2876 -3.3280
   77MOL   H29823250   3.106   1.985   5.778  0.5112  1.3361 -0.0556
   77MOL   H29923251   3.116   1.742   5.739 -0.0664 -0.1953 -0.5338
   77MOL   H30023252   3.355   1.637   5.749  2.2424  0.1854 -0.8458
   77MOL   H30123253   3.550   1.789   5.769 -1.6426 -3.2812  0.4060
   77MOL   H30223254   3.202   2.185   5.797 -0.3444 -0.3427  0.4213
   78MOL     C123255   0.436   1.309   1.677 -0.1734  0.0162  0.4138
   78MOL     C223256   0.363   1.172   1.689  0.5699  0.5406 -0.6722
   78MOL     C323257   0.331   1.143   1.840  0.9005 -0.0857  0.5231
   78MOL     C423258   0.296   1.246   1.933  0.0683  0.0890  0.6779
   78MOL     C523259   0.263   1.213   2.064  0.9217  0.1438  0.0387
   78MOL     C623260   0.249   1.083   2.107 -0.2032 -0.5011  0.0883
   78MOL     C723261   0.275   0.991   2.007 -0.1026  0.2836  0.2296
   78MOL     N823262   0.319   1.018   1.881  0.2163 -0.2521  0.0733
   78MOL     H923263   0.528   1.301   1.736  0.0704  0.8004  0.1501
   78MOL    H1023264   0.480   1.328   1.579 -2.6156 -2.4803 -1.2412
   78MOL    H1123265   0.426   1.091   1.651  2.2404  1.7969 -0.6151
   78MOL    H1223266   0.297   1.351   1.910  1.1340 -0.4225 -1.7735
   78MOL    H1323267   0.250   1.284   2.144  3.3359 -1.1453  1.6194
   78MOL    H1423268   0.234   1.050   2.209  1.6855 -2.1519 -0.1340
   78MOL    H1523269   0.275   0.886   2.028 -1.2293 -0.2144 -2.1042
   78MOL    H1623270   0.374   1.391   1.712 -1.6763 -1.4106  1.1611
   78MOL    C1723271   0.238   1.166   1.607  0.3892  0.5701  0.3911
   78MOL    C1823272   0.251   1.195   1.462 -0.2355 -0.5356  0.1337
   78MOL    C1923273   0.349   1.103   1.389 -0.1409 -0.1144 -0.0380
   78MOL    C2023274   0.461   1.163   1.326  0.1108  0.4554  0.0952
   78MOL    C2123275   0.548   1.080   1.261  0.0504  0.7015 -0.0247
   78MOL    C2223276   0.517   0.942   1.241 -0.4599 -0.6494 -1.0998
   78MOL    C2323277   0.403   0.897   1.306 -0.2216 -0.2948  0.1245
   78MOL    N2423278   0.313   0.974   1.374 -0.1095  0.4435  0.1124
   78MOL    H2523279   0.168   1.230   1.661  0.7926  0.8241  0.6146
   78MOL    H2623280   0.194   1.066   1.611 -0.7902  1.1173  1.4409
   78MOL    H2723281   0.293   1.294   1.447 -0.5714 -0.7483 -2.5332
   78MOL    H2823282   0.477   1.269   1.322 -0.1459  0.5181  0.6488
   78MOL    H2923283   0.633   1.127   1.213  0.7681  0.6044  1.1272
   78MOL    H3023284   0.576   0.874   1.181 -0.7928 -1.5176 -0.4578
   78MOL    H3123285   0.367   0.795   1.298 -0.8573 -0.1138  0.5882
   78MOL    C3223286   0.116   1.197   1.398 -0.0202  0.5428  0.1443
   78MOL    C3323287   0.026   1.304   1.446  0.1214 -0.1774 -0.3679
   78MOL    C3423288   0.075   1.446   1.427 -0.2405  0.3848  0.9952
   78MOL    C3523289   0.096   1.495   1.294 -0.4212 -0.5589 -0.4467
   78MOL    C3623290   0.153   1.626   1.277 -0.0698 -0.1881 -0.1958
   78MOL    C3723291   0.175   1.704   1.394  0.1378 -0.2358  0.8737
   78MOL    C3823292   0.138   1.646   1.515  0.1038  0.6210 -0.2060
   78MOL    N3923293   0.102   1.519   1.536  0.5051  0.2430 -0.3906
   78MOL    H4023294   0.075   1.099   1.424 -1.5779  1.5429  1.5332
   78MOL    H4123295   0.131   1.202   1.290 -0.6737  1.1121  0.0753
   78MOL    H4223296   0.008   1.280   1.551  2.7954 -1.7871 -0.2295
   78MOL    H4323297   0.067   1.442   1.205 -1.4012  0.2341 -0.6018
   78MOL    H4423298   0.180   1.656   1.176 -0.5442  0.2864 -0.1841
   78MOL    H4523299   0.215   1.804   1.388 -1.7729  0.3849 -4.7746
   78MOL    H4623300   0.147   1.705   1.605  0.5889 -0.7073  0.6149
   78MOL    C4723301   8.033   1.294   1.395  0.9150 -0.0593 -0.3393
   78MOL    C4823302   7.955   1.159   1.406  0.3541  0.1472  0.2922
   78MOL    C4923303   7.976   1.089   1.543 -0.1500 -0.0904  0.1980
   78MOL    C5023304   8.016   0.954   1.555 -0.1030  0.7884  0.4989
   78MOL    C5123305   8.035   0.906   1.685 -0.3867  0.4682  0.1658
   78MOL    C5223306   7.991   0.979   1.794 -0.6508  0.2369 -0.0106
   78MOL    C5323307   7.933   1.109   1.768  0.9513 -0.0673 -0.4774
   78MOL    N5423308   7.921   1.162   1.645  0.4853  0.2230  0.5329
   78MOL    H5523309   8.035   1.310   1.287  2.6031 -0.7522 -0.4229
   78MOL    H5623310   7.981   1.376   1.444 -0.0619 -0.9472  0.1326
   78MOL    H5723311   7.993   1.086   1.333 -0.9100 -0.0593 -0.1775
   78MOL    H5823312   8.052   0.897   1.470  2.2481  1.7008  0.8548
   78MOL    H5923313   8.069   0.807   1.710 -0.6100  0.3410 -0.0375
   78MOL    H6023314   7.997   0.937   1.894  4.2940 -1.0321 -0.7534
   78MOL    H6123315   7.898   1.154   1.860 -2.9521 -1.5893 -1.0965
   78MOL    C6223316   7.805   1.156   1.359 -0.5149  0.3453  0.5374
   78MOL    C6323317   7.698   1.066   1.430 -0.3807  0.5918  0.4652
   78MOL    C6423318   7.560   1.100   1.384  0.1511 -0.6212 -0.3317
   78MOL    C6523319   7.482   1.193   1.457 -0.3527 -0.0212 -0.7389
   78MOL    C6623320   7.362   1.234   1.396  0.3968 -0.3090 -0.0741
   78MOL    C6723321   7.312   1.171   1.287 -0.3616  0.1613 -0.2997
   78MOL    C6823322   7.402   1.090   1.213  0.5866 -0.2437 -0.0281
   78MOL    N6923323   7.525   1.060   1.260  0.0174  0.0345 -0.1944
   78MOL    H7023324   7.796   1.151   1.250  0.4098  2.9062  0.3159
   78MOL    H7123325   7.773   1.260   1.363 -1.1330  0.2150 -0.6504
   78MOL    H7223326   7.695   1.081   1.538  2.6488  1.5908  0.4496
   78MOL    H7323327   7.510   1.233   1.553 -1.4753  0.3855 -0.5706
   78MOL    H7423328   7.298   1.306   1.446  0.0840  0.2054 -1.2105
   78MOL    H7523329   7.211   1.183   1.252 -0.2965 -1.5701 -1.1335
   78MOL    H7623330   7.362   1.052   1.120 -0.4138 -0.9102  0.6639
   78MOL    C7723331   7.723   0.915   1.405  0.4119  0.4630  0.3562
   78MOL    C7823332   7.648   0.814   1.491 -0.1447 -0.5159  0.2886
   78MOL    C7923333   7.617   0.686   1.418  1.0553 -0.3463  0.4852
   78MOL    C8023334   7.723   0.607   1.369  0.3533  0.7243  0.6998
   78MOL    C8123335   7.682   0.486   1.316  0.2399 -0.8991 -0.0094
   78MOL    C8223336   7.550   0.457   1.296  0.5909 -0.5055 -0.2434
   78MOL    C8323337   7.446   0.543   1.339  0.1038 -0.3926  0.3500
   78MOL    N8423338   7.487   0.649   1.417  0.2090 -0.4888 -1.1545
   78MOL    H8523339   7.830   0.903   1.419  0.0573 -2.0761  1.2896
   78MOL    H8623340   7.702   0.899   1.299  1.5915  0.7739  0.0694
   78MOL    H8723341   7.553   0.862   1.516  1.4331  2.4375  0.8930
   78MOL    H8823342   7.824   0.640   1.391  0.3018  2.0574 -0.9924
   78MOL    H8923343   7.755   0.412   1.287  0.5835 -0.9432  0.9799
   78MOL    H9023344   7.536   0.363   1.245 -2.4460  0.4432 -1.2760
   78MOL    H9123345   7.343   0.511   1.333  0.7963 -2.4688 -0.6909
   78MOL    C9223346   7.712   0.784   1.626 -0.2129 -0.4014 -0.3874
   78MOL    C9323347   7.620   0.731   1.735 -0.3517 -0.1445  0.3239
   78MOL    C9423348   7.698   0.658   1.848  0.8309  0.6479 -0.4050
   78MOL    C9523349   7.659   0.528   1.891  0.2203 -0.0573 -0.5315
   78MOL    C9623350   7.727   0.456   1.992  0.5409 -0.3223 -0.7651
   78MOL    C9723351   7.835   0.526   2.048  0.0861 -0.8318  0.0728
   78MOL    C9823352   7.859   0.659   2.014  0.6708 -0.4140  0.7271
   78MOL    N9923353   7.791   0.728   1.919  0.3222  0.1101 -0.1715
   78MOL   H10023354   7.756   0.872   1.672  0.2256 -0.1551 -1.2674
   78MOL   H10123355   7.797   0.717   1.610  0.4235  0.7277 -1.9079
   78MOL   H10223356   7.562   0.659   1.678  0.6280 -1.0327  0.4366
   78MOL   H10323357   7.579   0.472   1.846  1.6024 -0.8735 -2.0435
   78MOL   H10423358   7.707   0.354   2.020  1.5855 -1.0128 -2.4425
   78MOL   H10523359   7.897   0.486   2.127  0.4355  2.0212  1.2825
   78MOL   H10623360   7.928   0.718   2.073  0.3467 -0.5931  1.2758
   78MOL   C10723361   7.523   0.838   1.794  0.1803  0.3014  0.5014
   78MOL   C10823362   7.382   0.828   1.732 -0.6505  0.0189  0.2530
   78MOL   C10923363   7.303   0.718   1.789  0.0627  0.1708 -0.2703
   78MOL   C11023364   7.289   0.595   1.723  0.9681  0.9432  0.8205
   78MOL   C11123365   7.212   0.490   1.771 -0.3543  0.5935  0.2192
   78MOL   C11223366   7.168   0.500   1.906  0.3170  0.7547 -0.0171
   78MOL   C11323367   7.210   0.615   1.976  0.8067  0.3023 -0.1906
   78MOL   N11423368   7.269   0.726   1.915  0.1169  1.5713 -0.1947
   78MOL   H11523369   7.570   0.936   1.778  1.3927 -0.7562 -2.8440
   78MOL   H11623370   7.535   0.814   1.900  1.2577 -0.2866  0.2574
   78MOL   H11723371   7.386   0.809   1.625  4.2490  2.4005 -0.1009
   78MOL   H11823372   7.325   0.588   1.621  0.5967 -0.1027  0.7528
   78MOL   H11923373   7.190   0.410   1.703  1.9778  0.2726 -0.1778
   78MOL   H12023374   7.117   0.421   1.959  2.5216 -1.3411 -0.9246
   78MOL   H12123375   7.183   0.620   2.080 -2.2568  2.5918 -0.9996
   78MOL   C12223376   7.317   0.972   1.741 -0.9744  0.6565  0.1019
   78MOL   C12323377   7.169   0.989   1.700 -0.1284 -0.2231  0.4795
   78MOL   C12423378   7.116   1.132   1.746 -0.2053  0.5718 -0.4375
   78MOL   C12523379   6.998   1.134   1.825 -0.8674  0.1524 -0.5126
   78MOL   C12623380   6.940   1.262   1.841 -0.3480  0.8846  1.1834
   78MOL   C12723381   7.003   1.377   1.799  0.0166 -0.8307 -0.1012
   78MOL   C12823382   7.122   1.365   1.728 -0.5607 -0.3729 -0.0872
   78MOL   N12923383   7.180   1.242   1.701  0.4991  0.3256 -0.0284
   78MOL   H13023384   7.389   1.037   1.692  1.3756 -1.6935  0.2924
   78MOL   H13123385   7.325   0.991   1.848 -3.3654  1.0133  0.2498
   78MOL   H13223386   7.116   0.929   1.774  2.4966 -1.4106  1.4889
   78MOL   H13323387   6.954   1.041   1.859  0.2160 -0.3905 -0.5823
   78MOL   H13423388   6.844   1.264   1.890 -0.2460 -3.0570  1.7210
   78MOL   H13523389   6.957   1.474   1.809  0.9332 -0.3651 -0.4229
   78MOL   H13623390   7.161   1.450   1.675 -0.4099 -0.3603  0.0426
   78MOL   C13723391   7.143   0.959   1.545  0.0481 -0.2838 -0.3174
   78MOL   C13823392   7.008   0.891   1.513 -0.5296  0.3953 -0.0230
   78MOL   C13923393   6.971   0.908   1.363 -0.3824  0.2589 -0.1347
   78MOL   C14023394   6.843   0.964   1.316 -0.7931  0.5003 -0.0951
   78MOL   C14123395   6.837   0.999   1.178  0.3113 -0.3963  0.0593
   78MOL   C14223396   6.943   0.955   1.098 -0.1623 -0.5430 -0.3403
   78MOL   C14323397   7.054   0.896   1.153  0.4785 -0.1572 -0.5115
   78MOL   N14423398   7.075   0.878   1.286  0.0150  0.4829  0.8688
   78MOL   H14523399   7.225   0.899   1.506 -1.3206 -0.4567 -3.0209
   78MOL   H14623400   7.155   1.053   1.491  2.8917 -1.0678 -1.1563
   78MOL   H14723401   6.930   0.940   1.571 -0.8577 -0.9498  0.6959
   78MOL   H14823402   6.761   0.970   1.385 -0.3913 -1.8475  0.6253
   78MOL   H14923403   6.747   1.037   1.133  0.5287 -0.2788 -0.2866
   78MOL   H15023404   6.949   0.987   0.995 -1.4557  2.5604  0.4907
   78MOL   H15123405   7.133   0.872   1.084 -0.3899 -2.3575 -0.7819
   78MOL   C15223406   7.009   0.747   1.569 -0.0805 -0.5716 -0.4058
   78MOL   C15323407   6.887   0.650   1.564  0.5256 -0.1481  0.0570
   78MOL   C15423408   6.780   0.682   1.674  0.2150  0.0388  0.4422
   78MOL   C15523409   6.700   0.573   1.723  0.1061 -0.1224 -0.1391
   78MOL   C15623410   6.611   0.593   1.828  0.1965 -0.1272  0.3341
   78MOL   C15723411   6.609   0.717   1.887 -0.6675  0.4571 -0.2572
   78MOL   C15823412   6.688   0.826   1.829  0.1595 -0.1358 -0.3247
   78MOL   N15923413   6.770   0.808   1.730  0.4063 -0.3583 -0.0139
   78MOL   H16023414   7.036   0.761   1.673  0.9032  0.1744 -0.7465
   78MOL   H16123415   7.091   0.688   1.526  1.6467  2.0353 -0.8244
   78MOL   H16223416   6.925   0.554   1.599  1.5340  0.0205 -0.5742
   78MOL   H16323417   6.709   0.473   1.684  3.6888 -0.3509  1.0994
   78MOL   H16423418   6.544   0.516   1.862  0.8890 -0.2175  1.5369
   78MOL   H16523419   6.542   0.737   1.969 -1.6361 -0.3607 -0.8389
   78MOL   H16623420   6.688   0.924   1.875  2.5324 -0.2484 -0.0513
   78MOL   C16723421   6.829   0.627   1.424  0.5403  0.2697 -0.9664
   78MOL   C16823422   6.917   0.535   1.334 -0.1165  0.1047 -0.4836
   78MOL   C16923423   6.906   0.388   1.370 -0.1714  0.7950 -0.3289
   78MOL   C17023424   7.004   0.317   1.440  0.8441 -0.0752  0.4515
   78MOL   C17123425   6.971   0.190   1.494 -0.3346 -0.2541 -0.4076
   78MOL   C17223426   6.846   0.138   1.467 -0.9066 -0.2803 -1.4687
   78MOL   C17323427   6.750   0.213   1.398  0.3468 -0.1412  0.0876
   78MOL   N17423428   6.778   0.337   1.352 -0.8781  0.0848 -0.6466
   78MOL   H17523429   6.799   0.716   1.368  1.8570  0.5263 -1.2711
   78MOL   H17623430   6.733   0.581   1.449 -0.1032  2.8931  1.6843
   78MOL   H17723431   7.019   0.569   1.354  0.0548  1.1343 -2.8328
   78MOL   H17823432   7.097   0.367   1.459  1.2546 -0.9844  0.8513
   78MOL   H17923433   7.042   0.130   1.548 -0.8156 -1.0464 -0.6521
   78MOL   H18023434   6.834   0.036   1.498  0.4817 -0.2750 -0.8634
   78MOL   H18123435   6.650   0.177   1.376  0.2665 -0.0148  0.2437
   78MOL   C18223436   6.905   0.560   1.185  0.6957  0.0914 -0.0725
   78MOL   C18323437   6.991   0.474   1.084 -0.5209 -0.0640 -0.6350
   78MOL   C18423438   6.939   0.504   0.943  0.1243 -0.2101  0.3993
   78MOL   C18523439   6.871   0.407   0.867  0.7542 -0.4267 -0.5390
   78MOL   C18623440   6.801   0.431   0.749  0.2932 -0.5751  0.3261
   78MOL   C18723441   6.797   0.570   0.722  0.3218  0.3649  0.3437
   78MOL   C18823442   6.866   0.663   0.791  0.6030 -0.4984  0.2152
   78MOL   N18923443   6.946   0.631   0.896 -0.2793  0.1511 -0.3741
   78MOL   H19023444   6.922   0.666   1.166  0.8410  0.2773  1.0570
   78MOL   H19123445   6.804   0.530   1.158  0.1064  1.7455  0.2056
   78MOL   H19223446   6.969   0.370   1.108  2.8706 -0.5683  0.5635
   78MOL   H19323447   6.887   0.306   0.902  0.8965 -0.1567  0.1940
   78MOL   H19423448   6.743   0.357   0.697 -1.3788  1.5379 -0.8988
   78MOL   H19523449   6.728   0.604   0.646  0.8934  1.6007  0.3709
   78MOL   H19623450   6.844   0.767   0.769  1.0698 -0.2596  0.8669
   78MOL   C19723451   7.148   0.488   1.092  0.8476  0.4791  0.1932
   78MOL   C19823452   7.246   0.419   0.987  0.0375 -0.6762  0.5393
   78MOL   C19923453   7.243   0.267   0.988 -0.2244  0.2930 -0.3520
   78MOL   C20023454   7.358   0.190   1.026 -0.3443  0.1770 -0.1600
   78MOL   C20123455   7.345   0.053   1.033  0.7134  0.2654  0.2501
   78MOL   C20223456   7.214   8.149   1.015 -0.0243  0.1559  0.4257
   78MOL   C20323457   7.106   0.077   0.974  0.6558  0.2779  0.2452
   78MOL   N20423458   7.126   0.208   0.953  0.6704  0.2533  0.1803
   78MOL   H20523459   7.178   0.474   1.195 -0.2296 -0.1810  0.4215
   78MOL   H20623460   7.161   0.595   1.074  0.3132  0.5775  0.3669
   78MOL   H20723461   7.336   0.444   1.042 -1.2409  2.2014  1.4134
   78MOL   H20823462   7.454   0.233   1.053 -0.1257  0.7805 -1.8115
   78MOL   H20923463   7.432   8.145   1.059 -0.6066 -0.6915  2.5994
   78MOL   H21023464   7.205   8.042   1.021 -0.0508  0.2611  2.4890
   78MOL   H21123465   7.005   0.039   0.964  0.5440  0.6440 -0.0708
   78MOL   C21223466   7.252   0.478   0.844 -0.3982  0.5630 -0.2724
   78MOL   C21323467   7.286   0.630   0.840 -0.2574 -0.3872  0.6053
   78MOL   C21423468   7.408   0.665   0.916  0.4784 -0.3404  0.2150
   78MOL   C21523469   7.409   0.723   1.044 -0.7859 -0.1264  0.0002
   78MOL   C21623470   7.531   0.763   1.107  0.5504 -0.1279 -0.7737
   78MOL   C21723471   7.647   0.742   1.032 -0.1188 -0.8298  0.3075
   78MOL   C21823472   7.634   0.694   0.901 -0.7785 -0.6213  0.2171
   78MOL   N21923473   7.526   0.644   0.846  0.1496 -0.3631  0.3014
   78MOL   H22023474   7.162   0.453   0.789  0.4818 -1.4798 -0.8468
   78MOL   H22123475   7.340   0.426   0.806 -1.0094 -0.0351 -0.8845
   78MOL   H22223476   7.207   0.680   0.896 -2.6877  0.9524 -3.7240
   78MOL   H22323477   7.318   0.742   1.100 -1.2010 -3.0391  0.3887
   78MOL   H22423478   7.529   0.806   1.206  0.3418 -0.3406 -0.6849
   78MOL   H22523479   7.736   0.787   1.073 -2.0428  2.8499  0.6860
   78MOL   H22623480   7.728   0.684   0.848 -0.9499  0.1526 -0.2519
   78MOL   C22723481   7.280   0.694   0.700  0.0149  0.0198  0.7431
   78MOL   C22823482   7.298   0.853   0.709 -0.0125  0.7199 -0.7048
   78MOL   C22923483   7.386   0.904   0.591  0.3584 -0.0116  0.1087
   78MOL   C23023484   7.504   0.970   0.625 -0.0577 -0.8846  0.8526
   78MOL   C23123485   7.574   1.037   0.520  0.2888 -0.4138 -0.0127
   78MOL   C23223486   7.514   1.034   0.392 -0.1685  0.1512  0.1684
   78MOL   C23323487   7.399   0.961   0.368 -0.5773 -0.6159 -0.1913
   78MOL   N23423488   7.335   0.893   0.462 -1.2137 -0.1452 -0.9469
   78MOL   H23523489   7.191   0.675   0.640 -0.4132  0.8662  1.1140
   78MOL   H23623490   7.355   0.654   0.631 -1.3408  0.3658 -0.9483
   78MOL   H23723491   7.342   0.883   0.804 -0.3947  1.1280 -0.6579
   78MOL   H23823492   7.544   0.966   0.725 -1.5499  0.0151  1.5047
   78MOL   H23923493   7.658   1.102   0.539 -1.6579  1.1724  3.6254
   78MOL   H24023494   7.551   1.100   0.315 -1.6456  1.9310  0.9568
   78MOL   H24123495   7.352   0.955   0.271 -0.3650 -1.1896 -0.2618
   78MOL   C24223496   7.161   0.921   0.705 -0.0077  0.0357 -0.2879
   78MOL   C24323497   7.169   1.074   0.695 -0.7163  0.1669 -0.6851
   78MOL   C24423498   7.028   1.136   0.687  0.3024 -0.5438 -0.7085
   78MOL   C24523499   6.988   1.198   0.568  0.4901 -0.2431  0.1352
   78MOL   C24623500   6.864   1.270   0.566  0.3907 -0.3133  0.2689
   78MOL   C24723501   6.800   1.299   0.690  0.0031 -0.3061  0.8015
   78MOL   C24823502   6.851   1.238   0.801 -0.8307  0.0550  0.4617
   78MOL   N24923503   6.959   1.154   0.797 -0.2132 -0.3763 -0.0657
   78MOL   H25023504   7.117   0.903   0.804  0.2089  0.0063 -0.1983
   78MOL   H25123505   7.102   0.871   0.629 -0.0091  1.3883 -1.2039
   78MOL   H25223506   7.221   1.091   0.601  1.2881  2.1717  0.7265
   78MOL   H25323507   7.052   1.204   0.481 -0.2985  0.7079 -0.3959
   78MOL   H25423508   6.825   1.322   0.479  0.8745  0.2725  0.3990
   78MOL   H25523509   6.715   1.365   0.695  0.0740 -0.0489 -1.2312
   78MOL   H25623510   6.810   1.238   0.900 -0.2242  0.7005  0.7145
   78MOL   C25723511   7.256   1.141   0.811  0.2931  0.1519  0.0049
   78MOL   C25823512   7.288   1.288   0.804 -0.1549 -0.1465  0.8984
   78MOL   C25923513   7.361   1.330   0.930 -0.0561  0.1213  0.3291
   78MOL   C26023514   7.290   1.421   1.010  0.2951  0.1467  0.2198
   78MOL   C26123515   7.354   1.479   1.117 -0.6992  0.0385 -0.2406
   78MOL   C26223516   7.485   1.443   1.137 -0.0298  0.0597  0.0569
   78MOL   C26323517   7.551   1.350   1.053 -0.0255 -0.0578  0.1671
   78MOL   N26423518   7.488   1.286   0.951 -0.0728 -0.2516  0.2752
   78MOL   H26523519   7.354   1.099   0.833  0.0453 -1.3838 -1.7294
   78MOL   H26623520   7.207   1.122   0.907 -0.1632  0.9520 -0.0667
   78MOL   H26723521   7.200   1.348   0.784 -0.7300 -1.2326  0.1329
   78MOL   H26823522   7.187   1.447   0.993  0.1819 -0.3670  0.1383
   78MOL   H26923523   7.303   1.540   1.191  1.9717  0.7025  1.0916
   78MOL   H27023524   7.540   1.491   1.217  1.3517 -1.7965  0.2342
   78MOL   H27123525   7.655   1.329   1.074 -0.0155 -1.6041 -1.3583
   78MOL   C27223526   7.380   1.317   0.678  0.0617  1.0199 -0.2087
   78MOL   C27323527   7.409   1.469   0.649 -0.2000 -0.0303  0.1047
   78MOL   C27423528   7.550   1.488   0.608 -0.1050  0.4368  0.6008
   78MOL   C27523529   7.637   1.574   0.672 -0.1363  0.2983 -0.0304
   78MOL   C27623530   7.771   1.586   0.627 -0.1326  0.2873  0.7478
   78MOL   C27723531   7.814   1.513   0.515  0.9593 -0.5675  0.1066
   78MOL   C27823532   7.724   1.429   0.458  0.3797 -0.5350  0.5444
   78MOL   N27923533   7.593   1.418   0.496  0.3706 -0.4185  0.1649
   78MOL   H28023534   7.345   1.268   0.587 -0.4308  1.5436 -0.3060
   78MOL   H28123535   7.474   1.263   0.686  0.4482  1.9241  1.6545
   78MOL   H28223536   7.383   1.522   0.741  2.9667 -1.1557  1.7331
   78MOL   H28323537   7.613   1.624   0.764 -1.6601 -0.0768 -0.2089
   78MOL   H28423538   7.843   1.637   0.689 -0.4559  0.8667  0.6489
   78MOL   H28523539   7.918   1.525   0.492  0.6356 -1.7219 -2.0928
   78MOL   H28623540   7.749   1.356   0.382 -0.1137 -2.0510  1.8122
   78MOL   C28723541   7.307   1.525   0.546  0.2052  0.1768  0.2380
   78MOL   C28823542   7.324   1.676   0.521  0.1193 -0.1258  0.0304
   78MOL   C28923543   7.306   1.712   0.371  0.2342  0.3572  0.5866
   78MOL   C29023544   7.416   1.711   0.282 -0.2760  0.3734 -0.0760
   78MOL   C29123545   7.396   1.773   0.158 -0.1197  0.6510  0.2804
   78MOL   C29223546   7.271   1.814   0.118 -0.8669 -0.4128 -0.1349
   78MOL   C29323547   7.163   1.803   0.207 -0.7436  0.3401 -0.8634
   78MOL   N29423548   7.182   1.755   0.332  0.2242  0.1604 -1.2189
   78MOL   H29523549   7.206   1.494   0.573 -0.4163  2.7399  0.9753
   78MOL   H29623550   7.334   1.472   0.454  1.3389 -1.5747  1.5461
   78MOL   H29723551   7.413   1.719   0.567 -0.0378  0.4745 -0.2205
   78MOL   H29823552   7.509   1.676   0.325  0.5065  1.3235 -0.9711
   78MOL   H29923553   7.480   1.794   0.093  0.4492 -0.0463  0.7729
   78MOL   H30023554   7.271   1.859   0.020 -1.4671 -1.0922 -0.4516
   78MOL   H30123555   7.058   1.817   0.186 -0.6793  3.3946  0.5293
   78MOL   H30223556   7.239   1.716   0.576  0.8278  0.4474  0.7175
   79MOL     C123557   5.401   6.547   1.824 -0.9825  0.4319 -0.4338
   79MOL     C223558   5.355   6.482   1.952  0.0141 -0.3807 -0.1179
   79MOL     C323559   5.206   6.445   1.950  0.3855 -0.7658 -0.0805
   79MOL     C423560   5.114   6.487   2.045 -0.1822  0.0370  0.0971
   79MOL     C523561   4.978   6.443   2.030 -0.8224  0.7554  0.3423
   79MOL     C623562   4.950   6.356   1.923  0.1666 -0.3443 -0.8142
   79MOL     C723563   5.048   6.323   1.836  0.9153  1.2192 -0.3618
   79MOL     N823564   5.178   6.367   1.850  0.4209 -0.0151 -0.3274
   79MOL     H923565   5.328   6.615   1.782 -1.9953 -0.3311  0.0516
   79MOL    H1023566   5.492   6.602   1.848 -1.2074  0.3244  0.6804
   79MOL    H1123567   5.360   6.569   2.017  0.0620 -1.9515  2.0441
   79MOL    H1223568   5.143   6.550   2.128 -1.5434  0.5555  0.1915
   79MOL    H1323569   4.899   6.472   2.098 -0.4803  0.2783  0.9578
   79MOL    H1423570   4.849   6.319   1.911  0.2335 -0.7758 -0.0683
   79MOL    H1523571   5.005   6.263   1.757 -1.8893  2.7168 -0.0265
   79MOL    H1623572   5.431   6.471   1.752 -2.4086  0.4167 -1.0152
   79MOL    C1723573   5.442   6.361   1.999  0.2379 -0.3654 -0.3807
   79MOL    C1823574   5.591   6.385   2.015  0.0296 -0.1227 -0.1621
   79MOL    C1923575   5.617   6.495   2.112  0.2673  0.2841  0.9612
   79MOL    C2023576   5.701   6.600   2.080 -0.5633 -0.2285 -0.1350
   79MOL    C2123577   5.697   6.713   2.162 -0.2083 -0.0709 -0.4704
   79MOL    C2223578   5.643   6.700   2.292  0.5941 -0.1028  1.1912
   79MOL    C2323579   5.566   6.583   2.321 -0.2519  0.7680 -0.4452
   79MOL    N2423580   5.557   6.482   2.231 -0.5710 -0.0225 -0.0720
   79MOL    H2523581   5.423   6.284   1.925  0.1940  0.0381 -0.7893
   79MOL    H2623582   5.397   6.331   2.094 -1.1299  3.3258  0.2353
   79MOL    H2723583   5.626   6.409   1.914  1.7440 -1.6775  0.0353
   79MOL    H2823584   5.753   6.618   1.987  2.2880 -0.9541  1.2480
   79MOL    H2923585   5.738   6.807   2.128 -0.7621  0.8674  1.3663
   79MOL    H3023586   5.652   6.779   2.366  1.3634 -0.4402  1.4659
   79MOL    H3123587   5.520   6.556   2.415 -0.6356 -0.6750 -1.0228
   79MOL    C3223588   5.650   6.247   2.060 -0.0721 -0.7112  0.2948
   79MOL    C3323589   5.798   6.236   2.092  0.1231 -0.3961 -0.5696
   79MOL    C3423590   5.834   6.093   2.124  0.0817 -1.1496  0.1692
   79MOL    C3523591   5.879   6.064   2.247 -0.2068 -0.1317 -0.1153
   79MOL    C3623592   5.919   5.932   2.274 -0.2133 -0.0429  0.1842
   79MOL    C3723593   5.922   5.840   2.173 -0.2704  0.6196  0.5180
   79MOL    C3823594   5.875   5.877   2.046 -0.1344  0.1067  0.2577
   79MOL    N3923595   5.824   6.000   2.028 -0.1292  0.1451  0.2094
   79MOL    H4023596   5.627   6.177   1.979 -1.0386 -3.0152  2.4941
   79MOL    H4123597   5.599   6.209   2.149  1.3254 -0.8001  1.0579
   79MOL    H4223598   5.805   6.304   2.177  0.8295  1.8337 -2.3450
   79MOL    H4323599   5.882   6.148   2.315  0.1647  2.5150 -3.2337
   79MOL    H4423600   5.954   5.907   2.373  0.0074 -0.8170 -0.0843
   79MOL    H4523601   5.961   5.741   2.192  2.2713  1.4135 -0.2545
   79MOL    H4623602   5.872   5.803   1.968 -0.5400  0.3897  0.0078
   79MOL    C4723603   5.893   6.291   1.984 -0.2668  0.1047  0.0038
   79MOL    C4823604   6.041   6.259   1.995 -0.7166 -0.0806 -0.0824
   79MOL    C4923605   6.100   6.287   1.853  0.1632  0.2917 -0.1601
   79MOL    C5023606   6.148   6.177   1.774  0.0174  0.5778 -0.1759
   79MOL    C5123607   6.188   6.204   1.643  0.7278  0.4246 -0.5150
   79MOL    C5223608   6.195   6.336   1.594 -0.1990 -0.2080 -0.4574
   79MOL    C5323609   6.150   6.436   1.686  0.1554  0.1177  0.4635
   79MOL    N5423610   6.107   6.414   1.811  0.3662 -0.0519  0.1922
   79MOL    H5523611   5.887   6.399   1.992  1.4772  0.1043  1.7754
   79MOL    H5623612   5.864   6.257   1.885  2.5724 -3.2499  0.2343
   79MOL    H5723613   6.046   6.150   1.992  0.3365 -0.0140 -0.8476
   79MOL    H5823614   6.151   6.074   1.807 -2.5405  0.0452 -1.4973
   79MOL    H5923615   6.212   6.115   1.587  2.0791  0.7147 -0.3962
   79MOL    H6023616   6.220   6.353   1.490  1.2495 -1.9206 -0.4017
   79MOL    H6123617   6.150   6.536   1.644  0.4885 -0.2054 -0.3268
   79MOL    C6223618   6.125   6.325   2.112 -0.3796  0.0260  0.2497
   79MOL    C6323619   6.276   6.292   2.099  1.0919 -0.4647 -0.3251
   79MOL    C6423620   6.351   6.390   2.180  0.4086 -0.1758 -0.7577
   79MOL    C6523621   6.457   6.471   2.131 -0.2311 -1.0438  0.3006
   79MOL    C6623622   6.536   6.559   2.209  0.2100  0.4953  0.0671
   79MOL    C6723623   6.498   6.566   2.345  1.1720 -0.1856  1.0962
   79MOL    C6823624   6.393   6.489   2.390 -0.6318  0.6483 -0.1723
   79MOL    N6923625   6.331   6.392   2.314 -0.1719 -0.1763  0.0126
   79MOL    H7023626   6.088   6.298   2.211 -0.6473  0.2643  0.2164
   79MOL    H7123627   6.122   6.434   2.105 -0.7767  0.0541  0.8547
   79MOL    H7223628   6.318   6.319   2.002  0.9296  1.4498  0.1343
   79MOL    H7323629   6.492   6.456   2.029  0.9097  0.7381  0.4213
   79MOL    H7423630   6.623   6.602   2.161 -0.6042  0.6137 -1.3232
   79MOL    H7523631   6.549   6.635   2.410 -2.0099  3.0050  0.3892
   79MOL    H7623632   6.381   6.491   2.497  0.9929 -0.4075  0.0549
   79MOL    C7723633   6.307   6.143   2.122  0.1914  0.5290 -0.3512
   79MOL    C7823634   6.428   6.086   2.042 -0.1533 -0.1253 -0.1553
   79MOL    C7923635   6.569   6.142   2.079  0.2012 -0.3432  0.9420
   79MOL    C8023636   6.637   6.217   1.981 -0.2319 -0.1509 -0.9657
   79MOL    C8123637   6.767   6.259   2.011  0.1502 -0.8423 -0.0499
   79MOL    C8223638   6.825   6.224   2.131 -0.2491  0.3314  1.0257
   79MOL    C8323639   6.753   6.147   2.219  0.5827 -0.0807 -0.2350
   79MOL    N8423640   6.622   6.114   2.203 -0.8230 -0.0193  0.0666
   79MOL    H8523641   6.225   6.075   2.096  2.2121 -1.8912 -0.5636
   79MOL    H8623642   6.327   6.120   2.226 -1.0735 -1.0941 -0.4335
   79MOL    H8723643   6.414   6.101   1.935  2.9443  0.7506 -0.4722
   79MOL    H8823644   6.599   6.246   1.884  2.7774  1.1936 -1.7877
   79MOL    H8923645   6.824   6.325   1.947  0.1044 -0.8691 -0.1184
   79MOL    H9023646   6.924   6.253   2.162 -0.2614  2.3435 -0.6726
   79MOL    H9123647   6.795   6.118   2.313  2.4887 -0.6611 -1.2482
   79MOL    C9223648   6.440   5.931   2.054 -0.0883  0.5749  0.3630
   79MOL    C9323649   6.499   5.864   1.933 -0.5063  0.0313 -0.1085
   79MOL    C9423650   6.571   5.731   1.962  0.2674 -0.3559 -0.0960
   79MOL    C9523651   6.714   5.707   1.966 -0.1808 -0.0203  0.1111
   79MOL    C9623652   6.759   5.589   2.014 -0.1476  0.5993 -0.5446
   79MOL    C9723653   6.663   5.489   2.038  0.1955 -0.0068 -0.1888
   79MOL    C9823654   6.529   5.519   2.042  0.1025 -0.0361  0.2125
   79MOL    N9923655   6.487   5.642   2.014  0.0778 -0.9237 -0.0182
   79MOL   H10023656   6.341   5.888   2.062  0.4666 -0.6287  0.9355
   79MOL   H10123657   6.495   5.896   2.142  0.2320  0.5760  0.1624
   79MOL   H10223658   6.572   5.931   1.887 -0.7609  0.4905  0.1569
   79MOL   H10323659   6.774   5.795   1.951 -0.3629  0.2053  0.7106
   79MOL   H10423660   6.863   5.564   2.031 -0.5312  0.7384  2.3865
   79MOL   H10523661   6.690   5.388   2.065 -0.1718 -0.9489 -3.1575
   79MOL   H10623662   6.453   5.445   2.062 -0.9649  0.3094 -2.3267
   79MOL   C10723663   6.398   5.840   1.815  0.1323 -1.0667 -0.2736
   79MOL   C10823664   6.426   5.754   1.682  0.4142  0.0465 -0.7363
   79MOL   C10923665   6.294   5.711   1.611 -0.5668 -0.8299 -0.2808
   79MOL   C11023666   6.263   5.579   1.581 -0.5873  0.4783  0.3826
   79MOL   C11123667   6.142   5.542   1.532 -0.2480 -0.0484  0.5304
   79MOL   C11223668   6.055   5.642   1.496  0.0185 -0.0470 -0.1983
   79MOL   C11323669   6.085   5.772   1.540 -0.3096 -1.0539  0.9395
   79MOL   N11423670   6.204   5.804   1.596  0.3755 -0.6534  0.2094
   79MOL   H11523671   6.371   5.941   1.784 -0.0105 -0.6273  1.2531
   79MOL   H11623672   6.307   5.800   1.859 -0.1834 -0.2631 -0.1913
   79MOL   H11723673   6.474   5.665   1.725 -0.8936  0.3077  1.3038
   79MOL   H11823674   6.335   5.502   1.605 -3.0027 -2.2024 -0.7147
   79MOL   H11923675   6.117   5.440   1.505 -1.1939 -0.0521  1.3733
   79MOL   H12023676   5.964   5.624   1.440  0.8870 -0.6019 -1.4429
   79MOL   H12123677   6.011   5.849   1.527  0.4540 -0.7350 -1.7525
   79MOL   C12223678   6.525   5.834   1.591 -1.4435 -0.8616 -0.4769
   79MOL   C12323679   6.588   5.756   1.472  0.1547 -0.0009 -0.0569
   79MOL   C12423680   6.491   5.680   1.392  1.2021 -0.5869  0.1362
   79MOL   C12523681   6.387   5.746   1.320 -0.9500 -0.7635  0.1365
   79MOL   C12623682   6.308   5.661   1.245  0.3434 -0.9093 -0.0741
   79MOL   C12723683   6.341   5.525   1.229 -0.4099  0.2158 -0.0440
   79MOL   C12823684   6.457   5.479   1.299 -0.0709 -0.0347 -0.2324
   79MOL   N12923685   6.530   5.554   1.380 -0.0168  0.0924 -0.3814
   79MOL   H13023686   6.597   5.885   1.655 -1.9384 -1.4246  0.5521
   79MOL   H13123687   6.479   5.918   1.539 -1.6086 -1.6177 -1.5759
   79MOL   H13223688   6.649   5.677   1.516  2.0110  2.4790  2.0172
   79MOL   H13323689   6.362   5.850   1.336 -1.2809 -0.5439 -1.6915
   79MOL   H13423690   6.227   5.703   1.187  0.7069 -2.1936 -1.5421
   79MOL   H13523691   6.276   5.459   1.173 -0.9450 -1.9717  3.0057
   79MOL   H13623692   6.488   5.377   1.280 -2.3704 -0.9606  0.7243
   79MOL   C13723693   6.685   5.834   1.385  0.0666  0.3086  0.0991
   79MOL   C13823694   6.804   5.897   1.462 -0.1868 -0.2788  0.0892
   79MOL   C13923695   6.879   5.784   1.526  0.6171 -0.4456 -0.4767
   79MOL   C14023696   6.892   5.771   1.664 -0.2109  0.1755  0.9237
   79MOL   C14123697   6.960   5.659   1.718 -0.0065  0.3026  0.5691
   79MOL   C14223698   7.016   5.571   1.629 -0.0081 -0.2359 -0.1125
   79MOL   C14323699   7.006   5.593   1.486  0.7240 -0.1974 -0.7693
   79MOL   N14423700   6.937   5.702   1.440  0.2172 -0.4499  0.3007
   79MOL   H14523701   6.642   5.911   1.321 -0.5199 -0.8532 -0.9193
   79MOL   H14623702   6.718   5.772   1.301  0.5647 -2.1139  2.0273
   79MOL   H14723703   6.775   5.963   1.543 -0.0313  0.8442 -0.7647
   79MOL   H14823704   6.851   5.844   1.732 -1.7106  3.9878 -3.7822
   79MOL   H14923705   6.962   5.640   1.824  0.7007 -1.3199  0.2809
   79MOL   H15023706   7.050   5.473   1.660 -1.6486 -0.8522 -0.1965
   79MOL   H15123707   7.046   5.522   1.416  0.4195  0.2433 -1.3904
   79MOL   C15223708   6.902   5.990   1.374  0.0214  0.6277 -0.1520
   79MOL   C15323709   6.846   6.126   1.325 -0.4605 -0.9244 -0.1084
   79MOL   C15423710   6.773   6.211   1.432  0.2630  0.1063 -0.4401
   79MOL   C15523711   6.632   6.248   1.435 -0.2084 -0.8089  0.1050
   79MOL   C15623712   6.587   6.315   1.546  0.0608  0.2356 -0.1315
   79MOL   C15723713   6.666   6.352   1.653 -0.0021 -0.9915  1.3085
   79MOL   C15823714   6.797   6.303   1.649 -0.1231 -0.1741 -0.2487
   79MOL   N15923715   6.844   6.234   1.544  0.1255  0.5441  0.2048
   79MOL   H16023716   6.942   5.930   1.292 -1.7986 -0.3886 -0.3127
   79MOL   H16123717   6.987   6.005   1.441  1.3555 -3.1126 -0.8770
   79MOL   H16223718   6.776   6.105   1.245  0.1848  0.3510 -1.0429
   79MOL   H16323719   6.559   6.220   1.361 -0.0843 -2.5434  0.6077
   79MOL   H16423720   6.485   6.349   1.561 -0.3470 -0.9985 -0.0783
   79MOL   H16523721   6.625   6.418   1.728  1.1297  1.4507 -0.1442
   79MOL   H16623722   6.873   6.321   1.723  1.5443  0.1814 -2.0102
   79MOL   C16723723   6.953   6.208   1.255  0.2486 -0.9175  0.4188
   79MOL   C16823724   6.921   6.360   1.215 -0.2044  0.6605 -0.2787
   79MOL   C16923725   7.032   6.441   1.153 -0.5332  0.7279  0.2474
   79MOL   C17023726   7.143   6.382   1.093  0.4244  0.2133  0.3598
   79MOL   C17123727   7.244   6.456   1.033 -0.3188  0.0036  0.0027
   79MOL   C17223728   7.218   6.595   1.029  0.0466  0.2497  0.2966
   79MOL   C17323729   7.098   6.654   1.082  0.0486  0.1304 -0.1343
   79MOL   N17423730   7.011   6.575   1.149 -0.1893 -0.2644 -0.5213
   79MOL   H17523731   6.977   6.160   1.161  3.4757 -0.2620  0.8313
   79MOL   H17623732   7.040   6.201   1.321 -0.1260  1.5622  1.2607
   79MOL   H17723733   6.892   6.414   1.305 -0.1659 -1.7830  1.2749
   79MOL   H17823734   7.153   6.274   1.091  0.6788  0.2399  0.2126
   79MOL   H17923735   7.336   6.419   0.991 -2.0272 -1.6713 -2.3864
   79MOL   H18023736   7.285   6.661   0.976  1.8349  0.3818  2.6398
   79MOL   H18123737   7.078   6.760   1.088 -1.5308 -0.1384 -0.5891
   79MOL   C18223738   6.796   6.357   1.123  0.7958  0.8026  0.4043
   79MOL   C18323739   6.720   6.490   1.110  0.0679 -0.2252 -0.1935
   79MOL   C18423740   6.638   6.481   0.989  0.4693  0.0457  0.2249
   79MOL   C18523741   6.683   6.528   0.865 -0.2458  0.7879 -0.8086
   79MOL   C18623742   6.611   6.500   0.749  0.1555  0.5857 -0.3364
   79MOL   C18723743   6.486   6.430   0.764 -1.0658 -0.3054 -0.5018
   79MOL   C18823744   6.456   6.379   0.893 -0.7382 -0.6851  0.0922
   79MOL   N18923745   6.521   6.412   1.005  0.1614 -0.2659 -0.2474
   79MOL   H19023746   6.729   6.282   1.166 -0.3265  0.7078 -1.4392
   79MOL   H19123747   6.837   6.322   1.028  2.3144 -0.0951  1.3625
   79MOL   H19223748   6.790   6.572   1.094  0.9316 -0.4053  2.4663
   79MOL   H19323749   6.778   6.578   0.855  0.3903 -0.3638 -0.6094
   79MOL   H19423750   6.648   6.539   0.655 -2.0911  3.1621 -0.2467
   79MOL   H19523751   6.424   6.397   0.682 -2.0299 -1.7207  0.7562
   79MOL   H19623752   6.371   6.319   0.923 -0.8158 -1.8686 -2.3565
   79MOL   C19723753   6.648   6.529   1.244 -0.4152  0.0786  0.3271
   79MOL   C19823754   6.587   6.670   1.240  0.3439 -0.4041 -0.5820
   79MOL   C19923755   6.484   6.682   1.352  0.3949  0.1388  0.4243
   79MOL   C20023756   6.345   6.704   1.329  0.8300 -0.0299 -0.5105
   79MOL   C20123757   6.255   6.714   1.438  0.0446 -0.5182 -0.1933
   79MOL   C20223758   6.308   6.701   1.564 -0.1149  0.0328  0.6960
   79MOL   C20323759   6.445   6.684   1.579  1.2108  0.1232 -0.4758
   79MOL   N20423760   6.534   6.664   1.479  0.4262 -0.3785  0.6871
   79MOL   H20523761   6.710   6.513   1.332  0.8896  1.2985 -0.3644
   79MOL   H20623762   6.563   6.461   1.253 -0.7593  0.3557 -0.8349
   79MOL   H20723763   6.530   6.692   1.150  0.3498 -1.0346 -0.7415
   79MOL   H20823764   6.313   6.709   1.226  1.0508  0.0859 -0.5740
   79MOL   H20923765   6.152   6.744   1.427  0.4270  1.4335  1.3069
   79MOL   H21023766   6.246   6.715   1.651  0.4812  0.4631  1.0577
   79MOL   H21123767   6.487   6.673   1.678  2.5978 -1.1327 -1.1791
   79MOL   C21223768   6.697   6.780   1.248  0.4682  0.0914 -0.1834
   79MOL   C21323769   6.666   6.916   1.176 -0.3366  0.7677  0.8005
   79MOL   C21423770   6.679   6.899   1.024  0.3377 -0.3755 -0.5691
   79MOL   C21523771   6.782   6.960   0.951 -0.0391  0.1427 -1.0620
   79MOL   C21623772   6.791   6.953   0.813  0.0793  0.3107  0.1296
   79MOL   C21723773   6.679   6.890   0.747 -0.0464  0.2640  0.8230
   79MOL   C21823774   6.574   6.839   0.826 -0.0598  0.8888 -0.5000
   79MOL   N21923775   6.578   6.842   0.961  0.4680  0.5986 -0.6655
   79MOL   H22023776   6.788   6.740   1.202  0.6025  1.1382 -0.8403
   79MOL   H22123777   6.734   6.799   1.349 -1.9791 -3.3164  1.4228
   79MOL   H22223778   6.743   6.991   1.196 -0.4045  0.9177  0.5093
   79MOL   H22323779   6.862   7.008   1.006 -0.1402 -1.1899  0.2906
   79MOL   H22423780   6.878   6.992   0.761  0.6382 -0.1752  0.6909
   79MOL   H22523781   6.670   6.882   0.640 -0.3592  0.4215  0.8369
   79MOL   H22623782   6.484   6.810   0.774  0.3873 -0.4968 -0.5352
   79MOL   C22723783   6.541   6.997   1.215 -0.1596  0.2754  0.0416
   79MOL   C22823784   6.530   7.056   1.357 -0.9224  0.7742 -0.4004
   79MOL   C22923785   6.645   7.155   1.402  0.3052 -0.5525 -0.1871
   79MOL   C23023786   6.724   7.131   1.517  0.1897 -0.9063 -0.0308
   79MOL   C23123787   6.814   7.234   1.548  0.5501  0.5316 -0.5277
   79MOL   C23223788   6.815   7.353   1.478  0.5884 -0.1043 -0.9924
   79MOL   C23323789   6.730   7.365   1.366  0.3611 -0.0386 -0.3136
   79MOL   N23423790   6.646   7.269   1.329 -0.3222 -0.3896  0.3033
   79MOL   H23523791   6.458   6.934   1.180  0.9182 -0.6689 -0.8501
   79MOL   H23623792   6.554   7.082   1.148  0.2751  0.2028  0.0366
   79MOL   H23723793   6.538   6.962   1.412  1.4901  0.5877 -1.0278
   79MOL   H23823794   6.722   7.035   1.565 -1.2181 -0.2301  1.2751
   79MOL   H23923795   6.887   7.222   1.628 -1.0006 -1.2105  0.6681
   79MOL   H24023796   6.885   7.432   1.502  1.4502 -1.5767  1.5614
   79MOL   H24123797   6.743   7.452   1.302 -2.2607  0.2601 -0.4924
   79MOL   C24223798   6.387   7.104   1.382 -0.3698  0.1537  0.0094
   79MOL   C24323799   6.346   7.155   1.522 -0.3951 -0.3019  0.2515
   79MOL   C24423800   6.209   7.228   1.515  0.0922 -0.4825 -0.8010
   79MOL   C24523801   6.111   7.197   1.419  0.2344 -0.9855 -0.1890
   79MOL   C24623802   5.985   7.262   1.420 -0.5165  0.0446  0.5857
   79MOL   C24723803   5.962   7.347   1.532 -0.1811  0.0594  0.2039
   79MOL   C24823804   6.065   7.364   1.631 -0.7005  0.6923 -0.4415
   79MOL   N24923805   6.185   7.313   1.620 -0.4492  0.5953  0.1840
   79MOL   H25023806   6.318   7.023   1.356 -0.8784 -0.3101  2.6642
   79MOL   H25123807   6.367   7.184   1.311  2.4339  0.7755 -0.1348
   79MOL   H25223808   6.419   7.230   1.555  0.7495 -2.5924  3.0599
   79MOL   H25323809   6.135   7.123   1.344  1.4531  1.6650 -2.5056
   79MOL   H25423810   5.898   7.242   1.359 -1.2190 -0.6772  1.8078
   79MOL   H25523811   5.864   7.386   1.553 -0.3972 -0.7109  0.6519
   79MOL   H25623812   6.056   7.410   1.728  2.0912 -2.4356  1.4225
   79MOL   C25723813   6.343   7.048   1.635  0.2256 -0.3453 -0.2799
   79MOL   C25823814   6.354   7.082   1.789 -0.0988 -0.2752  0.1762
   79MOL   C25923815   6.317   6.960   1.874 -0.3164  0.0619  0.3139
   79MOL   C26023816   6.184   6.956   1.925  0.3627  0.5084  0.0359
   79MOL   C26123817   6.140   6.839   1.983  0.5236 -0.4025  0.3569
   79MOL   C26223818   6.226   6.729   1.986 -0.0972 -0.7082 -0.0174
   79MOL   C26323819   6.352   6.741   1.920 -0.4893 -0.6869 -0.0977
   79MOL   N26423820   6.398   6.859   1.867  0.0825  0.2376  0.4017
   79MOL   H26523821   6.414   6.969   1.614  2.1877  1.6770 -1.5432
   79MOL   H26623822   6.252   6.997   1.605  0.2634  0.4036 -1.7160
   79MOL   H26723823   6.277   7.157   1.806  0.7375  0.5899  0.1296
   79MOL   H26823824   6.110   7.035   1.923 -0.8895 -0.6653 -0.4088
   79MOL   H26923825   6.037   6.842   2.014  0.6165 -0.5768  0.6816
   79MOL   H27023826   6.199   6.632   2.024 -1.6854  0.5934  2.3135
   79MOL   H27123827   6.412   6.653   1.903 -2.9339 -2.5771  0.7990
   79MOL   C27223828   6.491   7.157   1.830 -0.5051  0.3366 -0.2217
   79MOL   C27323829   6.480   7.260   1.948 -0.0252 -0.5958  0.4815
   79MOL   C27423830   6.440   7.197   2.080 -0.1277  0.2352 -0.3462
   79MOL   C27523831   6.306   7.209   2.124 -0.3696 -0.4268 -0.7010
   79MOL   C27623832   6.272   7.163   2.252 -0.2816  0.1242 -0.5269
   79MOL   C27723833   6.371   7.103   2.331  0.2743 -0.3370  0.0862
   79MOL   C27823834   6.495   7.077   2.268 -0.2264 -0.6736  0.4400
   79MOL   N27923835   6.535   7.125   2.146  0.3161 -0.3841 -0.4246
   79MOL   H28023836   6.529   7.202   1.739  3.3194 -3.4027 -0.6380
   79MOL   H28123837   6.567   7.082   1.855 -1.3804  0.0389  1.6533
   79MOL   H28223838   6.398   7.327   1.924  0.4233 -1.2147 -3.0631
   79MOL   H28323839   6.239   7.258   2.054  0.3818 -1.9566 -2.5382
   79MOL   H28423840   6.171   7.171   2.290 -1.4605 -1.6639 -3.1513
   79MOL   H28523841   6.345   7.063   2.428 -1.8142  0.9717  0.1083
   79MOL   H28623842   6.572   7.014   2.309 -0.1908 -2.2215 -1.8873
   79MOL   C28723843   6.609   7.343   1.976 -0.3438 -0.5298  0.2625
   79MOL   C28823844   6.676   7.406   1.845 -0.6719  0.5435 -0.9517
   79MOL   C28923845   6.787   7.508   1.883 -0.1057  0.8453 -0.3454
   79MOL   C29023846   6.750   7.636   1.914 -0.1570  0.1666 -0.6321
   79MOL   C29123847   6.845   7.725   1.964 -0.5793  0.0177  0.2596
   79MOL   C29223848   6.983   7.688   1.959  0.5730  0.0620  0.4002
   79MOL   C29323849   7.016   7.564   1.908  0.2340 -0.0189  0.5821
   79MOL   N29423850   6.919   7.472   1.873  0.3744  0.8191  0.4529
   79MOL   H29523851   6.685   7.285   2.027  1.2943  1.4005  0.0569
   79MOL   H29623852   6.575   7.423   2.040 -3.3241 -2.5057  1.2688
   79MOL   H29723853   6.616   7.460   1.773 -0.0015 -0.4859 -2.3120
   79MOL   H29823854   6.647   7.667   1.918 -0.7663 -1.7581 -0.8002
   79MOL   H29923855   6.811   7.820   2.002 -2.3974 -1.0900  1.4710
   79MOL   H30023856   7.056   7.755   2.000 -1.3100  1.8844  0.8791
   79MOL   H30123857   7.116   7.524   1.912 -0.7507 -2.5934  0.6032
   79MOL   H30223858   6.723   7.327   1.786  1.5381  1.2263 -0.1635
   80MOL     C123859   5.012   1.544   1.361  0.6522 -0.2912  0.3346
   80MOL     C223860   4.874   1.574   1.302  0.3872 -0.3967  0.8783
   80MOL     C323861   4.881   1.609   1.153  0.0407 -0.1309  0.1609
   80MOL     C423862   4.815   1.717   1.099 -0.2277 -0.2148  1.1630
   80MOL     C523863   4.817   1.745   0.962 -0.5326  0.5966  0.1619
   80MOL     C623864   4.893   1.658   0.884  0.5937  0.1313  0.4920
   80MOL     C723865   4.948   1.543   0.939 -0.3884  0.2610  0.1895
   80MOL     N823866   4.950   1.522   1.076 -0.2108 -0.3958  0.2956
   80MOL     H923867   5.076   1.463   1.326 -0.0506 -0.9680  0.6042
   80MOL    H1023868   5.065   1.637   1.342 -2.1948  1.0830 -1.2291
   80MOL    H1123869   4.828   1.661   1.348 -3.7712 -0.0169 -3.6307
   80MOL    H1223870   4.753   1.782   1.160 -0.2011 -0.0163  0.9810
   80MOL    H1323871   4.767   1.833   0.926 -2.9092 -0.7560  0.0913
   80MOL    H1423872   4.864   1.670   0.781 -1.9676 -0.5955  1.0884
   80MOL    H1523873   4.987   1.465   0.875  0.4516  0.9566 -0.1526
   80MOL    H1623874   5.015   1.539   1.469  2.4326  1.8098  0.4231
   80MOL    C1723875   4.770   1.468   1.336  0.5237 -0.9675  0.4597
   80MOL    C1823876   4.658   1.493   1.440  0.7996  0.4563  0.2559
   80MOL    C1923877   4.527   1.438   1.401  0.5534 -0.0589  0.4141
   80MOL    C2023878   4.517   1.312   1.348 -0.4013  0.3887  0.2445
   80MOL    C2123879   4.390   1.268   1.311 -0.2197  0.0077 -0.0218
   80MOL    C2223880   4.276   1.350   1.338 -0.6888 -0.1150  0.6292
   80MOL    C2323881   4.303   1.478   1.398 -0.0270  0.2750 -0.1373
   80MOL    N2423882   4.424   1.523   1.421 -0.6189 -0.1902 -0.1504
   80MOL    H2523883   4.825   1.377   1.359 -0.2059 -1.2860  0.9547
   80MOL    H2623884   4.709   1.460   1.246 -0.6329  3.1589  0.7805
   80MOL    H2723885   4.653   1.602   1.436  2.0294  0.6859  3.5845
   80MOL    H2823886   4.600   1.245   1.329  1.6136  2.0445  2.8781
   80MOL    H2923887   4.364   1.170   1.273 -0.3315  0.2700 -0.6245
   80MOL    H3023888   4.175   1.316   1.318 -1.0236  0.7544  0.8101
   80MOL    H3123889   4.224   1.548   1.420 -0.7615 -0.0431 -1.7012
   80MOL    C3223890   4.698   1.449   1.582  0.7012  0.0609  0.4719
   80MOL    C3323891   4.621   1.513   1.699 -0.0462 -0.1552 -0.4824
   80MOL    C3423892   4.502   1.430   1.753 -0.2935  0.3598  0.4690
   80MOL    C3523893   4.368   1.477   1.761  0.4309 -0.1407 -0.2920
   80MOL    C3623894   4.269   1.404   1.824 -0.1619  0.3615 -1.1017
   80MOL    C3723895   4.300   1.282   1.882 -0.2236  0.0313  1.3780
   80MOL    C3823896   4.435   1.237   1.867  0.3329  0.6020  0.1023
   80MOL    N3923897   4.533   1.308   1.804 -0.5896 -0.1700 -0.0854
   80MOL    H4023898   4.803   1.476   1.578  0.1433  2.6751  2.1803
   80MOL    H4123899   4.706   1.340   1.581 -0.1722 -0.0094 -1.3062
   80MOL    H4223900   4.580   1.602   1.652  1.5330  0.5388 -0.5785
   80MOL    H4323901   4.341   1.573   1.718  1.4677  0.0614 -0.4943
   80MOL    H4423902   4.173   1.452   1.827 -0.5841 -0.3195 -3.1487
   80MOL    H4523903   4.229   1.224   1.938 -0.2993 -1.0592  0.1722
   80MOL    H4623904   4.464   1.150   1.924  1.8800  0.7123 -0.5040
   80MOL    C4723905   4.714   1.568   1.809  0.0179 -0.7076 -0.0333
   80MOL    C4823906   4.830   1.665   1.768 -0.2974  0.7187  0.2193
   80MOL    C4923907   4.773   1.794   1.715 -0.2314 -0.7301  0.3309
   80MOL    C5023908   4.722   1.893   1.804  0.2714 -0.1690 -0.1532
   80MOL    C5123909   4.661   2.004   1.755  0.2383  0.2472 -0.9200
   80MOL    C5223910   4.656   2.026   1.612  0.4276 -0.8449 -0.0925
   80MOL    C5323911   4.720   1.931   1.532 -0.5417  0.2469  0.4234
   80MOL    N5423912   4.770   1.818   1.580 -0.1152  0.0942  0.6201
   80MOL    H5523913   4.754   1.479   1.857 -0.0566 -0.4293  0.5435
   80MOL    H5623914   4.643   1.616   1.876  0.0281 -0.6118 -0.0919
   80MOL    H5723915   4.892   1.631   1.684  0.1568  1.2176  0.3499
   80MOL    H5823916   4.724   1.881   1.912 -1.0292  1.6085  0.1038
   80MOL    H5923917   4.603   2.074   1.815  0.4832 -0.3129 -0.0217
   80MOL    H6023918   4.608   2.115   1.574  0.3992  0.0159  1.9093
   80MOL    H6123919   4.715   1.949   1.426 -2.9171 -0.3708  0.4000
   80MOL    C6223920   4.930   1.699   1.886 -0.2251 -0.0663 -0.4631
   80MOL    C6323921   5.010   1.578   1.943  0.3334 -0.8644 -0.3815
   80MOL    C6423922   5.081   1.504   1.832 -0.2506  0.3516  0.0940
   80MOL    C6523923   5.062   1.359   1.813 -0.0871  0.0555  0.0020
   80MOL    C6623924   5.128   1.295   1.698  0.0055  0.3183  0.3666
   80MOL    C6723925   5.216   1.369   1.618 -0.0596 -0.8938 -0.9631
   80MOL    C6823926   5.231   1.509   1.655 -0.1452 -0.0213 -0.8691
   80MOL    N6923927   5.163   1.578   1.751 -0.0124 -0.1180  0.1986
   80MOL    H7023928   4.865   1.742   1.962  2.8115  1.0523  1.6133
   80MOL    H7123929   4.997   1.779   1.855 -1.5255  2.2135  2.3855
   80MOL    H7223930   4.932   1.515   1.986 -1.1523  0.0638 -1.6329
   80MOL    H7323931   4.991   1.305   1.874 -1.6028  0.1612 -1.6244
   80MOL    H7423932   5.136   1.187   1.693  1.5607  0.3592  1.5375
   80MOL    H7523933   5.268   1.326   1.534  1.6591 -1.1689  0.2293
   80MOL    H7623934   5.302   1.563   1.594  1.9876  0.1201  1.6361
   80MOL    C7723935   5.091   1.615   2.065 -0.2358 -0.1179  0.4873
   80MOL    C7823936   5.013   1.693   2.180 -0.5941  0.2219  0.2160
   80MOL    C7923937   4.873   1.644   2.210 -0.1008  0.7060 -1.5017
   80MOL    C8023938   4.764   1.731   2.204 -0.2149 -0.1553 -0.1652
   80MOL    C8123939   4.632   1.683   2.213  0.1388  0.7228  0.7761
   80MOL    C8223940   4.608   1.545   2.222 -0.3689  0.2896  0.6691
   80MOL    C8323941   4.723   1.465   2.224 -0.5638 -0.1437  1.0036
   80MOL    N8423942   4.847   1.511   2.228  0.5608 -0.4295 -0.2492
   80MOL    H8523943   5.188   1.662   2.048  0.0001 -0.8977 -0.3415
   80MOL    H8623944   5.124   1.520   2.108  1.4769 -0.0543 -0.6501
   80MOL    H8723945   5.007   1.797   2.149 -1.9028  0.5112  1.4195
   80MOL    H8823946   4.782   1.837   2.197 -0.2433 -0.1899 -0.8562
   80MOL    H8923947   4.550   1.753   2.204 -0.7376 -0.3744  0.0753
   80MOL    H9023948   4.510   1.500   2.230 -0.3096 -0.2456 -1.4192
   80MOL    H9123949   4.712   1.357   2.222  0.1194 -0.2931  3.6232
   80MOL    C9223950   5.088   1.675   2.315 -0.0228  0.0700  0.3016
   80MOL    C9323951   5.226   1.741   2.319 -0.2731 -0.1545 -0.4315
   80MOL    C9423952   5.228   1.887   2.265 -0.4590  0.5557  0.3409
   80MOL    C9523953   5.323   1.917   2.162 -0.0969  0.2247  0.7163
   80MOL    C9623954   5.312   2.045   2.110  0.7732  0.1080  0.9252
   80MOL    C9723955   5.219   2.134   2.173 -0.0449  0.1502  0.0312
   80MOL    C9823956   5.128   2.087   2.266 -0.3500  0.3414 -0.5741
   80MOL    N9923957   5.128   1.966   2.313 -0.1662 -0.1738  0.2540
   80MOL   H10023958   5.101   1.569   2.340  1.6850 -0.1197 -1.2715
   80MOL   H10123959   5.037   1.722   2.399  2.0257 -2.4761  3.0725
   80MOL   H10223960   5.291   1.676   2.260  0.8650 -0.3860  1.0669
   80MOL   H10323961   5.387   1.845   2.115  0.1446  2.3249 -2.2952
   80MOL   H10423962   5.366   2.075   2.021  0.0302  1.5482  0.9393
   80MOL   H10523963   5.211   2.238   2.143 -0.1712  0.6580  1.7985
   80MOL   H10623964   5.059   2.160   2.306  0.3588  0.4627  0.4386
   80MOL   C10723965   5.268   1.748   2.465 -0.0260 -0.6075  0.2559
   80MOL   C10823966   5.419   1.774   2.512  0.0643 -0.0377 -0.6242
   80MOL   C10923967   5.466   1.910   2.476 -0.1648  0.0102 -0.1292
   80MOL   C11023968   5.543   1.941   2.363 -0.1628 -0.4141 -0.0328
   80MOL   C11123969   5.581   2.073   2.337 -0.8658  0.1801 -0.2176
   80MOL   C11223970   5.548   2.177   2.423  0.0451 -0.2496  0.6254
   80MOL   C11323971   5.470   2.140   2.539 -0.3405  0.2242  0.5330
   80MOL   N11423972   5.427   2.010   2.564 -0.5628 -0.5529 -0.3781
   80MOL   H11523973   5.249   1.648   2.505 -3.5935 -0.4285 -0.7910
   80MOL   H11623974   5.194   1.813   2.514  1.6902  0.8080  1.0284
   80MOL   H11723975   5.484   1.714   2.448 -0.7386  0.3892 -1.8495
   80MOL   H11823976   5.576   1.863   2.295  2.5388  2.3215 -1.9652
   80MOL   H11923977   5.648   2.088   2.254 -0.7708 -0.2246 -0.2144
   80MOL   H12023978   5.574   2.280   2.404 -2.4304  0.0856 -1.2289
   80MOL   H12123979   5.438   2.218   2.606  0.6068  0.0991  1.1366
   80MOL   C12223980   5.440   1.740   2.663 -0.1872  0.1873  0.4383
   80MOL   C12323981   5.500   1.602   2.683 -1.4916 -0.1563 -0.5780
   80MOL   C12423982   5.507   1.575   2.834 -0.2967  0.7097 -0.1837
   80MOL   C12523983   5.395   1.549   2.913 -1.1987 -0.4911 -0.0030
   80MOL   C12623984   5.414   1.538   3.051  0.4456  0.3474 -0.3705
   80MOL   C12723985   5.544   1.531   3.102 -0.6543  0.5010 -0.0158
   80MOL   C12823986   5.655   1.565   3.017 -0.4975 -0.1125  1.1888
   80MOL   N12923987   5.631   1.591   2.890 -0.3735  0.5781 -0.1091
   80MOL   H13023988   5.348   1.752   2.721 -0.7294  1.2123 -0.6023
   80MOL   H13123989   5.514   1.810   2.702  1.4438  0.3457 -2.7817
   80MOL   H13223990   5.597   1.618   2.637 -1.3261 -1.7238 -0.7904
   80MOL   H13323991   5.292   1.552   2.880 -0.9993  1.4508 -0.4917
   80MOL   H13423992   5.329   1.532   3.118  0.2356 -0.2063 -0.6896
   80MOL   H13523993   5.559   1.513   3.207  3.4716 -0.0830 -0.6056
   80MOL   H13623994   5.759   1.570   3.046  0.2070 -0.0574 -1.2379
   80MOL   C13723995   5.436   1.477   2.608 -0.9097  0.8326 -0.5037
   80MOL   C13823996   5.516   1.341   2.617  0.2591  0.4923 -0.2092
   80MOL   C13923997   5.444   1.232   2.542 -0.6390  0.6832  0.2810
   80MOL   C14023998   5.432   1.100   2.592  0.7397 -0.2210 -0.1857
   80MOL   C14123999   5.363   1.010   2.510  0.5487  0.3047 -0.2512
   80MOL   C14224000   5.299   1.053   2.394  0.0623  0.7229 -0.1793
   80MOL   C14324001   5.326   1.182   2.347 -1.1191  0.2440 -0.4197
   80MOL   N14424002   5.407   1.264   2.413  0.5069  0.8405 -0.2365
   80MOL   H14524003   5.425   1.497   2.502 -0.1353 -2.4788 -1.2550
   80MOL   H14624004   5.332   1.463   2.639 -0.3407 -0.6697  0.8111
   80MOL   H14724005   5.506   1.310   2.721  0.8969 -0.6250 -0.4785
   80MOL   H14824006   5.475   1.086   2.690  1.4866 -0.9960 -0.6183
   80MOL   H14924007   5.362   0.903   2.527  1.7040 -0.0122 -2.0764
   80MOL   H15024008   5.244   0.983   2.333  0.5280 -1.7497  2.1380
   80MOL   H15124009   5.278   1.215   2.256  0.7725  1.0834 -1.1364
   80MOL   C15224010   5.660   1.350   2.564  0.0694  0.4057 -0.1348
   80MOL   C15324011   5.767   1.340   2.670 -0.4864 -0.0525 -0.1941
   80MOL   C15424012   5.752   1.214   2.756  0.5520 -0.5855 -0.3185
   80MOL   C15524013   5.704   1.229   2.889  0.4408 -0.5997 -0.2645
   80MOL   C15624014   5.695   1.116   2.973 -0.0087 -0.2250  0.5199
   80MOL   C15724015   5.740   0.992   2.916 -0.1006 -0.5140 -0.0415
   80MOL   C15824016   5.784   0.990   2.780  0.5941 -0.8316  0.2451
   80MOL   N15924017   5.785   1.096   2.702  0.3531 -0.3105  0.1350
   80MOL   H16024018   5.665   1.445   2.511  2.1440 -0.2160 -1.1085
   80MOL   H16124019   5.682   1.266   2.498 -0.3737 -1.0003  1.4694
   80MOL   H16224020   5.763   1.425   2.738 -0.3655 -0.8600  0.8516
   80MOL   H16324021   5.663   1.321   2.929 -0.4328 -1.5348  0.9998
   80MOL   H16424022   5.660   1.125   3.075 -1.7253 -0.7215 -0.0208
   80MOL   H16524023   5.746   0.903   2.978  1.6511  0.2226  0.8712
   80MOL   H16624024   5.801   0.899   2.724  0.2138  0.1673 -1.5073
   80MOL   C16724025   5.917   1.352   2.625 -0.3058  0.2641  0.2462
   80MOL   C16824026   5.966   1.482   2.554  0.2411 -0.1186  0.7052
   80MOL   C16924027   5.921   1.605   2.636 -0.2324  0.2062 -0.3268
   80MOL   C17024028   5.975   1.627   2.765  0.1866  0.0598  0.2669
   80MOL   C17124029   5.957   1.751   2.831 -0.4147  0.6104 -0.0022
   80MOL   C17224030   5.878   1.846   2.770 -0.3213  0.8053  0.0215
   80MOL   C17324031   5.827   1.818   2.644  0.1714  0.1541  0.1709
   80MOL   N17424032   5.848   1.699   2.578 -0.7325 -0.9587 -0.4912
   80MOL   H17524033   5.939   1.273   2.553 -0.7820 -1.4928  1.9676
   80MOL   H17624034   5.975   1.332   2.715 -0.7685  1.4030  0.8000
   80MOL   H17724035   5.909   1.479   2.461  1.1036 -1.7165  0.1953
   80MOL   H17824036   6.031   1.546   2.807  3.7241  2.4201  0.3269
   80MOL   H17924037   6.001   1.762   2.929 -3.8691  1.4288  1.5107
   80MOL   H18024038   5.852   1.939   2.820 -0.2494  1.1946 -0.6623
   80MOL   H18124039   5.762   1.897   2.609  0.5608  1.4560  2.2915
   80MOL   C18224040   6.112   1.481   2.504  0.2434 -0.2689 -0.9279
   80MOL   C18324041   6.143   1.378   2.395 -0.5633  0.1604 -0.0312
   80MOL   C18424042   6.078   1.424   2.269 -0.2506  0.9362 -0.1591
   80MOL   C18524043   5.975   1.350   2.208  0.0981 -0.3575 -0.0605
   80MOL   C18624044   5.896   1.421   2.117 -0.1579 -0.4738  0.6129
   80MOL   C18724045   5.922   1.555   2.088  0.2067  0.7178 -0.5281
   80MOL   C18824046   6.034   1.616   2.142 -0.4690  0.0431 -0.1150
   80MOL   N18924047   6.115   1.549   2.227 -0.0220  0.4156  0.1942
   80MOL   H19024048   6.167   1.442   2.590 -0.1911  0.8464 -0.1301
   80MOL   H19124049   6.148   1.581   2.477  0.3915  1.0124  3.5660
   80MOL   H19224050   6.092   1.282   2.404 -1.1197  0.5659  1.3905
   80MOL   H19324051   5.963   1.245   2.231  0.1288 -0.9161 -2.4224
   80MOL   H19424052   5.824   1.368   2.057  0.4309  0.7640 -1.2213
   80MOL   H19524053   5.869   1.615   2.017 -1.9193 -0.2942  0.1739
   80MOL   H19624054   6.063   1.717   2.119  1.1694 -0.9877 -2.8068
   80MOL   C19724055   6.293   1.345   2.367  0.3460 -0.1547  0.0140
   80MOL   C19824056   6.366   1.230   2.436  0.0165  0.4697 -0.2273
   80MOL   C19924057   6.369   1.235   2.592 -0.1981  0.4831 -0.5120
   80MOL   C20024058   6.495   1.243   2.654  0.2355  0.1218  0.4743
   80MOL   C20124059   6.499   1.242   2.792 -0.4603 -0.1203 -0.3703
   80MOL   C20224060   6.379   1.201   2.860 -0.7326  0.4825 -0.3845
   80MOL   C20324061   6.263   1.176   2.788  0.1680 -0.0330 -0.0312
   80MOL   N20424062   6.253   1.195   2.653 -0.0437 -0.0968 -0.9117
   80MOL   H20524063   6.352   1.433   2.393  0.4161 -0.4471  0.8586
   80MOL   H20624064   6.295   1.335   2.259 -1.3876 -0.1182 -0.0358
   80MOL   H20724065   6.466   1.238   2.395  0.3782 -3.3176 -0.3151
   80MOL   H20824066   6.589   1.244   2.600  0.0737  2.6852  0.1899
   80MOL   H20924067   6.592   1.255   2.845 -0.2156  0.3443 -0.9154
   80MOL   H21024068   6.384   1.197   2.968 -1.8610 -0.0316 -0.3474
   80MOL   H21124069   6.172   1.149   2.839  0.7233 -2.2716 -0.1529
   80MOL   C21224070   6.327   1.084   2.388  0.8134 -0.2188  0.1411
   80MOL   C21324071   6.397   1.027   2.268  0.7552 -0.2710  0.0704
   80MOL   C21424072   6.543   1.031   2.291  0.8436 -0.5996 -0.3443
   80MOL   C21524073   6.623   1.092   2.195  0.0331  0.1564  0.3293
   80MOL   C21624074   6.765   1.077   2.212  0.2230  0.1209 -0.3827
   80MOL   C21724075   6.812   0.997   2.316  0.3390  0.0342 -0.5632
   80MOL   C21824076   6.718   0.940   2.406 -0.9141  0.9889  0.2988
   80MOL   N21924077   6.586   0.953   2.392 -0.1316  0.3601 -0.3595
   80MOL   H22024078   6.220   1.068   2.376  0.8743  1.4031 -3.0146
   80MOL   H22124079   6.357   1.018   2.469  0.4862 -1.4637 -0.7403
   80MOL   H22224080   6.361   1.092   2.187 -1.8121 -0.2686  1.1770
   80MOL   H22324081   6.569   1.150   2.122  1.0957  0.5331 -0.1632
   80MOL   H22424082   6.839   1.124   2.149  1.7040 -1.7318 -0.0697
   80MOL   H22524083   6.917   0.983   2.339  0.2342  2.4352  1.5592
   80MOL   H22624084   6.759   0.878   2.485  0.0463 -0.6479 -1.4408
   80MOL   C22724085   6.356   0.880   2.238  0.5349  0.5894 -0.4537
   80MOL   C22824086   6.212   0.860   2.172  0.1738  0.0392 -0.2589
   80MOL   C22924087   6.176   0.952   2.044 -0.7510 -0.4273  0.1886
   80MOL   C23024088   6.076   1.044   2.049  0.1222 -0.4140  0.4746
   80MOL   C23124089   6.060   1.116   1.929 -0.4738  0.0436 -0.1414
   80MOL   C23224090   6.151   1.095   1.821 -0.1934  0.0947  0.5219
   80MOL   C23324091   6.242   0.988   1.828  0.8916  0.0075 -0.3684
   80MOL   N23424092   6.261   0.925   1.943 -0.2938  0.0210 -0.3460
   80MOL   H23524093   6.361   0.815   2.325  0.3654 -0.9746 -1.5778
   80MOL   H23624094   6.427   0.843   2.164 -0.1273 -0.4640 -0.5771
   80MOL   H23724095   6.158   0.898   2.258  1.7864  1.9327 -0.0389
   80MOL   H23824096   6.019   1.044   2.140  1.4571 -0.6161  1.3271
   80MOL   H23924097   5.981   1.190   1.926 -0.5078  0.0184  0.0930
   80MOL   H24024098   6.144   1.149   1.728  0.6779 -3.3121 -1.6102
   80MOL   H24124099   6.322   0.976   1.756  0.3979 -1.1755 -0.7338
   80MOL   C24224100   6.183   0.713   2.152  0.3621 -0.1031 -0.5481
   80MOL   C24324101   6.041   0.670   2.094 -0.6292  0.0434  0.4650
   80MOL   C24424102   6.059   0.599   1.958 -0.1608 -0.5642 -0.2864
   80MOL   C24524103   5.991   0.636   1.845  0.4177  0.3988 -0.1098
   80MOL   C24624104   6.000   0.556   1.728 -0.3444 -0.3182  0.1792
   80MOL   C24724105   6.098   0.457   1.727 -0.8030 -0.7003 -0.2409
   80MOL   C24824106   6.169   0.437   1.851 -0.1829  0.0117 -0.0504
   80MOL   N24924107   6.144   0.497   1.963  0.6190  0.6073  0.0081
   80MOL   H25024108   6.203   0.666   2.248 -1.4918 -0.6737 -0.4172
   80MOL   H25124109   6.259   0.676   2.083  0.7962  1.5446 -0.9736
   80MOL   H25224110   5.972   0.754   2.082  0.7924  1.0965 -0.4448
   80MOL   H25324111   5.920   0.718   1.846 -0.5846 -0.4108  3.2746
   80MOL   H25424112   5.943   0.560   1.637 -0.5880 -1.3619  0.2799
   80MOL   H25524113   6.109   0.396   1.639  0.2966 -1.1584  0.1934
   80MOL   H25624114   6.252   0.368   1.857 -1.2942 -1.2604  1.1691
   80MOL   C25724115   5.965   0.577   2.188  0.7742 -0.2870 -0.2279
   80MOL   C25824116   5.917   0.641   2.324 -0.2751 -0.6826  0.9295
   80MOL   C25924117   5.828   0.769   2.297 -0.1579 -0.4530  0.1455
   80MOL   C26024118   5.858   0.890   2.359  0.0969  0.1523 -0.2964
   80MOL   C26124119   5.783   1.004   2.339  0.4581  0.0247  0.4039
   80MOL   C26224120   5.673   0.994   2.249  0.1894 -0.7074  0.3348
   80MOL   C26324121   5.645   0.866   2.201  0.7247 -0.4497 -0.5645
   80MOL   N26424122   5.718   0.757   2.225  0.4747  0.3933  0.9907
   80MOL   H26524123   6.017   0.484   2.212  0.4866 -0.8774 -1.8533
   80MOL   H26624124   5.873   0.538   2.142  0.8936 -0.6934 -0.1298
   80MOL   H26724125   6.006   0.692   2.360 -2.1205  1.7777  2.1661
   80MOL   H26824126   5.940   0.897   2.429 -0.4029 -0.3621  0.3355
   80MOL   H26924127   5.814   1.096   2.387  0.9070  1.3369 -2.3122
   80MOL   H27024128   5.617   1.081   2.217  0.1935  0.7726  4.0650
   80MOL   H27124129   5.568   0.834   2.134 -0.7049 -2.6336  2.0144
   80MOL   C27224130   5.866   0.549   2.433 -0.0061 -0.2402 -0.0217
   80MOL   C27324131   5.981   0.483   2.521  0.0725 -0.1944  0.4195
   80MOL   C27424132   6.077   0.590   2.576 -0.4072  0.2760 -0.4845
   80MOL   C27524133   6.214   0.586   2.544 -0.1606 -0.4516  0.1928
   80MOL   C27624134   6.292   0.696   2.584  0.2159 -0.1700  0.1413
   80MOL   C27724135   6.233   0.806   2.642 -0.1101  0.3147 -0.2150
   80MOL   C27824136   6.100   0.802   2.677 -1.1827 -0.3696  0.6282
   80MOL   N27924137   6.028   0.693   2.647  0.3200  0.3780  0.1506
   80MOL   H28024138   5.796   0.481   2.383  1.5957 -0.8441 -1.4847
   80MOL   H28124139   5.801   0.606   2.499 -0.7235 -0.2470 -0.7119
   80MOL   H28224140   6.035   0.428   2.444 -0.8936 -1.0954  0.3735
   80MOL   H28324141   6.259   0.507   2.485 -0.0524  0.4869 -0.9963
   80MOL   H28424142   6.398   0.699   2.560  0.1870  0.2224  0.0578
   80MOL   H28524143   6.297   0.888   2.673  1.6836 -0.2911 -2.2211
   80MOL   H28624144   6.047   0.878   2.733 -0.1704  3.0090 -2.8568
   80MOL   C28724145   5.928   0.393   2.636  0.2299  0.6968 -0.2061
   80MOL   C28824146   6.043   0.313   2.688 -0.0446  0.4451 -0.6071
   80MOL   C28924147   6.006   0.227   2.809 -0.9954 -0.1326  0.2330
   80MOL   C29024148   6.096   0.233   2.915  0.5523 -0.5808  0.5536
   80MOL   C29124149   6.062   0.166   3.031 -0.5394  0.1784  0.4297
   80MOL   C29224150   5.940   0.097   3.037  0.2946 -1.1934 -0.5644
   80MOL   C29324151   5.863   0.088   2.922 -0.1434 -0.1337  0.1620
   80MOL   N29424152   5.897   0.143   2.803  0.0439  0.4622  0.6858
   80MOL   H29524153   5.855   0.329   2.586  1.7746  0.2157 -1.8763
   80MOL   H29624154   5.889   0.448   2.722 -0.5647  1.3904 -1.0022
   80MOL   H29724155   6.132   0.371   2.709  1.3888 -1.8415 -0.1432
   80MOL   H29824156   6.180   0.301   2.909 -0.1106  0.1567 -0.5969
   80MOL   H29924157   6.125   0.156   3.118 -1.4696 -1.7148  0.9007
   80MOL   H30024158   5.910   0.050   3.129 -1.2394  0.6087 -0.1163
   80MOL   H30124159   5.779   0.021   2.930  0.8045 -1.0820  2.7949
   80MOL   H30224160   6.087   0.243   2.617 -1.1284 -1.1342  0.2166
   81MOL     C124161   7.874   3.113   2.134  0.7047 -0.0405  0.8315
   81MOL     C224162   7.748   3.102   2.226  0.2282  0.8901 -0.0929
   81MOL     C324163   7.745   2.967   2.302 -0.3491 -0.3610  0.1524
   81MOL     C424164   7.672   2.857   2.250  0.0625 -0.1389 -0.0180
   81MOL     C524165   7.659   2.741   2.330 -0.5544  0.2904 -0.5258
   81MOL     C624166   7.722   2.742   2.450  0.6706  0.3848 -0.0739
   81MOL     C724167   7.802   2.847   2.491 -0.2657 -0.5585  0.4005
   81MOL     N824168   7.817   2.961   2.414 -0.1953  0.0118 -0.0635
   81MOL     H924169   7.958   3.097   2.202  1.3882 -0.4485 -0.1033
   81MOL    H1024170   7.870   3.025   2.070 -0.1040 -1.2963  2.5429
   81MOL    H1124171   7.665   3.087   2.157  1.4887  1.0900 -1.7158
   81MOL    H1224172   7.611   2.870   2.162  1.3902 -0.2402 -0.9633
   81MOL    H1324173   7.602   2.656   2.295 -2.0068  0.4764  1.3195
   81MOL    H1424174   7.707   2.663   2.522 -0.1777  2.2341  1.8056
   81MOL    H1524175   7.861   2.840   2.581  0.6370  2.0288  0.0632
   81MOL    H1624176   7.882   3.207   2.080  2.8820  0.1775  1.5044
   81MOL    C1724177   7.731   3.224   2.319 -0.1120  0.1881 -0.2031
   81MOL    C1824178   7.685   3.362   2.268 -0.4643 -1.1020 -0.4823
   81MOL    C1924179   7.570   3.347   2.172  0.1237  0.3640  0.4393
   81MOL    C2024180   7.579   3.385   2.040 -0.5595  0.4231  0.4015
   81MOL    C2124181   7.463   3.381   1.956  0.2194 -0.4947  0.8768
   81MOL    C2224182   7.346   3.339   2.006 -0.5944  0.3208 -0.1355
   81MOL    C2324183   7.348   3.296   2.139  1.4070  0.0688 -0.2011
   81MOL    N2424184   7.452   3.296   2.218  0.5704  0.1259  0.1442
   81MOL    H2524185   7.815   3.234   2.387  1.2919 -0.8475 -1.7293
   81MOL    H2624186   7.651   3.185   2.382  2.1821 -0.4841  2.3702
   81MOL    H2724187   7.769   3.406   2.214 -1.4914  1.2122 -0.2427
   81MOL    H2824188   7.679   3.416   2.012 -0.4985 -0.8870 -0.8865
   81MOL    H2924189   7.466   3.433   1.861  0.4720 -0.3939  0.9390
   81MOL    H3024190   7.265   3.318   1.939  0.4227 -0.0835 -1.2567
   81MOL    H3124191   7.255   3.258   2.176  1.8356 -1.6464 -0.8658
   81MOL    C3224192   7.660   3.478   2.369  0.3160  0.5383  0.1987
   81MOL    C3324193   7.764   3.600   2.377  0.1883  0.2238  0.4085
   81MOL    C3424194   7.905   3.549   2.430 -0.4817  0.5731  0.2466
   81MOL    C3524195   7.977   3.624   2.523  0.0655 -0.2333 -0.8724
   81MOL    C3624196   8.107   3.586   2.557  1.3016  0.2975 -0.5394
   81MOL    C3724197   0.009   3.476   2.490 -0.2604 -0.0357 -0.5609
   81MOL    C3824198   8.083   3.404   2.396 -0.6167 -0.9559 -0.3921
   81MOL    N3924199   7.959   3.447   2.363 -0.1894  0.2173 -0.1500
   81MOL    H4024200   7.651   3.433   2.468  0.3368 -1.0720 -0.5041
   81MOL    H4124201   7.559   3.517   2.357  0.6554  1.0348 -1.0978
   81MOL    H4224202   7.727   3.670   2.452  1.0523  0.1236  0.9358
   81MOL    H4324203   7.922   3.701   2.574  0.2998 -0.1628 -0.7288
   81MOL    H4424204   0.011   3.633   2.636  0.5219  0.0830  0.1612
   81MOL    H4524205   0.109   3.443   2.516 -0.1938 -0.2175 -1.0407
   81MOL    H4624206   8.114   3.322   2.334  1.5320  2.0870 -3.5687
   81MOL    C4724207   7.771   3.677   2.239 -0.1667  1.1087  0.2538
   81MOL    C4824208   7.643   3.753   2.199 -0.9844 -0.9108 -0.0437
   81MOL    C4924209   7.602   3.857   2.300  0.4973 -0.4649  0.5414
   81MOL    C5024210   7.476   3.855   2.354  0.7565  0.0317  0.1819
   81MOL    C5124211   7.433   3.954   2.446  0.3385  0.5405 -0.6156
   81MOL    C5224212   7.523   4.051   2.479 -0.1795  0.2942  0.1989
   81MOL    C5324213   7.651   4.048   2.423 -0.1488  0.4559  0.2635
   81MOL    N5424214   7.694   3.947   2.342  0.2696 -0.1447 -0.1542
   81MOL    H5524215   7.804   3.612   2.158 -1.0658 -1.6162  1.9927
   81MOL    H5624216   7.848   3.754   2.242 -0.8568  1.7542  1.6879
   81MOL    H5724217   7.559   3.684   2.187 -0.9329 -0.7031 -1.6442
   81MOL    H5824218   7.398   3.789   2.321  0.2541  0.8475 -0.2600
   81MOL    H5924219   7.331   3.957   2.480  1.5748  2.1030  3.1665
   81MOL    H6024220   7.500   4.141   2.534  0.8055  3.0276 -3.6936
   81MOL    H6124221   7.712   4.130   2.458  1.0135 -1.3195  2.5957
   81MOL    C6224222   7.660   3.816   2.063  0.5270 -0.9016  0.0388
   81MOL    C6324223   7.578   3.931   2.025 -0.3673 -0.1935  0.3059
   81MOL    C6424224   7.644   4.001   1.915  0.2067 -0.0432  0.2398
   81MOL    C6524225   7.714   4.119   1.944 -0.1701 -0.2302 -0.0783
   81MOL    C6624226   7.786   4.178   1.841  0.4256 -0.5050  0.6830
   81MOL    C6724227   7.780   4.125   1.713  0.2663 -0.3360  0.0406
   81MOL    C6824228   7.710   4.008   1.691 -0.0050 -0.0746  0.7550
   81MOL    N6924229   7.650   3.948   1.794 -0.1250 -0.8443 -0.1197
   81MOL    H7024230   7.651   3.744   1.982 -3.2734  0.2648 -0.6752
   81MOL    H7124231   7.759   3.860   2.061  0.4639 -0.5321  2.6053
   81MOL    H7224232   7.567   4.000   2.109  2.4525  0.8325 -0.1051
   81MOL    H7324233   7.702   4.167   2.040  0.0272 -2.0896  0.8984
   81MOL    H7424234   7.843   4.270   1.848 -0.0403 -0.1830  0.2756
   81MOL    H7524235   7.841   4.171   1.636  1.7646 -1.5911  0.4404
   81MOL    H7624236   7.698   3.962   1.594 -0.4022  1.2171  0.1856
   81MOL    C7724237   7.428   3.892   1.998  0.5712 -0.2053  0.4741
   81MOL    C7824238   7.324   4.008   1.972 -0.0484  0.7727 -0.1968
   81MOL    C7924239   7.317   4.111   2.073  0.7457  0.0761 -0.4789
   81MOL    C8024240   7.231   4.094   2.181 -0.3941  0.6944  0.4522
   81MOL    C8124241   7.211   4.196   2.272 -0.0827 -0.1615  0.2723
   81MOL    C8224242   7.287   4.315   2.262  0.1196  0.0288 -0.4469
   81MOL    C8324243   7.380   4.324   2.156 -1.1037 -0.0875  0.1018
   81MOL    N8424244   7.397   4.218   2.069  0.1319 -0.5571  0.7377
   81MOL    H8524245   7.394   3.834   2.084 -0.0737 -0.9632 -0.2818
   81MOL    H8624246   7.417   3.823   1.914  0.3975 -1.5043  1.5485
   81MOL    H8724247   7.225   3.964   1.963  0.9719 -1.5012 -0.7192
   81MOL    H8824248   7.181   3.999   2.193  2.3251 -0.5407  2.7494
   81MOL    H8924249   7.143   4.181   2.354  1.2123  0.8704  1.5459
   81MOL    H9024250   7.273   4.384   2.344  1.4662  0.5162 -0.6121
   81MOL    H9124251   7.456   4.401   2.155 -1.4383  0.2570  1.0528
   81MOL    C9224252   7.331   4.074   1.831  0.0025  0.5019  0.1480
   81MOL    C9324253   7.315   3.981   1.712  0.4273 -0.2172  0.3000
   81MOL    C9424254   7.200   3.887   1.729 -0.4335  0.0594  0.1203
   81MOL    C9524255   7.222   3.747   1.737  0.0007 -0.3581  0.2241
   81MOL    C9624256   7.108   3.662   1.755 -0.4404  0.3398  0.0929
   81MOL    C9724257   6.984   3.725   1.771  0.1528  0.1430  0.6218
   81MOL    C9824258   6.975   3.862   1.754 -0.4560  0.3119 -0.4565
   81MOL    N9924259   7.081   3.946   1.740 -0.1442  1.0314  0.2236
   81MOL   H10024260   7.418   4.138   1.816  0.6458 -0.2690  0.5475
   81MOL   H10124261   7.247   4.143   1.824 -0.2893  0.0298 -1.1252
   81MOL   H10224262   7.401   3.917   1.689  0.4232  0.4194 -1.5578
   81MOL   H10324263   7.317   3.699   1.721  0.0472 -0.0752 -0.3516
   81MOL   H10424264   7.131   3.557   1.767  1.5827  0.7633  0.1001
   81MOL   H10524265   6.889   3.674   1.776 -0.7805  1.6508 -1.2486
   81MOL   H10624266   6.874   3.901   1.759 -1.4275 -2.0363 -1.1861
   81MOL   C10724267   7.295   4.060   1.579  0.0375  0.0184  0.0976
   81MOL   C10824268   7.249   3.979   1.452 -0.5302 -0.3328 -0.5171
   81MOL   C10924269   7.210   4.072   1.344 -0.2934  0.3114 -0.1446
   81MOL   C11024270   7.075   4.085   1.314 -0.4650 -0.2507 -0.0649
   81MOL   C11124271   7.041   4.187   1.221  0.3072  0.0490 -0.2348
   81MOL   C11224272   7.137   4.261   1.158  0.9921  0.4385 -0.1633
   81MOL   C11324273   7.272   4.237   1.191 -0.4720  0.4077  0.3709
   81MOL   N11424274   7.312   4.143   1.284  0.1317 -0.0628  0.5909
   81MOL   H11524275   7.378   4.127   1.558 -0.0492  1.3376  3.6401
   81MOL   H11624276   7.218   4.135   1.593 -0.1584  0.3689 -2.6199
   81MOL   H11724277   7.169   3.910   1.477 -0.3403 -0.5803 -0.6003
   81MOL   H11824278   6.996   4.031   1.364  0.1932 -0.8068  0.3857
   81MOL   H11924279   6.935   4.205   1.212  0.4349  1.8550  1.5233
   81MOL   H12024280   7.102   4.338   1.090 -2.3240 -1.2163 -0.4178
   81MOL   H12124281   7.354   4.293   1.148  0.4180 -0.7966  0.4669
   81MOL   C12224282   7.348   3.873   1.394  0.1751 -0.0625 -0.4838
   81MOL   C12324283   7.284   3.787   1.281  0.5019  0.3011 -0.3388
   81MOL   C12424284   7.373   3.747   1.173 -0.0760 -0.1845 -0.2982
   81MOL   C12524285   7.384   3.825   1.056 -0.0739 -0.2211 -0.3277
   81MOL   C12624286   7.483   3.787   0.961 -0.6792  0.0414  0.2460
   81MOL   C12724287   7.567   3.681   0.993  0.4092  0.5194  0.0551
   81MOL   C12824288   7.546   3.609   1.113  0.5447 -0.4038 -0.9478
   81MOL   N12924289   7.449   3.639   1.203 -0.5150  0.0894  0.0056
   81MOL   H13024290   7.387   3.803   1.467  1.2081 -0.1371 -1.0989
   81MOL   H13124291   7.436   3.923   1.356 -1.3509  1.9715 -1.4434
   81MOL   H13224292   7.208   3.844   1.227  1.3154  1.5084 -0.2342
   81MOL   H13324293   7.324   3.911   1.031 -0.2834 -0.1533  0.4043
   81MOL   H13424294   7.491   3.834   0.864  0.5008 -2.5803 -0.9935
   81MOL   H13524295   7.643   3.648   0.925  2.0124  0.5440  1.8045
   81MOL   H13624296   7.589   3.510   1.119 -1.0799 -0.9820  1.8034
   81MOL   C13724297   7.213   3.665   1.343  0.1744  0.3198 -0.8068
   81MOL   C13824298   7.121   3.572   1.255 -0.5159  0.8043 -0.2446
   81MOL   C13924299   7.082   3.446   1.332  0.3737  0.2550 -0.1094
   81MOL   C14024300   7.098   3.315   1.278  0.6473 -0.1498 -0.9479
   81MOL   C14124301   7.054   3.202   1.348 -0.6578 -0.7134 -0.0246
   81MOL   C14224302   6.980   3.221   1.468  0.0374 -0.2442 -0.2124
   81MOL   C14324303   6.966   3.357   1.513  0.3615  0.5374 -0.0382
   81MOL   N14424304   7.011   3.469   1.443  0.2901  0.7387 -0.2871
   81MOL   H14524305   7.154   3.695   1.430 -2.1902  0.9441 -2.5802
   81MOL   H14624306   7.293   3.601   1.381 -1.4990 -0.6241  1.2769
   81MOL   H14724307   7.177   3.531   1.171  0.5768  0.4099  0.6582
   81MOL   H14824308   7.161   3.308   1.190 -0.1480  1.8924 -1.7084
   81MOL   H14924309   7.069   3.101   1.313  0.8570 -0.1420 -1.1099
   81MOL   H15024310   6.947   3.133   1.522  0.0377 -1.7736 -2.6220
   81MOL   H15124311   6.896   3.381   1.592 -1.3653  1.9602 -1.9696
   81MOL   C15224312   6.992   3.653   1.207  0.0538  0.1553 -0.1826
   81MOL   C15324313   7.004   3.724   1.069  0.2072  0.0555  0.8154
   81MOL   C15424314   7.003   3.625   0.954 -0.0330  0.0241  0.1925
   81MOL   C15524315   7.114   3.627   0.870  0.4616  1.0583  0.4797
   81MOL   C15624316   7.106   3.547   0.757 -0.0134 -0.5163 -0.1924
   81MOL   C15724317   6.986   3.473   0.735  0.2298 -0.4270  0.0448
   81MOL   C15824318   6.880   3.478   0.823  0.3073 -0.2489  0.0718
   81MOL   N15924319   6.890   3.559   0.930 -0.0663 -0.2725 -0.5391
   81MOL   H16024320   6.959   3.717   1.288 -0.3664 -1.7679  1.1918
   81MOL   H16124321   6.918   3.574   1.201  0.2248  0.0741 -1.4856
   81MOL   H16224322   7.104   3.766   1.068  1.3285 -2.5338  0.1212
   81MOL   H16324323   7.200   3.690   0.885  1.4348 -0.8361  3.2966
   81MOL   H16424324   7.186   3.537   0.685 -1.9124 -1.8187 -2.1720
   81MOL   H16524325   6.978   3.415   0.644 -1.3734  1.8929 -1.3677
   81MOL   H16624326   6.784   3.428   0.822  0.4470 -0.5000 -1.5542
   81MOL   C16724327   6.902   3.837   1.071  0.0946 -0.5294  0.1888
   81MOL   C16824328   6.838   3.887   0.936 -0.1517 -0.2942 -0.1790
   81MOL   C16924329   6.722   3.981   0.965  0.2417 -0.5960 -0.3632
   81MOL   C17024330   6.592   3.961   0.909 -0.2594  0.6636  0.0913
   81MOL   C17124331   6.490   4.056   0.928 -0.3106  0.1202  0.6452
   81MOL   C17224332   6.518   4.169   1.011  0.4497 -0.3568 -0.8054
   81MOL   C17324333   6.649   4.178   1.064  0.5021  0.1166 -0.2823
   81MOL   N17424334   6.749   4.094   1.034  0.5196 -0.3832  0.1278
   81MOL   H17524335   6.935   3.926   1.126 -0.2705 -0.1788 -0.1520
   81MOL   H17624336   6.825   3.792   1.134  1.5597 -1.6184  1.2137
   81MOL   H17724337   6.794   3.804   0.880 -1.3746 -0.0621  0.4296
   81MOL   H17824338   6.576   3.869   0.854  0.3630 -0.8226  2.3042
   81MOL   H17924339   6.390   4.041   0.889  0.5367 -0.2947 -1.4258
   81MOL   H18024340   6.436   4.236   1.027  1.8272  1.7248 -2.1854
   81MOL   H18124341   6.669   4.248   1.144  3.2292 -3.3176  2.2070
   81MOL   C18224342   6.938   3.959   0.836  0.4301  0.9344 -0.9132
   81MOL   C18324343   6.900   3.963   0.679 -0.7112 -0.9996 -0.3825
   81MOL   C18424344   6.941   4.083   0.599  0.0595 -0.4315 -0.5934
   81MOL   C18524345   6.845   4.164   0.531 -0.0212  0.3194  0.9944
   81MOL   C18624346   6.901   4.267   0.455 -0.2182  0.0273 -0.2025
   81MOL   C18724347   7.036   4.278   0.442 -0.6409  0.3504  0.2096
   81MOL   C18824348   7.119   4.210   0.524  0.3121  0.4668  0.0019
   81MOL   N18924349   7.070   4.110   0.603 -0.3371  0.4784  0.4109
   81MOL   H19024350   7.034   3.909   0.848 -0.5029 -0.4898  0.8996
   81MOL   H19124351   6.970   4.061   0.853  2.2748  0.1548  0.5738
   81MOL   H19224352   6.791   3.971   0.673 -0.5415  0.9080 -1.2811
   81MOL   H19324353   6.738   4.155   0.542 -0.0788  0.3325  0.4488
   81MOL   H19424354   6.825   4.328   0.408 -0.4703  0.1893  0.4013
   81MOL   H19524355   7.071   4.357   0.377 -1.1314 -1.4406 -2.3121
   81MOL   H19624356   7.225   4.230   0.529  0.4946 -0.1984 -1.1183
   81MOL   C19724357   6.939   3.828   0.614  0.1800 -0.3278  0.0015
   81MOL   C19824358   6.848   3.775   0.500 -0.0007  0.1643  0.7342
   81MOL   C19924359   6.938   3.727   0.388  0.2662  0.4504  0.1602
   81MOL   C20024360   6.936   3.793   0.265 -0.2585  0.3720  0.6917
   81MOL   C20124361   7.024   3.737   0.161  0.1551  0.4106 -0.1682
   81MOL   C20224362   7.093   3.615   0.192  0.3470  0.5097  0.1781
   81MOL   C20324363   7.084   3.564   0.318  0.3391 -0.1173  0.4405
   81MOL   N20424364   7.003   3.614   0.411  0.1963 -0.7525 -0.9621
   81MOL   H20524365   6.942   3.748   0.687 -1.5517  0.4802  0.9965
   81MOL   H20624366   7.037   3.838   0.568 -0.3377 -0.3910 -1.1377
   81MOL   H20724367   6.815   3.873   0.464 -0.1289 -0.2740 -0.3805
   81MOL   H20824368   6.874   3.877   0.238 -0.8091  0.3579  1.8746
   81MOL   H20924369   7.033   3.786   0.065  0.1786  1.1969  0.2339
   81MOL   H21024370   7.152   3.570   0.114 -0.3849 -0.2223  0.0504
   81MOL   H21124371   7.147   3.480   0.342 -0.9820 -1.7916 -1.6999
   81MOL   C21224372   6.729   3.687   0.542 -0.1487 -0.1693  0.5360
   81MOL   C21324373   6.688   3.567   0.457  0.4737  0.6322  0.3977
   81MOL   C21424374   6.601   3.477   0.543 -0.1360  0.0232  0.3756
   81MOL   C21524375   6.651   3.352   0.593  0.1615 -0.0884  0.6429
   81MOL   C21624376   6.553   3.251   0.633 -1.0725 -0.2008  0.3250
   81MOL   C21724377   6.418   3.293   0.637 -0.2544  0.2160  0.6564
   81MOL   C21824378   6.385   3.423   0.603  0.5750  0.0947  0.4176
   81MOL   N21924379   6.473   3.507   0.562 -0.0919 -0.3119  0.0997
   81MOL   H22024380   6.644   3.752   0.559 -1.5202 -1.2243 -1.9797
   81MOL   H22124381   6.761   3.638   0.634 -1.3875 -2.1156 -0.0620
   81MOL   H22224382   6.783   3.516   0.443  0.9969  1.4328  0.9562
   81MOL   H22324383   6.749   3.311   0.571  0.5379  0.7879  0.6418
   81MOL   H22424384   6.575   3.150   0.663 -0.8071  0.4450  2.3261
   81MOL   H22524385   6.340   3.224   0.663  1.5405 -0.8412  3.4260
   81MOL   H22624386   6.281   3.453   0.607  0.5786  0.2962 -0.8609
   81MOL   C22724387   6.629   3.599   0.312  0.4591  0.0284 -0.2062
   81MOL   C22824388   6.526   3.503   0.240 -0.0616 -0.6649 -0.4308
   81MOL   C22924389   6.487   3.566   0.102  0.6351  0.2228 -0.6874
   81MOL   C23024390   6.352   3.579   0.081 -0.3541  0.2298 -0.5050
   81MOL   C23124391   6.310   3.614   8.102  0.1292  0.1924 -0.7804
   81MOL   C23224392   6.404   3.645   8.001 -0.3609  0.5736 -0.1127
   81MOL   C23324393   6.539   3.647   8.042 -0.5926 -0.4597  1.1883
   81MOL   N23424394   6.579   3.603   0.007  0.1652 -0.2220  0.4106
   81MOL   H23524395   6.714   3.628   0.249  0.4941 -0.4481 -0.3771
   81MOL   H23624396   6.578   3.694   0.329  1.1442  0.6824 -1.6851
   81MOL   H23724397   6.439   3.501   0.304  0.1167  3.9858  0.1076
   81MOL   H23824398   6.279   3.548   0.154 -0.0789  1.7376  0.4162
   81MOL   H23924399   6.205   3.624   8.075 -0.0796  2.0346  0.6201
   81MOL   H24024400   6.370   3.681   7.905 -2.0959  0.5431  0.4755
   81MOL   H24124401   6.614   3.695   7.981 -1.5630  0.1667  0.4713
   81MOL   C24224402   6.579   3.364   0.223  0.3628  0.1984 -0.3013
   81MOL   C24324403   6.481   3.260   0.161 -0.5890 -0.4448 -0.3198
   81MOL   C24424404   6.561   3.165   0.063  0.3874 -0.1225  0.1577
   81MOL   C24524405   6.559   3.178   8.070 -0.1678 -0.4929  0.4591
   81MOL   C24624406   6.614   3.074   7.993 -0.3655  0.2235 -0.0206
   81MOL   C24724407   6.687   2.968   8.055  0.2884 -0.0813 -0.1951
   81MOL   C24824408   6.707   2.984   0.042 -0.2544 -0.4304  0.5522
   81MOL   N24924409   6.637   3.068   0.117 -0.2913 -0.8240  0.1373
   81MOL   H25024410   6.622   3.336   0.319  0.3757  0.5167 -0.2163
   81MOL   H25124411   6.662   3.372   0.152  0.2771 -0.5608 -0.4959
   81MOL   H25224412   6.406   3.307   0.097 -0.7186 -0.4663 -0.1853
   81MOL   H25324413   6.507   3.261   8.024 -2.1569 -0.8071  2.0617
   81MOL   H25424414   6.603   3.068   7.885 -0.9570  0.2861  0.0322
   81MOL   H25524415   6.726   2.889   7.992 -0.6160  0.7715 -1.8487
   81MOL   H25624416   6.791   2.931   0.086  0.8423  1.0060  0.2168
   81MOL   C25724417   6.407   3.178   0.271 -0.0239  1.0346 -0.2925
   81MOL   C25824418   6.296   3.085   0.219 -0.1270 -0.1797  0.4661
   81MOL   C25924419   6.297   2.947   0.282 -0.1039  0.1294  0.3394
   81MOL   C26024420   6.340   2.839   0.203  0.5910 -0.9574  0.2870
   81MOL   C26124421   6.336   2.712   0.263 -0.0413 -0.6818 -0.3529
   81MOL   C26224422   6.288   2.697   0.391 -0.2463 -0.2185 -0.8000
   81MOL   C26324423   6.249   2.815   0.457  0.1873  0.0550  0.5335
   81MOL   N26424424   6.253   2.939   0.407  0.2409 -0.9362 -0.0342
   81MOL   H26524425   6.364   3.241   0.349  0.3852  0.2748  0.5608
   81MOL   H26624426   6.477   3.111   0.321 -1.2892  0.8629  1.3243
   81MOL   H26724427   6.320   3.064   0.115 -0.5760  1.6187 -0.0140
   81MOL   H26824428   6.370   2.847   0.099  0.9064 -0.5463  0.4071
   81MOL   H26924429   6.354   2.626   0.200 -0.5224  0.0163 -1.4683
   81MOL   H27024430   6.287   2.596   0.431 -0.6328  0.4066  0.7984
   81MOL   H27124431   6.213   2.815   0.559 -1.4191 -3.1349  0.0503
   81MOL   C27224432   6.160   3.153   0.215  0.0947  0.5097  0.4004
   81MOL   C27324433   6.066   3.103   0.098 -0.5722  0.4787 -0.4113
   81MOL   C27424434   5.922   3.127   0.128 -0.0934  0.7478 -0.0586
   81MOL   C27524435   5.881   3.217   0.225 -0.0556 -0.3028  0.1489
   81MOL   C27624436   5.744   3.223   0.251  0.4375  0.5110 -0.1261
   81MOL   C27724437   5.649   3.158   0.169 -0.3107  0.0319  0.0467
   81MOL   C27824438   5.701   3.083   0.059  0.0906  0.5939 -0.0330
   81MOL   N27924439   5.834   3.076   0.036 -0.6448  0.1497 -0.1885
   81MOL   H28024440   6.167   3.261   0.202  0.8200  0.4609  0.4114
   81MOL   H28124441   6.120   3.137   0.315 -2.0920  0.7910 -0.3894
   81MOL   H28224442   6.080   2.995   0.088 -0.2602  0.5613 -0.9048
   81MOL   H28324443   5.955   3.272   0.281  1.0552 -0.9039 -0.7343
   81MOL   H28424444   5.711   3.292   0.327  1.4921 -1.0533  1.7864
   81MOL   H28524445   5.544   3.168   0.191 -0.1604  0.3646  0.6255
   81MOL   H28624446   5.628   3.038   8.145 -0.7385  0.0383  1.2347
   81MOL   C28724447   6.109   3.176   8.118 -0.8520  0.1880 -0.3933
   81MOL   C28824448   6.090   3.322   8.105  1.0949  0.5496 -0.1479
   81MOL   C28924449   6.109   3.372   7.967 -0.2582  0.1780  0.6695
   81MOL   C29024450   6.001   3.432   7.902 -0.0649  0.7904  0.2414
   81MOL   C29124451   6.013   3.455   7.766 -0.0212  0.5446  0.0466
   81MOL   C29224452   6.139   3.422   7.710  0.3839  0.0134 -0.5813
   81MOL   C29324453   6.242   3.380   7.786 -0.4999 -0.1049 -0.5898
   81MOL   N29424454   6.232   3.366   7.916  0.2323  0.0890  0.1715
   81MOL   H29524455   6.055   3.137   8.032 -0.4317 -0.4428 -0.3752
   81MOL   H29624456   6.215   3.162   8.097 -0.2209 -0.9841  3.1408
   81MOL   H29724457   6.150   3.376   0.026 -0.0489 -1.1670  2.1053
   81MOL   H29824458   5.906   3.447   7.951  0.2978  0.2057  1.1256
   81MOL   H29924459   5.940   3.485   7.691 -0.7304  0.0429  0.5243
   81MOL   H30024460   6.152   3.413   7.603 -0.5555 -1.3211 -0.5883
   81MOL   H30124461   6.340   3.367   7.743  0.3173  1.8618  0.6166
   81MOL   H30224462   5.987   3.335   8.138  1.6665 -2.1217  2.8681
   82MOL     C124463   2.145   7.161   4.128  0.3512  0.4516 -0.1341
   82MOL     C224464   2.168   7.285   4.204 -0.3999 -0.3091 -0.3964
   82MOL     C324465   2.029   7.359   4.213 -0.7379  0.5431  0.4296
   82MOL     C424466   2.014   7.491   4.177 -0.5391  0.4650  0.5079
   82MOL     C524467   1.889   7.552   4.200  0.1918  0.1821 -0.8035
   82MOL     C624468   1.789   7.483   4.272  0.3565  0.0241 -0.0134
   82MOL     C724469   1.816   7.350   4.299  0.1331 -0.7499 -0.1122
   82MOL     N824470   1.934   7.285   4.271  0.2166  0.3665  0.2362
   82MOL     H924471   2.072   7.167   4.047 -2.1274 -5.8045  1.3167
   82MOL    H1024472   2.235   7.115   4.088 -0.1408  0.5305 -1.3641
   82MOL    H1124473   2.222   7.351   4.136 -1.9428 -0.8463 -2.1852
   82MOL    H1224474   2.091   7.543   4.122  0.1519 -1.2118 -0.1706
   82MOL    H1324475   1.873   7.656   4.175  0.9563  0.9000  1.5232
   82MOL    H1424476   1.692   7.520   4.300  0.8898  1.2418  0.2731
   82MOL    H1524477   1.737   7.295   4.348 -1.1106  0.0581 -1.1855
   82MOL    H1624478   2.109   7.085   4.197  0.1963  1.1440  0.5521
   82MOL    C1724479   2.226   7.256   4.343 -0.0692  0.8032  0.4753
   82MOL    C1824480   2.371   7.201   4.348  0.7222 -0.3681 -0.4936
   82MOL    C1924481   2.481   7.294   4.290  0.5883 -0.4318  0.1092
   82MOL    C2024482   2.535   7.270   4.160  0.0759  0.5664 -0.0923
   82MOL    C2124483   2.624   7.368   4.108  0.0664 -0.0315  0.0815
   82MOL    C2224484   2.659   7.475   4.193  0.4652 -0.7679  1.4095
   82MOL    C2324485   2.602   7.485   4.316 -0.2774 -0.2326  0.4318
   82MOL    N2424486   2.519   7.393   4.370 -0.1194  0.6608  0.6798
   82MOL    H2524487   2.157   7.178   4.377  0.3066 -0.3256 -1.2643
   82MOL    H2624488   2.210   7.337   4.414 -0.6215 -0.5895  1.9899
   82MOL    H2724489   2.372   7.109   4.289 -0.3057 -0.2978 -0.6278
   82MOL    H2824490   2.510   7.184   4.100  1.5395 -0.4157  0.6749
   82MOL    H2924491   2.667   7.362   4.010 -0.3189  1.1591 -0.1776
   82MOL    H3024492   2.731   7.549   4.162 -0.5315 -0.0519  0.7519
   82MOL    H3124493   2.628   7.567   4.381  1.6176 -0.0886 -0.4657
   82MOL    C3224494   2.401   7.156   4.496 -0.1120 -0.0014  0.4438
   82MOL    C3324495   2.342   7.021   4.538 -0.4138 -0.9384  0.3890
   82MOL    C3424496   2.371   6.913   4.432 -0.1855 -0.8695 -0.5750
   82MOL    C3524497   2.278   6.889   4.324 -0.9403 -0.1552 -0.5295
   82MOL    C3624498   2.323   6.791   4.233  0.0659 -0.6221  0.4338
   82MOL    C3724499   2.457   6.734   4.239  0.3650  0.1044 -0.1431
   82MOL    C3824500   2.534   6.778   4.346 -0.3305 -0.4434 -0.4335
   82MOL    N3924501   2.496   6.869   4.439 -0.1042  0.6854  0.4841
   82MOL    H4024502   2.380   7.236   4.567 -1.2191 -1.0727  1.3211
   82MOL    H4124503   2.508   7.137   4.501 -0.0805 -0.3065 -1.0449
   82MOL    H4224504   2.235   7.039   4.535 -0.2278  0.3338  0.8922
   82MOL    H4324505   2.180   6.934   4.320 -1.9742 -2.2352  0.8860
   82MOL    H4424506   2.252   6.766   4.156 -0.0195  2.0512 -0.3980
   82MOL    H4524507   2.494   6.659   4.170 -0.4517 -1.7955  1.4680
   82MOL    H4624508   2.633   6.740   4.367  0.2349  2.2539  2.1361
   82MOL    C4724509   2.398   6.980   4.682  0.1287 -0.3754  0.9352
   82MOL    C4824510   2.309   6.877   4.754  0.0716 -0.2309  0.2371
   82MOL    C4924511   2.398   6.769   4.811 -0.1356 -0.6972  0.3240
   82MOL    C5024512   2.419   6.649   4.732 -0.0978 -0.1165  0.3102
   82MOL    C5124513   2.505   6.549   4.787  0.1981 -0.4565 -0.0523
   82MOL    C5224514   2.554   6.567   4.915 -0.4037 -0.9921  1.0026
   82MOL    C5324515   2.523   6.686   4.981  0.8804 -0.8188  0.2840
   82MOL    N5424516   2.449   6.785   4.933  0.6812  0.0041  0.0189
   82MOL    H5524517   2.397   7.067   4.748 -1.7240 -0.4227  0.9854
   82MOL    H5624518   2.501   6.946   4.674 -0.5894 -2.3951  0.1359
   82MOL    H5724519   2.239   6.833   4.682 -0.9360  1.5097  0.0928
   82MOL    H5824520   2.374   6.640   4.634 -1.0325  0.0492  0.7217
   82MOL    H5924521   2.517   6.452   4.742 -2.6872 -1.9284  2.1708
   82MOL    H6024522   2.597   6.487   4.974 -0.4901 -1.6746  0.1536
   82MOL    H6124523   2.545   6.703   5.085  1.2306  3.1166 -0.3706
   82MOL    C6224524   2.218   6.944   4.866 -1.1546 -0.2623  0.2726
   82MOL    C6324525   2.111   7.044   4.806 -0.9002  0.1072  0.5968
   82MOL    C6424526   2.005   6.991   4.713 -0.0649  0.2210 -0.1534
   82MOL    C6524527   1.984   7.049   4.588 -0.1923  0.3614 -0.0632
   82MOL    C6624528   1.872   7.007   4.515  0.1491  0.7085  0.5899
   82MOL    C6724529   1.816   6.880   4.556 -0.0928 -0.7076  0.0867
   82MOL    C6824530   1.862   6.808   4.670 -0.0189 -0.0561  0.0004
   82MOL    N6924531   1.958   6.867   4.749  0.1934  0.8728  0.2041
   82MOL    H7024532   2.274   6.998   4.942  0.9389 -0.0322 -1.3791
   82MOL    H7124533   2.176   6.860   4.922 -0.7306 -0.0784  0.8715
   82MOL    H7224534   2.176   7.103   4.741  0.0581 -1.6001 -0.0299
   82MOL    H7324535   2.024   7.147   4.565  0.3813 -0.1988 -1.5568
   82MOL    H7424536   1.852   7.058   4.422  0.6646  0.1382  0.1635
   82MOL    H7524537   1.741   6.821   4.506 -0.6352  0.5075 -0.5519
   82MOL    H7624538   1.817   6.714   4.696  0.2620 -0.4668 -0.9567
   82MOL    C7724539   2.037   7.124   4.917 -1.0606  0.1208 -0.3846
   82MOL    C7824540   2.092   7.260   4.962  0.7064  0.5231  1.1840
   82MOL    C7924541   2.167   7.339   4.858 -0.3643 -0.0159  0.1079
   82MOL    C8024542   2.297   7.390   4.882  0.3050 -0.0595  0.4147
   82MOL    C8124543   2.348   7.488   4.791 -0.4570 -0.8492  0.2019
   82MOL    C8224544   2.281   7.509   4.670  0.0085  0.1966  0.0526
   82MOL    C8324545   2.162   7.436   4.653  0.8745 -0.3737  0.6253
   82MOL    N8424546   2.101   7.358   4.745  0.1447 -0.6274 -0.1992
   82MOL    H8524547   2.008   7.049   4.991 -2.6245 -0.5686 -1.6628
   82MOL    H8624548   1.940   7.142   4.869  0.2013 -1.1888 -3.5635
   82MOL    H8724549   2.160   7.235   5.044  1.0648  0.8478  0.9883
   82MOL    H8824550   2.338   7.366   4.979  3.3593  0.0304 -0.8142
   82MOL    H8924551   2.444   7.531   4.817 -0.7004  0.1078 -0.4576
   82MOL    H9024552   2.325   7.576   4.597 -1.9732  1.5535  0.0821
   82MOL    H9124553   2.107   7.464   4.565  0.8967  2.8738  1.5797
   82MOL    C9224554   1.979   7.353   5.016  0.9547 -1.0796 -0.4575
   82MOL    C9324555   1.885   7.312   5.131  0.9850  0.1627  0.0250
   82MOL    C9424556   1.954   7.243   5.247  0.2588 -0.0516  0.1941
   82MOL    C9524557   1.997   7.308   5.358 -0.2556  0.1723 -0.2423
   82MOL    C9624558   2.059   7.244   5.468 -0.1952  0.3825  0.1893
   82MOL    C9724559   2.071   7.103   5.459  0.6809 -0.3684 -0.0362
   82MOL    C9824560   2.024   7.044   5.345  0.1612 -0.4692 -0.2194
   82MOL    N9924561   1.970   7.111   5.242  1.0804  0.5923 -0.1840
   82MOL   H10024562   1.927   7.405   4.936  2.0256 -0.0141 -0.4687
   82MOL   H10124563   2.027   7.445   5.047 -1.8958 -0.1896  1.5333
   82MOL   H10224564   1.819   7.235   5.092  0.3856  0.1236  1.1321
   82MOL   H10324565   1.975   7.412   5.380  1.8045  0.0523  2.6718
   82MOL   H10424566   2.086   7.304   5.553 -2.6030  1.3231  0.3460
   82MOL   H10524567   2.117   7.054   5.544 -1.3758  2.2565  2.6750
   82MOL   H10624568   2.026   6.937   5.341  0.1391 -0.5193  0.9983
   82MOL   C10724569   1.805   7.432   5.183 -0.0091  0.0818 -0.1093
   82MOL   C10824570   1.691   7.472   5.090  0.1895 -0.4023  0.0281
   82MOL   C10924571   1.567   7.385   5.098  0.2968  0.1768  0.2757
   82MOL   C11024572   1.534   7.285   4.999 -0.4386  0.0626 -0.4380
   82MOL   C11124573   1.418   7.217   5.013  0.3814 -0.4618  0.0041
   82MOL   C11224574   1.344   7.232   5.131  0.0504  0.0648  0.5281
   82MOL   C11324575   1.383   7.327   5.227  0.3200  0.0893  0.1736
   82MOL   N11424576   1.487   7.411   5.205 -0.1185  0.1317 -0.1561
   82MOL   H11524577   1.867   7.520   5.197 -1.3371  0.8577  0.9502
   82MOL   H11624578   1.760   7.408   5.279 -1.8059  2.5012 -0.2988
   82MOL   H11724579   1.749   7.453   5.000  2.0790 -1.3938  1.4156
   82MOL   H11824580   1.591   7.283   4.908  0.9541 -1.0342  0.4400
   82MOL   H11924581   1.381   7.145   4.941  0.8370 -0.5434 -0.1478
   82MOL   H12024582   1.253   7.174   5.133  0.8024 -1.1962 -0.5967
   82MOL   H12124583   1.317   7.342   5.312  0.0103 -1.9133  0.3203
   82MOL   C12224584   1.656   7.625   5.089  0.3967  0.0929 -0.6275
   82MOL   C12324585   1.761   7.720   5.035 -0.0460 -0.1299 -0.9357
   82MOL   C12424586   1.771   7.740   4.891 -0.7838 -0.1529 -0.2654
   82MOL   C12524587   1.892   7.702   4.822 -0.1559 -0.1578  0.3150
   82MOL   C12624588   1.908   7.736   4.690  0.4454  0.3442 -0.2424
   82MOL   C12724589   1.809   7.820   4.638 -0.1795 -0.5449 -0.3478
   82MOL   C12824590   1.703   7.867   4.712  0.4785 -0.2502 -0.4461
   82MOL   N12924591   1.681   7.819   4.833 -0.5076  0.5170  0.4287
   82MOL   H13024592   1.637   7.638   5.196  1.4923  0.2020 -0.4312
   82MOL   H13124593   1.566   7.641   5.031  0.1287  0.2619 -0.1674
   82MOL   H13224594   1.854   7.672   5.063 -1.1123 -0.9217  1.4042
   82MOL   H13324595   1.967   7.640   4.869  0.1965 -0.0546 -0.1037
   82MOL   H13424596   1.989   7.686   4.638 -1.5021 -0.0844 -3.0079
   82MOL   H13524597   1.813   7.870   4.542  2.0692 -0.6085 -0.3180
   82MOL   H13624598   1.621   7.915   4.662  0.7607 -0.5403 -1.1947
   82MOL   C13724599   1.768   7.853   5.123  1.0144 -0.1504 -0.3396
   82MOL   C13824600   1.655   7.954   5.115 -0.3637 -0.3589 -0.6608
   82MOL   C13924601   1.511   7.896   5.132 -0.5724  0.0105  0.5512
   82MOL   C14024602   1.423   7.887   5.023 -0.1694  0.0937 -0.1828
   82MOL   C14124603   1.307   7.804   5.038 -0.2896  0.1344 -0.7444
   82MOL   C14224604   1.279   7.742   5.162 -0.0806  0.2969  0.0586
   82MOL   C14324605   1.372   7.762   5.268 -0.1031  0.1544 -0.2310
   82MOL   N14424606   1.486   7.834   5.252  0.1632  0.5209 -0.4386
   82MOL   H14524607   1.858   7.911   5.101  1.5494 -0.8155  0.1103
   82MOL   H14624608   1.769   7.835   5.230  1.0095  1.9284  0.0368
   82MOL   H14724609   1.664   7.997   5.015 -0.2932 -0.3090 -0.6339
   82MOL   H14824610   1.453   7.924   4.926 -2.9297  1.8070 -0.4524
   82MOL   H14924611   1.244   7.767   4.958 -1.9637 -1.0633  1.1023
   82MOL   H15024612   1.190   7.684   5.179 -0.8560  1.3451 -0.3305
   82MOL   H15124613   1.350   7.723   5.366  1.1757 -1.0431 -0.4047
   82MOL   C15224614   1.668   8.082   5.207 -0.1272 -0.2446 -0.3470
   82MOL   C15324615   1.615   0.057   5.130  0.4291 -0.0900 -0.6834
   82MOL   C15424616   1.554   0.159   5.224 -0.0232 -0.5259 -0.5014
   82MOL   C15524617   1.414   0.161   5.244 -0.9473 -0.1371  0.5384
   82MOL   C15624618   1.373   0.237   5.351  0.2040 -0.2741  0.5987
   82MOL   C15724619   1.463   0.298   5.440 -0.8835  0.1085 -0.1768
   82MOL   C15824620   1.600   0.287   5.411 -0.1887 -0.6319  0.6713
   82MOL   N15924621   1.646   0.217   5.306  0.2951 -0.2791  0.3635
   82MOL   H16024622   1.776   8.092   5.212 -0.0960  1.4267 -3.1429
   82MOL   H16124623   1.622   8.066   5.305  0.1250 -2.8367 -0.6157
   82MOL   H16224624   1.532   0.019   5.070 -0.3274  1.1164 -0.4163
   82MOL   H16324625   1.345   0.106   5.181 -1.1356  0.7607 -0.0390
   82MOL   H16424626   1.266   0.242   5.365  0.4047  1.8185  1.4505
   82MOL   H16524627   1.442   0.342   5.537 -0.4131 -0.0737  0.0047
   82MOL   H16624628   1.674   0.329   5.476  1.0357 -2.6484  0.6255
   82MOL   C16724629   1.721   0.106   5.041 -0.4227  0.0076 -0.1111
   82MOL   C16824630   1.689   0.193   4.915  0.0727 -0.3254  0.5268
   82MOL   C16924631   1.818   0.236   4.862  0.4202 -1.1976 -0.4716
   82MOL   C17024632   1.854   0.376   4.862  0.1220  0.7438  0.7511
   82MOL   C17124633   1.980   0.401   4.794  0.5145 -0.2425 -0.1010
   82MOL   C17224634   2.067   0.295   4.763  0.6409  1.0709 -0.0289
   82MOL   C17324635   2.016   0.162   4.759 -0.3739  0.4498 -0.0063
   82MOL   N17424636   1.895   0.137   4.813 -0.3404  0.8623  0.1930
   82MOL   H17524637   1.775   0.017   5.006  2.8700  1.2204  1.6701
   82MOL   H17624638   1.787   0.157   5.110  1.6577 -0.8898 -1.3714
   82MOL   H17724639   1.631   0.279   4.947 -2.5540 -1.3499 -1.2883
   82MOL   H17824640   1.792   0.455   4.902  1.3802  1.5354  1.1545
   82MOL   H17924641   2.015   0.502   4.778  0.5546  0.0878  1.9494
   82MOL   H18024642   2.162   0.305   4.712  0.4916  2.6250 -0.0238
   82MOL   H18124643   2.069   0.075   4.724 -2.5686 -0.4386 -1.2133
   82MOL   C18224644   1.603   0.112   4.808  0.2715 -0.0645 -0.1086
   82MOL   C18324645   1.572   0.193   4.681 -0.1946  0.5540 -0.2397
   82MOL   C18424646   1.669   0.169   4.565  0.0148 -0.0212  0.8660
   82MOL   C18524647   1.749   0.272   4.517 -0.3132 -0.1850  0.1026
   82MOL   C18624648   1.849   0.242   4.417  0.4849  0.0598 -0.0005
   82MOL   C18724649   1.853   0.106   4.367  0.0550  0.2090  0.2608
   82MOL   C18824650   1.763   0.010   4.424  0.5045  0.4958 -0.2110
   82MOL   N18924651   1.674   0.040   4.522  0.4815 -0.5999  0.4731
   82MOL   H19024652   1.520   0.075   4.868 -1.7533  0.1997 -2.6315
   82MOL   H19124653   1.644   0.013   4.787  0.8452  0.3850 -1.1390
   82MOL   H19224654   1.598   0.296   4.704 -0.0279  0.2307  1.0127
   82MOL   H19324655   1.737   0.371   4.558 -0.8058 -0.2217  0.0518
   82MOL   H19424656   1.919   0.316   4.379  1.3756 -1.0128 -0.4712
   82MOL   H19524657   1.940   0.071   4.315  1.2159  0.8502  1.7273
   82MOL   H19624658   1.759   8.059   4.389 -3.2911  0.3896  0.3039
   82MOL   C19724659   1.423   0.201   4.642 -0.1709  0.3797  0.7727
   82MOL   C19824660   1.359   0.067   4.611  0.1868 -0.3072 -0.5534
   82MOL   C19924661   1.230   0.053   4.695 -0.9244  0.5292  0.4293
   82MOL   C20024662   1.129   0.147   4.685  0.9513  0.3229  0.0721
   82MOL   C20124663   1.021   0.130   4.768 -0.1327 -0.4109 -0.0848
   82MOL   C20224664   1.020   0.018   4.853 -0.4119 -0.5609 -0.3860
   82MOL   C20324665   1.124   8.082   4.859  0.6416  0.3708 -0.6225
   82MOL   N20424666   1.228   8.096   4.776  0.3310  0.5559 -0.2697
   82MOL   H20524667   1.407   0.266   4.556  0.1664  0.5417  0.8303
   82MOL   H20624668   1.368   0.255   4.719  0.9694 -0.2221  2.0402
   82MOL   H20724669   1.426   8.136   4.633  0.6363  0.4948  1.1546
   82MOL   H20824670   1.135   0.231   4.618  0.6629 -0.4265 -0.8898
   82MOL   H20924671   0.944   0.206   4.769  0.6308  0.3858 -0.9142
   82MOL   H21024672   0.944   0.015   4.929  2.7694  1.3630  3.0672
   82MOL   H21124673   1.132   7.997   4.926  2.5969  2.4256  1.8304
   82MOL   C21224674   1.328   0.047   4.455  0.3397 -0.2792 -0.3204
   82MOL   C21324675   1.298   8.051   4.417  0.9790  0.5619  0.0069
   82MOL   C21424676   1.214   8.029   4.288  0.1147 -0.7344  0.1631
   82MOL   C21524677   1.264   8.060   4.157 -0.1258 -0.5587  0.3734
   82MOL   C21624678   1.185   8.046   4.048  0.4719  0.0869  0.2915
   82MOL   C21724679   1.053   8.011   4.065  0.0347  0.0004  0.0607
   82MOL   C21824680   1.013   7.974   4.197  0.3813 -0.4349 -0.2034
   82MOL   N21924681   1.087   7.989   4.308 -0.0258 -0.4849 -0.1056
   82MOL   H22024682   1.409   0.088   4.395  0.1189 -0.3696 -0.6819
   82MOL   H22124683   1.240   0.104   4.426  1.3793  1.6846  0.2885
   82MOL   H22224684   1.233   8.014   4.495  0.8411 -0.3634 -0.5339
   82MOL   H22324685   1.369   8.087   4.151  0.4664 -2.7746  0.1878
   82MOL   H22424686   1.230   8.080   3.956 -0.4836  2.7180  0.7428
   82MOL   H22524687   0.986   8.006   3.981 -1.2729  0.6047  1.0440
   82MOL   H22624688   0.914   7.934   4.213  0.8096 -1.7239 -0.7534
   82MOL   C22724689   1.429   7.964   4.414  0.1783 -0.3327 -0.1446
   82MOL   C22824690   1.401   7.807   4.388 -0.2942  0.0993 -0.3529
   82MOL   C22924691   1.412   7.775   4.243 -0.5099 -0.2293 -0.1553
   82MOL   C23024692   1.300   7.728   4.170  0.5270  0.1738 -0.0369
   82MOL   C23124693   1.317   7.691   4.035  0.6132 -0.1977  0.2917
   82MOL   C23224694   1.444   7.696   3.983  0.3425  0.2051  0.3281
   82MOL   C23324695   1.551   7.732   4.064 -0.0063 -0.6131  0.2425
   82MOL   N23424696   1.534   7.770   4.192 -0.0749  0.2536 -0.1633
   82MOL   H23524697   1.470   7.986   4.513  1.2728  1.2888 -0.9276
   82MOL   H23624698   1.506   8.000   4.345  1.2482 -1.5301  0.3963
   82MOL   H23724699   1.299   7.795   4.422 -0.3686  2.3735  0.2829
   82MOL   H23824700   1.208   7.699   4.220 -0.2572 -0.6825 -1.9241
   82MOL   H23924701   1.230   7.649   3.987  0.3966 -1.4993  1.7741
   82MOL   H24024702   1.466   7.662   3.883  2.5798 -1.3405  1.3031
   82MOL   H24124703   1.646   7.717   4.016  0.6109  1.0998  0.8990
   82MOL   C24224704   1.484   7.706   4.475  0.4440  0.4448  0.6944
   82MOL   C24324705   1.417   7.572   4.513 -0.4781 -0.2652 -0.2705
   82MOL   C24424706   1.515   7.460   4.566  0.9336 -0.4689  0.2295
   82MOL   C24524707   1.624   7.490   4.649  0.1875  0.1191 -0.0898
   82MOL   C24624708   1.717   7.387   4.681  1.0404  0.7366  0.2116
   82MOL   C24724709   1.682   7.255   4.639  0.2172 -1.0083 -0.3710
   82MOL   C24824710   1.567   7.239   4.566  0.4480  0.2657 -0.6696
   82MOL   N24924711   1.485   7.336   4.523  0.2134  0.1367  0.5802
   82MOL   H25024712   1.495   7.757   4.571 -0.3093  2.1244 -0.0976
   82MOL   H25124713   1.578   7.679   4.426 -0.3979  1.6199 -1.6040
   82MOL   H25224714   1.385   7.544   4.413  0.4831  0.6838 -0.8587
   82MOL   H25324715   1.636   7.592   4.685 -2.4065  0.2345  0.5417
   82MOL   H25424716   1.798   7.394   4.752 -0.7728 -4.1081  3.0731
   82MOL   H25524717   1.740   7.173   4.678  1.0943  0.2199  0.9842
   82MOL   H25624718   1.538   7.143   4.527 -0.9462  0.7450 -0.8784
   82MOL   C25724719   1.295   7.586   4.619 -0.3357  0.1039 -0.1989
   82MOL   C25824720   1.184   7.480   4.612 -0.4289 -0.1711 -0.0254
   82MOL   C25924721   1.111   7.477   4.748  0.0353  0.0739 -0.4658
   82MOL   C26024722   1.031   7.590   4.782 -0.9240  0.6883  0.7904
   82MOL   C26124723   0.996   7.609   4.918  0.5763 -0.3742  0.4611
   82MOL   C26224724   1.030   7.504   5.011  0.2203 -0.5468  0.5524
   82MOL   C26324725   1.103   7.390   4.963 -0.5215  0.1651  0.2072
   82MOL   N26424726   1.143   7.381   4.833 -0.1202 -0.0552  0.0250
   82MOL   H26524727   1.239   7.679   4.605 -0.9249 -0.3460 -0.8881
   82MOL   H26624728   1.336   7.596   4.720  1.3033 -0.6919 -0.7707
   82MOL   H26724729   1.231   7.383   4.593 -1.5912 -0.8786  0.5831
   82MOL   H26824730   1.033   7.680   4.723 -1.5915  0.9698  1.1918
   82MOL   H26924731   0.949   7.699   4.955  0.7931 -0.5287  1.1054
   82MOL   H27024732   0.990   7.524   5.109  3.1010 -2.5087  2.2066
   82MOL   H27124733   1.111   7.307   5.032 -1.1893 -0.8340 -0.8940
   82MOL   C27224734   1.089   7.510   4.488  0.2874  0.0129 -0.2204
   82MOL   C27324735   1.001   7.390   4.436  0.3687  1.2598  0.5305
   82MOL   C27424736   0.885   7.366   4.531  0.4394  0.3431 -0.2197
   82MOL   C27524737   0.875   7.244   4.605  0.0466 -0.2184 -0.5824
   82MOL   C27624738   0.779   7.229   4.707 -1.1473 -0.3331  0.6408
   82MOL   C27724739   0.691   7.334   4.723  0.2672  0.5274 -0.2744
   82MOL   C27824740   0.709   7.455   4.651  0.1092 -0.6735 -0.0813
   82MOL   N27924741   0.801   7.469   4.554 -0.0381  0.1481 -0.1096
   82MOL   H28024742   1.156   7.556   4.415 -1.0683  1.6462 -0.4487
   82MOL   H28124743   1.021   7.591   4.512  0.8828  0.4636 -0.0758
   82MOL   H28224744   1.067   7.304   4.450  0.2290  1.4482  2.4830
   82MOL   H28324745   0.949   7.167   4.595  0.3327 -0.0826  0.4432
   82MOL   H28424746   0.783   7.144   4.773  2.4031 -0.1970  0.6751
   82MOL   H28524747   0.618   7.334   4.803  0.8727  3.0142  0.3419
   82MOL   H28624748   0.640   7.538   4.659  1.5709  0.6003 -0.4999
   82MOL   C28724749   0.954   7.402   4.293  0.0175  0.7819 -0.2933
   82MOL   C28824750   1.062   7.417   4.183  0.0789  0.5501 -0.9118
   82MOL   C28924751   0.996   7.454   4.052 -0.0878 -0.1650 -0.0820
   82MOL   C29024752   0.982   7.585   4.005 -0.0532 -0.3675 -0.6745
   82MOL   C29124753   0.910   7.613   3.886  0.1985  0.1723  0.2980
   82MOL   C29224754   0.864   7.506   3.811  0.2812  0.0351 -0.0994
   82MOL   C29324755   0.883   7.373   3.861 -0.5213 -0.1562  1.1363
   82MOL   N29424756   0.952   7.350   3.976 -1.0396  0.2125 -0.0244
   82MOL   H29524757   0.880   7.482   4.284  0.2952  1.1314  0.4710
   82MOL   H29624758   0.899   7.310   4.273 -0.2465  0.3523  2.2184
   82MOL   H29724759   1.114   7.322   4.174 -1.5540 -0.3540 -0.8312
   82MOL   H29824760   1.006   7.662   4.076  0.5103 -1.6684  0.5550
   82MOL   H29924761   0.886   7.716   3.859  0.1715  0.2430  0.5943
   82MOL   H30024762   0.809   7.527   3.720 -1.3823  0.5631  1.0098
   82MOL   H30124763   0.846   7.294   3.797 -0.9337  2.9333 -2.6511
   82MOL   H30224764   1.126   7.503   4.206  1.4126  0.1104 -2.8480
   83MOL     C124765   4.776   6.665   5.430  0.5149  0.2854 -0.4089
   83MOL     C224766   4.848   6.541   5.402 -0.4621  0.1704  0.1145
   83MOL     C324767   4.790   6.455   5.292  0.0208  0.4238 -0.3163
   83MOL     C424768   4.700   6.498   5.192  0.2601  0.2988  0.0011
   83MOL     C524769   4.660   6.406   5.087 -0.2715 -0.4452  0.6080
   83MOL     C624770   4.718   6.281   5.080 -0.3392 -0.6410 -0.5636
   83MOL     C724771   4.807   6.249   5.187  0.6542  0.5675  0.0806
   83MOL     N824772   4.833   6.323   5.290 -0.5022 -0.0447 -0.0456
   83MOL     H924773   4.786   6.750   5.361 -0.0296  1.4426  0.9192
   83MOL    H1024774   4.671   6.635   5.426  0.6223 -0.0598 -0.6279
   83MOL    H1124775   4.851   6.474   5.488 -0.7383 -0.5698 -0.4527
   83MOL    H1224776   4.669   6.600   5.178  0.6794  0.0574 -3.0417
   83MOL    H1324777   4.588   6.434   5.012  0.7011 -0.7426 -0.4453
   83MOL    H1424778   4.702   6.212   4.999  0.5512  0.0205 -1.3164
   83MOL    H1524779   4.855   6.153   5.179  0.5827  0.6262 -1.2425
   83MOL    H1624780   4.789   6.702   5.532  3.3323  0.0627 -0.6600
   83MOL    C1724781   4.996   6.550   5.370  0.0200  0.0804  0.2403
   83MOL    C1824782   5.094   6.607   5.474  1.0162 -0.1902 -0.1430
   83MOL    C1924783   5.116   6.500   5.590 -0.3372 -0.5710 -0.5375
   83MOL    C2024784   5.046   6.516   5.713  0.1614 -0.4643  0.5194
   83MOL    C2124785   5.058   6.416   5.816 -0.3498  0.4854 -0.0804
   83MOL    C2224786   5.119   6.295   5.787  0.3422 -0.8193  0.6248
   83MOL    C2324787   5.188   6.290   5.663  0.7584  0.1013 -0.0771
   83MOL    N2424788   5.183   6.390   5.569  0.0701  0.6636 -0.2087
   83MOL    H2524789   5.027   6.605   5.281 -1.1247 -1.3441 -1.0602
   83MOL    H2624790   5.039   6.453   5.346 -0.3906 -0.1872  0.5800
   83MOL    H2724791   5.040   6.688   5.523 -0.2871 -0.9783 -0.2619
   83MOL    H2824792   4.985   6.601   5.739  1.3267  0.7796 -0.7257
   83MOL    H2924793   5.023   6.433   5.916  1.4795  3.5384  0.1039
   83MOL    H3024794   5.127   6.215   5.859 -1.6713 -1.0949  0.5496
   83MOL    H3124795   5.255   6.209   5.640  1.3254  0.2685  0.9510
   83MOL    C3224796   5.224   6.668   5.414 -0.2007  0.0263  0.1912
   83MOL    C3324797   5.215   6.789   5.323 -0.7730  0.2222  0.3386
   83MOL    C3424798   5.122   6.904   5.370  0.0547 -0.5253  0.0139
   83MOL    C3524799   5.027   6.966   5.287  0.9111  0.9683 -0.7495
   83MOL    C3624800   4.941   7.063   5.347 -0.5385 -0.3801 -0.1066
   83MOL    C3724801   4.956   7.114   5.478 -0.0763  0.2470  0.2225
   83MOL    C3824802   5.057   7.048   5.547 -0.7810 -0.3872 -0.7117
   83MOL    N3924803   5.135   6.945   5.497  0.6635  0.2402  0.2554
   83MOL    H4024804   5.284   6.590   5.369 -1.6806  0.5170 -2.8086
   83MOL    H4124805   5.275   6.720   5.495 -0.6162 -1.3051  1.3114
   83MOL    H4224806   5.166   6.756   5.231  1.5556 -0.4489 -0.6975
   83MOL    H4324807   5.004   6.949   5.183  0.5144  0.4335 -0.5739
   83MOL    H4424808   4.864   7.114   5.291  0.3526 -0.3373 -1.2982
   83MOL    H4524809   4.899   7.195   5.521 -0.0567 -0.9259  2.5297
   83MOL    H4624810   5.086   7.073   5.648 -0.9888 -1.6131 -0.3385
   83MOL    C4724811   5.359   6.844   5.287  0.6193  0.0894 -0.2308
   83MOL    C4824812   5.370   6.968   5.207 -0.5146 -0.9405  0.5639
   83MOL    C4924813   5.505   7.036   5.213 -0.5477 -0.1339 -0.4150
   83MOL    C5024814   5.516   7.151   5.290 -0.0525 -0.1013  0.0074
   83MOL    C5124815   5.635   7.222   5.287 -0.1775 -1.3175 -0.6027
   83MOL    C5224816   5.740   7.165   5.209  0.7065 -0.1445 -0.4184
   83MOL    C5324817   5.725   7.042   5.135  0.1466  0.2095 -0.6234
   83MOL    N5424818   5.605   6.984   5.139 -0.0000  0.5140 -0.2030
   83MOL    H5524819   5.421   6.764   5.247  0.0314 -0.9546  0.8744
   83MOL    H5624820   5.406   6.865   5.383 -0.9028 -0.7570  0.7339
   83MOL    H5724821   5.300   7.039   5.251 -0.3077 -0.7052  0.5121
   83MOL    H5824822   5.439   7.188   5.355 -0.3204 -0.8601  0.1343
   83MOL    H5924823   5.657   7.310   5.345 -2.8804  0.1204 -1.6372
   83MOL    H6024824   5.838   7.209   5.207  0.6105  0.0398 -1.2918
   83MOL    H6124825   5.806   6.996   5.081 -1.7056 -1.6700 -1.9125
   83MOL    C6224826   5.316   6.948   5.064  0.2288 -0.2421 -0.1561
   83MOL    C6324827   5.328   7.071   4.971  0.2371  0.9532  0.3977
   83MOL    C6424828   5.265   7.039   4.834  0.0910 -1.1071  0.5252
   83MOL    C6524829   5.347   7.023   4.718  0.2409  0.7169 -0.3045
   83MOL    C6624830   5.280   7.008   4.592  0.4760 -0.5002 -0.4984
   83MOL    C6724831   5.140   7.007   4.585  0.2821  0.4019 -0.3732
   83MOL    C6824832   5.072   7.046   4.702 -0.0857  0.2299  0.2255
   83MOL    N6924833   5.126   7.046   4.828  0.3738  0.0233  0.3498
   83MOL    H7024834   5.214   6.909   5.068 -0.3572  1.3854  2.6177
   83MOL    H7124835   5.382   6.871   5.025 -1.0600 -1.8501  0.7954
   83MOL    H7224836   5.436   7.071   4.955  0.5611 -3.0276  1.9112
   83MOL    H7324837   5.454   7.008   4.731  0.5799  3.6454  0.7781
   83MOL    H7424838   5.338   6.983   4.504  0.7401  1.2054 -0.8451
   83MOL    H7524839   5.090   7.000   4.490  1.3081 -1.5818 -0.7924
   83MOL    H7624840   4.965   7.053   4.703 -0.0722  0.3653  1.9329
   83MOL    C7724841   5.273   7.198   5.038 -0.0734 -0.2533 -0.0616
   83MOL    C7824842   5.249   7.330   4.961  0.5907  0.2383  0.5959
   83MOL    C7924843   5.226   7.443   5.067 -0.5830  0.0203  0.4350
   83MOL    C8024844   5.111   7.523   5.056 -0.6935 -0.2690  0.5846
   83MOL    C8124845   5.099   7.632   5.141 -0.3464 -0.0481  0.0307
   83MOL    C8224846   5.207   7.661   5.232 -0.5977 -0.1171 -0.3380
   83MOL    C8324847   5.320   7.574   5.239  0.5011 -0.0283  0.4400
   83MOL    N8424848   5.331   7.469   5.153  0.2507 -0.7263  0.2091
   83MOL    H8524849   5.346   7.215   5.118  0.8261 -2.6610 -0.3398
   83MOL    H8624850   5.181   7.159   5.083 -0.0898  1.1650  1.1901
   83MOL    H8724851   5.155   7.319   4.907  0.3110  0.0581  1.1218
   83MOL    H8824852   5.042   7.487   4.980 -0.4963 -0.8694  0.6870
   83MOL    H8924853   5.016   7.700   5.130 -0.3324 -0.1843 -0.9802
   83MOL    H9024854   5.195   7.738   5.306  2.3359 -1.3361  1.4965
   83MOL    H9124855   5.401   7.603   5.305  0.6722  1.5510 -0.4560
   83MOL    C9224856   5.350   7.385   4.859 -0.5091  0.4644  0.3570
   83MOL    C9324857   5.338   7.525   4.803  0.4314 -0.2616 -0.2640
   83MOL    C9424858   5.461   7.561   4.726 -0.5880  0.1310  0.0347
   83MOL    C9524859   5.570   7.619   4.795  0.4427 -0.4958 -0.0768
   83MOL    C9624860   5.692   7.616   4.731  0.2846  0.2242 -0.4469
   83MOL    C9724861   5.694   7.604   4.590 -0.8382  0.2234  0.4439
   83MOL    C9824862   5.575   7.563   4.524  0.2111  0.3031  0.0831
   83MOL    N9924863   5.464   7.529   4.591  0.8184  0.6521  0.0334
   83MOL   H10024864   5.361   7.318   4.774 -2.5689  1.7985 -0.9976
   83MOL   H10124865   5.446   7.382   4.911 -0.5760 -1.3455  0.4227
   83MOL   H10224866   5.334   7.589   4.891 -1.8844 -0.9371  0.1553
   83MOL   H10324867   5.570   7.637   4.902  1.0041  0.8643 -0.2994
   83MOL   H10424868   5.786   7.629   4.782  0.9420  0.0783 -1.5942
   83MOL   H10524869   5.788   7.611   4.538 -0.8657  3.1890  0.7029
   83MOL   H10624870   5.572   7.542   4.418  0.0781 -2.2644  0.5772
   83MOL   C10724871   5.207   7.562   4.722 -0.4652  0.3507 -0.2148
   83MOL   C10824872   5.167   7.709   4.695 -0.7965  0.4969  0.0809
   83MOL   C10924873   5.036   7.720   4.617  0.4698  0.0983  0.3910
   83MOL   C11024874   5.038   7.787   4.493 -0.3553  0.4204  0.0938
   83MOL   C11124875   4.913   7.807   4.428  0.6482  0.2468  0.1456
   83MOL   C11224876   4.790   7.770   4.493  0.2231 -0.1348 -0.2835
   83MOL   C11324877   4.802   7.707   4.617 -0.0884  0.6399 -0.7871
   83MOL   N11424878   4.921   7.680   4.681 -0.5433  0.0429  0.1995
   83MOL   H11524879   5.123   7.520   4.778  0.2399 -1.4132 -0.4392
   83MOL   H11624880   5.219   7.503   4.631  0.6980 -3.0006  2.0107
   83MOL   H11724881   5.251   7.739   4.633  0.4434  2.1099  2.4625
   83MOL   H11824882   5.131   7.829   4.459 -0.9552  1.9435  0.3174
   83MOL   H11924883   4.904   7.863   4.337  0.5465 -3.4094 -2.2000
   83MOL   H12024884   4.693   7.778   4.445  0.4092  0.1801 -0.6125
   83MOL   H12124885   4.716   7.668   4.669  0.3184  0.5280 -0.1904
   83MOL   C12224886   5.165   7.802   4.819 -1.1597 -0.3316 -0.1953
   83MOL   C12324887   5.298   7.875   4.836  0.1400 -0.9785 -0.3645
   83MOL   C12424888   5.333   7.962   4.715  0.5306  0.5816 -0.1383
   83MOL   C12524889   5.447   7.929   4.638 -0.6647  0.1012 -0.2808
   83MOL   C12624890   5.475   8.004   4.520 -0.2306 -0.1651  0.7312
   83MOL   C12724891   5.387   8.115   4.493 -0.0506 -0.6678 -0.4471
   83MOL   C12824892   5.287   8.148   4.584  0.1884 -0.7411  0.0823
   83MOL   N12924893   5.257   8.070   4.693 -0.0209 -0.0810 -0.2852
   83MOL   H13024894   5.143   7.753   4.914  0.9379  1.8818  1.5008
   83MOL   H13124895   5.093   7.883   4.806 -0.4642  0.2270 -0.6225
   83MOL   H13224896   5.377   7.800   4.847 -0.1832 -1.5086 -1.6166
   83MOL   H13324897   5.509   7.846   4.666  1.8557  2.5163  1.5636
   83MOL   H13424898   5.562   7.984   4.459 -0.5287 -3.0959  1.1945
   83MOL   H13524899   5.401   0.031   4.410 -0.5808 -1.2592 -1.0315
   83MOL   H13624900   5.223   0.083   4.581  1.0257 -0.0731  1.0836
   83MOL   C13724901   5.322   7.953   4.965  0.7102  0.4193 -0.5259
   83MOL   C13824902   5.225   8.062   5.007 -0.3068 -0.1826  0.2464
   83MOL   C13924903   5.094   8.021   5.073  0.4008 -0.2172  0.2644
   83MOL   C14024904   4.978   8.039   4.994 -0.2621 -0.1437 -0.1136
   83MOL   C14124905   4.858   8.010   5.057  0.2952 -0.6574  0.5488
   83MOL   C14224906   4.866   7.947   5.185 -0.2141  0.1858  0.2025
   83MOL   C14324907   4.990   7.929   5.252  0.1838  0.0013  0.4735
   83MOL   N14424908   5.100   7.962   5.192 -0.0072 -0.2560 -0.9054
   83MOL   H14524909   5.421   7.991   4.943  1.6015 -3.4250 -3.7639
   83MOL   H14624910   5.338   7.882   5.047  0.6184  0.6624 -0.2974
   83MOL   H14724911   5.191   8.114   4.918  0.2242  0.0314  0.1661
   83MOL   H14824912   4.972   8.089   4.899 -2.9823  1.1741  0.6875
   83MOL   H14924913   4.769   8.028   4.997  0.4552  1.2642  0.8617
   83MOL   H15024914   4.769   7.917   5.223 -0.0192 -1.5080 -0.5975
   83MOL   H15124915   4.994   7.873   5.344  3.3200 -0.2209  0.2414
   83MOL   C15224916   5.287   0.020   5.093  0.3445  0.4733  0.1312
   83MOL   C15324917   5.397   0.106   5.020  0.1895  0.2318 -0.6451
   83MOL   C15424918   5.333   0.209   4.928 -0.4359 -0.1668 -0.5316
   83MOL   C15524919   5.369   0.217   4.792 -0.3964  0.1991  0.2317
   83MOL   C15624920   5.322   0.320   4.711 -0.7963  0.5113 -0.1785
   83MOL   C15724921   5.238   0.416   4.775  0.2580 -0.3727 -0.6132
   83MOL   C15824922   5.199   0.394   4.909 -0.2285 -0.2853 -0.3700
   83MOL   N15924923   5.241   0.295   4.982 -0.0016  0.2782 -0.6085
   83MOL   H16024924   5.328   8.128   5.184 -1.9662  0.4820  1.2204
   83MOL   H16124925   5.206   0.079   5.135 -1.0251 -0.9214 -0.4781
   83MOL   H16224926   5.450   0.042   4.949 -3.0059 -2.4343 -0.7188
   83MOL   H16324927   5.439   0.149   4.747 -1.3726 -1.7281  1.5576
   83MOL   H16424928   5.358   0.336   4.610  1.2502  1.5332  0.6921
   83MOL   H16524929   5.199   0.499   4.717 -0.8261 -0.0990  0.4972
   83MOL   H16624930   5.148   0.475   4.960 -3.0005 -2.5129  0.5674
   83MOL   C16724931   5.505   0.166   5.110  0.1679 -0.4914  0.3872
   83MOL   C16824932   5.607   0.259   5.043  0.0490 -0.5543 -0.6329
   83MOL   C16924933   5.569   0.407   5.038 -0.7866 -0.1930 -0.0867
   83MOL   C17024934   5.562   0.478   4.911 -0.8446 -0.0211  0.2864
   83MOL   C17124935   5.545   0.615   4.917 -1.0293 -0.2295 -0.3212
   83MOL   C17224936   5.531   0.680   5.036 -0.0651 -1.1706 -0.4469
   83MOL   C17324937   5.533   0.615   5.154  0.5657 -0.6097 -0.0770
   83MOL   N17424938   5.546   0.475   5.156 -0.3832 -0.0737 -0.2224
   83MOL   H17524939   5.562   0.080   5.144  1.4241 -0.3785 -1.3420
   83MOL   H17624940   5.448   0.208   5.193  0.8514 -0.3504  0.7842
   83MOL   H17724941   5.618   0.227   4.939  0.2226 -2.6434  0.0159
   83MOL   H17824942   5.588   0.423   4.822  2.0340  0.8053  0.5654
   83MOL   H17924943   5.564   0.676   4.829 -1.0265  0.6895  0.3123
   83MOL   H18024944   5.529   0.788   5.042  1.1428 -1.2117  0.9651
   83MOL   H18124945   5.506   0.672   5.242  1.2385  0.8602 -0.8199
   83MOL   C18224946   5.746   0.250   5.100  0.1378 -0.1292 -0.4554
   83MOL   C18324947   5.827   0.115   5.078 -0.6213 -0.4167  0.0054
   83MOL   C18424948   5.803   0.038   4.950  0.2476  0.1619 -0.1222
   83MOL   C18524949   5.778   8.050   4.963 -0.4725  0.2521 -0.1272
   83MOL   C18624950   5.753   7.981   4.846  0.4761  0.2463 -0.4188
   83MOL   C18724951   5.765   8.048   4.723  1.1048  0.5812 -0.0925
   83MOL   C18824952   5.803   0.031   4.722  0.4646  0.5643 -0.5469
   83MOL   N18924953   5.828   0.101   4.835  0.4550 -0.8969  0.1015
   83MOL   H19024954   5.743   0.285   5.203  0.4114  1.3640 -0.9492
   83MOL   H19124955   5.797   0.319   5.033  1.1259 -0.6806 -0.2853
   83MOL   H19224956   5.783   0.048   5.151 -1.4014  0.9163  0.7870
   83MOL   H19324957   5.756   8.002   5.058 -0.2338 -0.9988 -0.6926
   83MOL   H19424958   5.728   7.876   4.859  1.7990  0.0039  0.2143
   83MOL   H19524959   5.760   7.986   4.635 -3.0273  1.7226 -0.7410
   83MOL   H19624960   5.810   0.087   4.630  1.2638 -0.6045 -1.2109
   83MOL   C19724961   5.979   0.129   5.105 -0.8304 -0.3569  0.7052
   83MOL   C19824962   6.033   0.186   5.234 -0.5537  0.0423 -0.0276
   83MOL   C19924963   5.979   0.118   5.358  0.1914  0.0118  0.8632
   83MOL   C20024964   5.942   0.183   5.478 -0.1060 -0.6258  0.2076
   83MOL   C20124965   5.898   0.100   5.588 -0.0829  0.0516  0.6318
   83MOL   C20224966   5.918   8.111   5.585 -0.9140 -0.2314  0.5825
   83MOL   C20324967   5.943   8.057   5.453 -0.7231  0.2414 -0.0790
   83MOL   N20424968   5.968   8.136   5.349 -0.0471  0.0428 -0.2715
   83MOL   H20524969   6.005   0.189   5.018 -1.0717 -1.6809 -0.2914
   83MOL   H20624970   6.025   0.033   5.082 -0.6453 -0.5916  2.0271
   83MOL   H20724971   5.999   0.290   5.235  0.5126  0.3907  0.5314
   83MOL   H20824972   5.950   0.291   5.480  0.7046 -0.6924  1.4249
   83MOL   H20924973   5.878   0.145   5.684  0.0034 -0.3947  0.8593
   83MOL   H21024974   5.905   8.045   5.670 -2.2310 -0.1095  0.4788
   83MOL   H21124975   5.952   7.951   5.438 -0.3470  0.2202  0.3207
   83MOL   C21224976   6.190   0.184   5.240  0.5425  0.3010  0.4611
   83MOL   C21324977   6.252   0.323   5.194 -0.2050  0.2088 -0.6094
   83MOL   C21424978   6.235   0.425   5.303 -0.6566 -0.2194 -0.5015
   83MOL   C21524979   6.161   0.537   5.268 -0.2470  0.0741 -0.1751
   83MOL   C21624980   6.129   0.625   5.368 -0.6311 -0.8404  0.1266
   83MOL   C21724981   6.167   0.598   5.501 -0.0811 -0.0776 -0.6713
   83MOL   C21824982   6.245   0.482   5.517 -0.5081  0.4013  0.4463
   83MOL   N21924983   6.280   0.395   5.423 -0.4304 -0.5904 -0.3068
   83MOL   H22024984   6.229   0.104   5.176 -0.8129 -1.4825  1.8122
   83MOL   H22124985   6.225   0.160   5.340 -2.8285 -0.3156  1.5510
   83MOL   H22224986   6.193   0.346   5.105  0.7200  0.5721 -1.1427
   83MOL   H22324987   6.128   0.555   5.167 -2.0945 -0.0437  0.3851
   83MOL   H22424988   6.077   0.712   5.332 -0.3378 -0.7681 -0.1244
   83MOL   H22524989   6.142   0.663   5.582 -0.8010  0.8808 -1.6569
   83MOL   H22624990   6.279   0.461   5.618 -1.6064  0.3260  0.8040
   83MOL   C22724991   6.401   0.305   5.162 -0.4205 -0.6198  0.9652
   83MOL   C22824992   6.476   0.435   5.124  0.6777  0.0982 -0.6099
   83MOL   C22924993   6.626   0.413   5.116  0.2386  0.3658 -0.1588
   83MOL   C23024994   6.706   0.453   5.224 -0.1893  0.1863  0.1387
   83MOL   C23124995   6.846   0.443   5.216  0.2140 -0.2461  0.0686
   83MOL   C23224996   6.895   0.397   5.092  0.3016  0.1023 -0.0273
   83MOL   C23324997   6.803   0.359   4.989 -0.0559 -0.1610 -0.4759
   83MOL   N23424998   6.670   0.351   5.007 -0.4208 -0.1898 -0.0227
   83MOL   H23524999   6.416   0.235   5.080  0.2832  0.6604 -0.0336
   83MOL   H23625000   6.452   0.262   5.249 -2.1087 -0.7789  1.8888
   83MOL   H23725001   6.461   0.491   5.216 -1.9251  0.5271 -1.2375
   83MOL   H23825002   6.663   0.492   5.314 -0.7401 -1.2371  0.5047
   83MOL   H23925003   6.906   0.461   5.303 -0.5012 -2.5563  1.0764
   83MOL   H24025004   7.003   0.399   5.083  0.2415  0.5324 -0.7432
   83MOL   H24125005   6.842   0.330   4.893  0.8406 -0.7210  0.0481
   83MOL   C24225006   6.411   0.508   5.007 -0.0296 -0.4880  0.2299
   83MOL   C24325007   6.453   0.659   4.987 -0.5130  0.7813  0.0186
   83MOL   C24425008   6.438   0.698   4.838 -0.7791 -0.4409 -0.2207
   83MOL   C24525009   6.550   0.739   4.769  0.0657 -0.6871  0.2574
   83MOL   C24625010   6.529   0.779   4.632 -0.1446 -0.2967 -0.3833
   83MOL   C24725011   6.400   0.786   4.583  0.0865  0.0385 -0.3347
   83MOL   C24825012   6.296   0.745   4.668  0.2468 -0.0688 -0.5653
   83MOL   N24925013   6.311   0.703   4.795 -0.0493 -0.2346 -0.6285
   83MOL   H25025014   6.304   0.493   5.023 -0.0607 -1.2671 -0.6749
   83MOL   H25125015   6.437   0.450   4.918  1.5800  1.6637 -0.7420
   83MOL   H25225016   6.556   0.662   5.021 -0.7416  0.3497  0.7542
   83MOL   H25325017   6.653   0.739   4.800  0.8763  0.0285 -2.3160
   83MOL   H25425018   6.611   0.817   4.573  1.2007  0.1564  1.6998
   83MOL   H25525019   6.389   0.804   4.477 -3.6469  1.0455  0.1726
   83MOL   H25625020   6.195   0.734   4.632  0.2854 -0.1442 -0.6532
   83MOL   C25725021   6.380   0.745   5.094 -0.4595 -0.0230 -0.2673
   83MOL   C25825022   6.403   0.894   5.083  0.4840  0.1986  0.1454
   83MOL   C25925023   6.284   0.983   5.127  0.3056  0.8545 -0.3358
   83MOL   C26025024   6.211   1.055   5.034  0.2694  0.7322 -0.8672
   83MOL   C26125025   6.108   1.139   5.071  0.1074 -0.2747 -0.7255
   83MOL   C26225026   6.069   1.128   5.211  0.0996  0.1504 -0.2496
   83MOL   C26325027   6.145   1.041   5.295 -0.1765 -0.2959 -0.3014
   83MOL   N26425028   6.250   0.971   5.257  0.1343 -0.5923 -0.0451
   83MOL   H26525029   6.392   0.704   5.194  3.4643  2.0463  0.2086
   83MOL   H26625030   6.272   0.728   5.085 -0.4142 -2.5007  2.9085
   83MOL   H26725031   6.423   0.910   4.977 -2.5906 -1.8625 -0.8231
   83MOL   H26825032   6.250   1.046   4.934  0.9416 -0.1154 -0.5450
   83MOL   H26925033   6.053   1.197   4.999 -2.1815 -1.6950 -0.1867
   83MOL   H27025034   5.981   1.179   5.246 -0.1216 -1.1922  1.2136
   83MOL   H27125035   6.102   1.023   5.392 -1.0112  0.5133 -0.5196
   83MOL   C27225036   6.527   0.945   5.162  0.1315  0.3736  0.0840
   83MOL   C27325037   6.575   1.085   5.124  0.8809 -0.7230  1.2114
   83MOL   C27425038   6.642   1.152   5.240  0.0618  0.6778 -0.5351
   83MOL   C27525039   6.569   1.235   5.330 -0.0840  0.7637  0.8134
   83MOL   C27625040   6.621   1.274   5.452 -0.3530 -0.8063 -0.4581
   83MOL   C27725041   6.759   1.237   5.473  0.3009 -0.7180 -0.6035
   83MOL   C27825042   6.824   1.170   5.372  0.1021 -0.0631 -0.2259
   83MOL   N27925043   6.764   1.119   5.264  0.4399 -0.2079 -0.2912
   83MOL   H28025044   6.603   0.867   5.154 -2.2009 -1.7142 -3.4981
   83MOL   H28125045   6.490   0.948   5.265  2.4468  0.5139  0.9342
   83MOL   H28225046   6.484   1.140   5.100  1.0269 -0.7838  0.4891
   83MOL   H28325047   6.467   1.251   5.298  0.3337  0.5175 -0.6858
   83MOL   H28425048   6.564   1.341   5.515 -1.3128  0.1598 -2.3244
   83MOL   H28525049   6.814   1.272   5.559 -1.0937 -0.4848  0.2070
   83MOL   H28625050   6.927   1.142   5.390  0.1602 -0.3035 -0.9044
   83MOL   C28725051   6.658   1.110   4.991 -0.1630  0.2512 -0.4892
   83MOL   C28825052   6.789   1.029   4.980 -0.0380  0.1859  0.9608
   83MOL   C28925053   6.856   1.050   4.844  0.0041 -0.5050  1.0236
   83MOL   C29025054   6.967   1.128   4.827  0.4952  0.4858 -0.3307
   83MOL   C29125055   7.019   1.139   4.695  0.0216 -0.0081  0.3886
   83MOL   C29225056   6.950   1.080   4.587  0.0749 -0.3614  0.6933
   83MOL   C29325057   6.830   1.017   4.617  0.7347  0.5152 -0.3078
   83MOL   N29425058   6.779   1.003   4.741 -0.0113 -0.1057  0.3521
   83MOL   H29525059   6.675   1.217   4.989 -1.9704  0.6129  1.8309
   83MOL   H29625060   6.589   1.096   4.908 -1.3704  3.5699 -0.1222
   83MOL   H29725061   6.767   0.923   4.995  0.7034 -0.0743  0.2636
   83MOL   H29825062   7.016   1.173   4.913  1.8592 -0.9250 -0.3575
   83MOL   H29925063   7.109   1.196   4.679 -0.8754  0.9229 -1.6281
   83MOL   H30025064   6.977   1.090   4.483  2.1943  0.5417  1.3140
   83MOL   H30125065   6.782   0.959   4.539  1.1314  0.5664 -0.5882
   83MOL   H30225066   6.857   1.057   5.061  0.4237  1.1837  0.2309
   84MOL     C125067   7.690   0.449   4.412  0.3322 -0.7691  0.5773
   84MOL     C225068   7.672   0.302   4.442 -0.5862 -0.1003 -0.6119
   84MOL     C325069   7.553   0.269   4.528  0.1514 -0.7391 -0.7579
   84MOL     C425070   7.569   0.177   4.637  0.2768 -0.2959  0.2359
   84MOL     C525071   7.446   0.132   4.698  0.1844  0.8395  1.0425
   84MOL     C625072   7.323   0.187   4.662 -0.6529  0.1726  0.2476
   84MOL     C725073   7.319   0.277   4.556 -0.1301 -0.5373  0.2671
   84MOL     N825074   7.433   0.318   4.486  0.2469  0.2202  0.0451
   84MOL     H925075   7.639   0.484   4.322 -0.1262 -4.6438 -0.7382
   84MOL    H1025076   7.647   0.511   4.491 -2.9354 -0.4253 -1.3433
   84MOL    H1125077   7.760   0.271   4.499 -1.7112  1.6113  2.1073
   84MOL    H1225078   7.662   0.134   4.674 -0.6436 -2.6299 -0.0725
   84MOL    H1325079   7.449   0.059   4.778  0.3730  0.1642  0.4265
   84MOL    H1425080   7.233   0.145   4.704 -0.3859 -0.8675 -0.2064
   84MOL    H1525081   7.221   0.305   4.517  1.1007  2.0714 -1.1306
   84MOL    H1625082   7.796   0.469   4.399 -0.0234  1.9699  1.5110
   84MOL    C1725083   7.678   0.221   4.304 -0.7239 -0.4160 -0.1156
   84MOL    C1825084   7.764   0.086   4.317  0.1088 -0.8555 -0.4713
   84MOL    C1925085   7.700   8.142   4.421  0.0652  0.3919 -0.2786
   84MOL    C2025086   7.577   8.080   4.410  0.7972 -0.2025 -0.7365
   84MOL    C2125087   7.547   7.972   4.490 -0.2239  0.7317 -0.3969
   84MOL    C2225088   7.634   7.932   4.587 -0.2242 -0.5636 -0.1007
   84MOL    C2325089   7.757   7.995   4.598 -0.0842 -0.0376  0.9505
   84MOL    N2425090   7.791   8.100   4.520 -0.1396 -0.2782 -0.0918
   84MOL    H2525091   7.738   0.273   4.230 -0.5845 -3.4631 -2.2160
   84MOL    H2625092   7.578   0.200   4.266 -0.2131 -1.1817 -1.0523
   84MOL    H2725093   7.866   0.113   4.343 -0.5714  0.9013  0.4989
   84MOL    H2825094   7.508   8.126   4.341 -1.0170  1.0641  1.8322
   84MOL    H2925095   7.454   7.918   4.479 -1.2850  1.8154  2.8348
   84MOL    H3025096   7.630   7.842   4.645 -0.9795 -0.2486  0.3497
   84MOL    H3125097   7.830   7.977   4.676 -0.0787  1.7384  1.3712
   84MOL    C3225098   7.772   0.016   4.184  0.6523  0.2328 -0.5589
   84MOL    C3325099   7.873   8.063   4.149 -0.4464 -0.6531 -0.2029
   84MOL    C3425100   8.014   8.114   4.138 -0.4426  0.1494 -0.2294
   84MOL    C3525101   8.089   8.103   4.016 -0.1858  0.2498  0.3825
   84MOL    C3625102   0.073   8.147   4.015  0.2848 -0.4876  0.0802
   84MOL    C3725103   0.126   0.036   4.138  0.4248 -0.4158 -0.0437
   84MOL    C3825104   0.048   0.041   4.251  0.1575 -0.4007  0.1384
   84MOL    N3925105   8.071   0.002   4.257  0.4095 -0.4319  0.4144
   84MOL    H4025106   7.774   0.092   4.106  0.3292  1.1938  0.3589
   84MOL    H4125107   7.675   8.122   4.167  0.6212  0.5716 -1.3021
   84MOL    H4225108   7.853   8.036   4.045 -0.5120 -1.2401 -0.0372
   84MOL    H4325109   8.043   8.072   3.924 -0.8961  0.5830  0.6219
   84MOL    H4425110   0.127   8.146   3.922 -0.6545 -0.9266 -0.4742
   84MOL    H4525111   0.229   0.067   4.138  0.3989 -0.3113 -1.0427
   84MOL    H4625112   0.095   0.065   4.345 -1.7972  1.8582  0.5813
   84MOL    C4725113   7.851   7.931   4.233  0.3051 -0.0825  0.3112
   84MOL    C4825114   7.893   7.800   4.174 -0.4965 -0.4006  0.0713
   84MOL    C4925115   7.797   7.742   4.070 -0.5156 -1.0552  0.1827
   84MOL    C5025116   7.764   7.603   4.080 -0.0267  0.0041 -0.3125
   84MOL    C5125117   7.696   7.543   3.970  0.0744 -0.5888  0.0496
   84MOL    C5225118   7.662   7.622   3.860  0.7255  0.7683  1.1738
   84MOL    C5325119   7.707   7.755   3.859 -0.1155 -0.3242  0.5967
   84MOL    N5425120   7.783   7.812   3.956 -0.2204 -0.4155  0.4817
   84MOL    H5525121   7.746   7.916   4.257  0.2851  1.3255  1.1565
   84MOL    H5625122   7.901   7.940   4.330  1.4795  1.3962 -0.4163
   84MOL    H5725123   7.884   7.727   4.255 -1.3987  0.0782  0.4099
   84MOL    H5825124   7.815   7.543   4.153  0.3372 -2.5941 -2.6163
   84MOL    H5925125   7.669   7.439   3.985 -0.7265 -0.1725  1.6659
   84MOL    H6025126   7.596   7.595   3.780 -1.9778  0.7339  3.3262
   84MOL    H6125127   7.667   7.810   3.776 -0.9496 -1.2831  0.3530
   84MOL    C6225128   8.039   7.780   4.135  0.0129  0.3908  0.3189
   84MOL    C6325129   8.147   7.799   4.252  0.8011 -0.1096 -0.4435
   84MOL    C6425130   8.100   7.748   4.390 -0.1460 -0.5772  0.1758
   84MOL    C6525131   8.100   7.833   4.505 -0.7403  0.9401 -0.5821
   84MOL    C6625132   8.060   7.777   4.629 -0.3575  0.4198  0.2121
   84MOL    C6725133   8.020   7.641   4.633 -0.6288 -0.1009  0.3278
   84MOL    C6825134   8.036   7.565   4.518  0.1819 -0.5685 -0.4291
   84MOL    N6925135   8.067   7.613   4.396 -0.1815 -0.9195  0.1543
   84MOL    H7025136   8.062   7.829   4.041  0.0157 -1.1284 -0.4819
   84MOL    H7125137   8.049   7.673   4.119  0.2936 -0.0400  2.9867
   84MOL    H7225138   0.017   7.904   4.269  1.0572 -0.0685 -1.0201
   84MOL    H7325139   8.125   7.938   4.498  1.2112  0.5981  0.7505
   84MOL    H7425140   8.060   7.831   4.722  1.7573 -0.1374  0.5602
   84MOL    H7525141   7.974   7.599   4.722 -0.0416 -1.2870  0.0771
   84MOL    H7625142   8.016   7.459   4.522  0.4703 -0.6344 -0.6500
   84MOL    C7725143   0.138   7.749   4.216  0.1020  0.0493  0.6763
   84MOL    C7825144   0.257   7.766   4.315  0.2466 -0.1285 -0.3008
   84MOL    C7925145   0.379   7.684   4.277 -0.1843  0.7583 -0.3540
   84MOL    C8025146   0.439   7.587   4.365 -0.4312 -0.3486  1.3270
   84MOL    C8125147   0.546   7.507   4.320  0.6927 -0.3482 -0.0562
   84MOL    C8225148   0.601   7.535   4.194 -0.2906 -0.2440  0.1848
   84MOL    C8325149   0.542   7.635   4.112 -0.4226 -0.2440  0.1065
   84MOL    N8425150   0.435   7.710   4.153  0.3097 -0.3990  0.1390
   84MOL    H8525151   0.164   7.799   4.123 -2.0297 -0.4740 -0.2290
   84MOL    H8625152   0.123   7.642   4.201  2.2306 -0.5064  2.1114
   84MOL    H8725153   0.232   7.726   4.413 -2.9767  0.4472 -0.8177
   84MOL    H8825154   0.394   7.577   4.463  0.8426 -2.8567  1.6911
   84MOL    H8925155   0.587   7.434   4.388 -1.0571 -0.9648  0.3459
   84MOL    H9025156   0.686   7.479   4.157 -0.5176 -0.8696  0.5970
   84MOL    H9125157   0.582   7.665   4.016  0.6939 -2.1891 -0.0562
   84MOL    C9225158   0.289   7.917   4.331 -0.4142 -0.0519  0.3374
   84MOL    C9325159   0.410   7.951   4.411  0.6746  0.7216  0.3421
   84MOL    C9425160   0.463   8.086   4.365 -0.1332 -0.5012 -0.8453
   84MOL    C9525161   0.581   8.092   4.283  0.5474  0.5458  0.3815
   84MOL    C9625162   0.615   0.064   4.228  0.1927  0.2620  0.3679
   84MOL    C9725163   0.539   0.178   4.264  0.4092 -0.3137 -0.0672
   84MOL    C9825164   0.431   0.162   4.344  0.5278 -0.2395 -0.0684
   84MOL    N9925165   0.389   0.045   4.394  0.0328  0.2890  0.4623
   84MOL   H10025166   0.208   7.981   4.364 -0.6993 -0.6059  0.7326
   84MOL   H10125167   0.308   7.959   4.233 -0.1048  0.8341  0.7788
   84MOL   H10225168   0.490   7.878   4.398  0.3765  0.5306 -0.3875
   84MOL   H10325169   0.635   8.002   4.259 -0.6676 -0.0742 -0.1017
   84MOL   H10425170   0.702   0.072   4.165 -0.7646 -0.7239 -1.1165
   84MOL   H10525171   0.569   0.277   4.233  3.9677 -0.5613  2.2543
   84MOL   H10625172   0.385   0.250   4.388  2.1636 -0.2858  1.8104
   84MOL   C10725173   0.388   7.949   4.562 -0.3816 -0.4644  0.0731
   84MOL   C10825174   0.494   7.863   4.639  0.1685 -0.2517  0.6096
   84MOL   C10925175   0.638   7.911   4.603  0.1503  0.2480 -0.4196
   84MOL   C11025176   0.742   7.821   4.558 -0.5132 -0.3682 -0.0817
   84MOL   C11125177   0.866   7.867   4.528 -0.6809 -0.4916  0.7144
   84MOL   C11225178   0.890   7.998   4.562 -0.2011 -0.2442 -0.0300
   84MOL   C11325179   0.790   8.071   4.621 -0.4628 -0.3152  0.2289
   84MOL   N11425180   0.666   8.031   4.644 -0.3702 -0.1289  0.8215
   84MOL   H11525181   0.291   7.908   4.592  0.4833 -3.1867 -0.7428
   84MOL   H11625182   0.379   8.049   4.605 -1.1288 -0.4226 -0.1715
   84MOL   H11725183   0.491   7.762   4.598  1.4442 -0.1776  0.3103
   84MOL   H11825184   0.717   7.717   4.547 -0.3073 -0.3067 -1.2715
   84MOL   H11925185   0.947   7.805   4.491 -1.2310 -0.5707 -0.3682
   84MOL   H12025186   0.986   8.046   4.549  0.1590 -1.3443 -1.5600
   84MOL   H12125187   0.812   0.013   4.668 -3.0297 -0.3867  1.6283
   84MOL   C12225188   0.467   7.847   4.793 -0.2100  0.1976  0.5112
   84MOL   C12325189   0.477   7.970   4.893  0.0517 -1.0964  0.6096
   84MOL   C12425190   0.369   8.079   4.861  0.0144  0.3714 -0.4490
   84MOL   C12525191   0.395   0.060   4.824  0.2938 -0.1120 -1.0435
   84MOL   C12625192   0.292   0.137   4.776  0.3088  0.0571  0.1356
   84MOL   C12725193   0.155   0.090   4.781  0.4854 -0.4058 -0.3640
   84MOL   C12825194   0.136   8.108   4.824  0.5302 -0.1348  0.3465
   84MOL   N12925195   0.241   8.027   4.867 -0.4697 -0.1647  0.2586
   84MOL   H13025196   0.529   7.763   4.824 -0.0814  0.0338 -0.1941
   84MOL   H13125197   0.369   7.800   4.785 -0.3109  0.6690 -1.3321
   84MOL   H13225198   0.573   8.020   4.875 -1.3825  0.9643 -1.6706
   84MOL   H13325199   0.500   0.082   4.808  0.2827  0.0145 -0.9502
   84MOL   H13425200   0.296   0.235   4.730  0.8210 -0.7333 -1.5259
   84MOL   H13525201   0.073   0.156   4.754  0.2425 -1.3440 -1.9464
   84MOL   H13625202   0.038   8.062   4.827  1.7065 -2.6483  2.6645
   84MOL   C13725203   0.461   7.923   5.038 -0.0515 -0.5530  0.2360
   84MOL   C13825204   0.511   8.019   5.150 -0.6438 -0.3772 -0.0263
   84MOL   C13925205   0.468   7.971   5.290  0.4433 -0.5504 -0.0216
   84MOL   C14025206   0.407   8.066   5.378  0.1436 -0.0832 -0.0620
   84MOL   C14125207   0.400   8.028   5.514  0.0459  0.1165  0.3915
   84MOL   C14225208   0.441   7.897   5.550 -1.0857  0.2619  0.4177
   84MOL   C14325209   0.480   7.810   5.449 -0.5069 -0.8362 -0.0958
   84MOL   N14425210   0.492   7.841   5.317  0.1729 -0.5012  0.5297
   84MOL   H14525211   0.527   7.838   5.052  2.1715  1.3794  1.8979
   84MOL   H14625212   0.360   7.894   5.067  0.7448 -1.5173  2.1479
   84MOL   H14725213   0.445   8.105   5.140 -0.7526 -0.4730 -0.1197
   84MOL   H14825214   0.393   0.019   5.357 -0.4865  0.0094  0.7985
   84MOL   H14925215   0.355   8.091   5.590 -2.6363 -1.7282  0.3899
   84MOL   H15025216   0.433   7.853   5.649  0.0685  0.5336  0.6313
   84MOL   H15125217   0.500   7.706   5.471  4.1159 -0.6192 -2.6230
   84MOL   C15225218   0.662   8.052   5.144  0.3598  0.0354  0.2525
   84MOL   C15325219   0.696   0.024   5.218 -0.1973  0.8448  0.1141
   84MOL   C15425220   0.844   0.023   5.267 -0.3411  0.4549  0.0573
   84MOL   C15525221   0.864   0.070   5.402  0.3441  0.1796 -0.5217
   84MOL   C15625222   0.994   0.073   5.446 -0.1538  0.2219 -0.3209
   84MOL   C15725223   1.098   0.013   5.371 -0.2884  0.0511  0.5349
   84MOL   C15825224   1.070   8.124   5.240  0.7779  0.9268  0.0557
   84MOL   N15925225   0.944   8.127   5.186 -0.6780 -0.1162  0.2378
   84MOL   H16025226   0.710   8.058   5.046 -0.0609 -0.0495  0.0407
   84MOL   H16125227   0.721   7.968   5.181  2.1466  0.4918 -1.4558
   84MOL   H16225228   0.630   0.042   5.302  0.0227  2.2198 -0.0013
   84MOL   H16325229   0.788   0.126   5.453 -0.3969 -1.6217  0.4055
   84MOL   H16425230   1.007   0.102   5.548  2.3672  0.0743 -0.5747
   84MOL   H16525231   1.199   0.007   5.410 -0.1261 -0.2930  0.0560
   84MOL   H16625232   1.150   8.084   5.180  1.6870  0.5210  1.5037
   84MOL   C16725233   0.677   0.145   5.118  0.4322  0.0203 -0.9554
   84MOL   C16825234   0.709   0.291   5.159  0.2573  0.0333  0.0635
   84MOL   C16925235   0.706   0.380   5.031 -0.1313  0.4242 -0.2015
   84MOL   C17025236   0.822   0.417   4.973 -0.2466  0.7628 -0.6204
   84MOL   C17125237   0.831   0.479   4.855  0.3443 -0.3023  0.1423
   84MOL   C17225238   0.709   0.502   4.792 -0.7167 -0.6812 -0.7163
   84MOL   C17325239   0.585   0.465   4.855 -0.0239 -0.0717  0.6460
   84MOL   N17425240   0.585   0.400   4.970 -0.1415 -0.2917  0.2305
   84MOL   H17525241   0.572   0.138   5.088 -0.0253  0.6166  0.4388
   84MOL   H17625242   0.732   0.126   5.026 -0.1017  0.4138 -1.3640
   84MOL   H17725243   0.812   0.285   5.194 -0.4952 -1.1616  2.1761
   84MOL   H17825244   0.911   0.402   5.031  1.0123 -0.2623 -2.7571
   84MOL   H17925245   0.930   0.506   4.819 -0.1024 -0.6193 -1.3439
   84MOL   H18025246   0.705   0.551   4.696  0.4720  0.0531 -0.3929
   84MOL   H18125247   0.489   0.478   4.808  0.8677 -0.2698 -1.3097
   84MOL   C18225248   0.617   0.344   5.271  0.5435  0.4597  0.5303
   84MOL   C18325249   0.670   0.468   5.344 -0.4108  0.1231  0.2432
   84MOL   C18425250   0.820   0.502   5.329 -0.8117  0.5877  0.4068
   84MOL   C18525251   0.863   0.611   5.254 -0.0692 -0.3490  0.1820
   84MOL   C18625252   1.001   0.649   5.275 -1.1051  1.0668 -0.0935
   84MOL   C18725253   1.079   0.581   5.369 -0.2371  0.3447 -0.0090
   84MOL   C18825254   1.027   0.469   5.433  0.7413 -0.2879 -0.7625
   84MOL   N18925255   0.898   0.432   5.419 -0.2221  0.2119 -0.2446
   84MOL   H19025256   0.628   0.269   5.349  1.6508  1.8911  1.7647
   84MOL   H19125257   0.514   0.356   5.236  1.1083  0.5421 -1.1770
   84MOL   H19225258   0.662   0.443   5.450  1.0708 -0.4611  0.2360
   84MOL   H19325259   0.802   0.672   5.189 -1.9907 -0.1596  2.1430
   84MOL   H19425260   1.053   0.724   5.216 -2.7608  2.4373  0.1457
   84MOL   H19525261   1.180   0.611   5.395  0.3422 -1.9951  0.6002
   84MOL   H19625262   1.086   0.418   5.508 -1.4801 -2.0511 -0.1496
   84MOL   C19725263   0.580   0.595   5.320  0.3539  0.0636 -0.0845
   84MOL   C19825264   0.435   0.595   5.386 -0.1028 -0.2959  0.5606
   84MOL   C19925265   0.457   0.610   5.536 -0.2331 -0.2894  0.3573
   84MOL   C20025266   0.472   0.732   5.599  0.2651  0.1014  1.4603
   84MOL   C20125267   0.499   0.735   5.736 -1.0651 -0.0006  0.5568
   84MOL   C20225268   0.528   0.614   5.801 -0.1615  0.2688  0.3747
   84MOL   C20325269   0.507   0.499   5.725  0.2391  0.7641  0.3240
   84MOL   N20425270   0.475   0.492   5.593 -0.4541  0.8110 -0.2016
   84MOL   H20525271   0.570   0.604   5.212 -0.2458  0.1689 -0.0231
   84MOL   H20625272   0.635   0.678   5.365 -0.3990 -0.3225  1.5861
   84MOL   H20725273   0.385   0.499   5.378 -0.3602 -0.0556 -0.9966
   84MOL   H20825274   0.447   0.821   5.543 -0.4184  0.1264  1.7973
   84MOL   H20925275   0.506   0.829   5.789  2.6500  1.0007 -1.4812
   84MOL   H21025276   0.540   0.618   5.908 -3.0909 -1.4288  0.8269
   84MOL   H21125277   0.522   0.402   5.768 -0.1406  0.1285 -0.9509
   84MOL   C21225278   0.329   0.687   5.322  0.1019 -0.0514  0.4579
   84MOL   C21325279   0.280   0.648   5.178 -0.1342 -0.4180 -0.2958
   84MOL   C21425280   0.174   0.536   5.168 -0.0611 -0.7507 -0.4025
   84MOL   C21525281   0.207   0.419   5.109  0.2057  0.6720  0.2443
   84MOL   C21625282   0.109   0.313   5.105 -0.1074  0.4091  0.3136
   84MOL   C21725283   8.130   0.346   5.159  0.1344  0.5864 -0.0459
   84MOL   C21825284   8.109   0.472   5.215 -0.8805  0.3399 -0.3796
   84MOL   N21925285   0.051   0.563   5.219  0.3154 -0.6732  0.2140
   84MOL   H22025286   0.358   0.792   5.319 -0.9035  0.3597  3.3273
   84MOL   H22125287   0.246   0.693   5.393  0.7539 -1.0637  1.3282
   84MOL   H22225288   0.369   0.610   5.129 -0.2643 -1.5839  0.3681
   84MOL   H22325289   0.305   0.397   5.071  0.5221  2.2900  0.0916
   84MOL   H22425290   0.132   0.213   5.073  0.8039  0.2795  1.3237
   84MOL   H22525291   8.063   0.262   5.169  1.3112 -0.2829  0.7264
   84MOL   H22625292   8.020   0.494   5.272 -1.3626 -1.0498 -0.5800
   84MOL   C22725293   0.240   0.773   5.097 -0.1016 -0.6781  0.0138
   84MOL   C22825294   0.156   0.765   4.965 -0.0129 -0.5688 -0.1749
   84MOL   C22925295   0.128   0.907   4.912  0.0976 -0.4839 -0.9796
   84MOL   C23025296   0.228   0.981   4.845  0.2449  0.7356  0.2605
   84MOL   C23125297   0.204   1.116   4.800  0.0800 -0.5139 -0.0419
   84MOL   C23225298   0.070   1.162   4.809 -0.8175 -0.1482 -0.1891
   84MOL   C23325299   8.128   1.077   4.880  0.5275  0.1879 -0.1280
   84MOL   N23425300   0.005   0.958   4.927  0.8715  0.6439 -0.0714
   84MOL   H23525301   0.336   0.812   5.062  0.4453 -1.3171  0.7703
   84MOL   H23625302   0.192   0.848   5.160  0.8887  0.2544 -0.3247
   84MOL   H23725303   0.059   0.722   4.989  0.4477 -1.0662  0.8407
   84MOL   H23825304   0.331   0.948   4.835 -0.7123 -2.7138  1.2825
   84MOL   H23925305   0.289   1.171   4.763 -0.1433 -0.8132 -1.0216
   84MOL   H24025306   0.048   1.261   4.772 -0.8105 -0.7630 -1.8677
   84MOL   H24125307   8.028   1.111   4.905  0.2512 -2.2914  2.2881
   84MOL   C24225308   0.220   0.682   4.852  0.7326 -0.2044  0.0642
   84MOL   C24325309   0.132   0.669   4.724  0.0316  0.2526  0.2756
   84MOL   C24425310   0.218   0.627   4.601  1.0654  0.1004  0.3053
   84MOL   C24525311   0.203   0.694   4.476 -0.2574  0.2967 -0.6948
   84MOL   C24625312   0.272   0.650   4.363  0.3193 -0.7306 -0.2184
   84MOL   C24725313   0.364   0.545   4.373  0.9154  0.1567 -0.3189
   84MOL   C24825314   0.384   0.493   4.504  0.3267  0.6282  0.0061
   84MOL   N24925315   0.315   0.535   4.613 -0.3632  0.4978  0.2232
   84MOL   H25025316   0.221   0.581   4.890 -0.2041  0.0377  0.7565
   84MOL   H25125317   0.319   0.723   4.830  0.1168  0.8578 -0.8122
   84MOL   H25225318   0.083   0.766   4.711  1.2519  0.7398 -0.7972
   84MOL   H25325319   0.122   0.765   4.471 -3.1545 -2.9145 -1.4645
   84MOL   H25425320   0.257   0.691   4.264  0.1106  3.8055  1.5548
   84MOL   H25525321   0.403   0.505   4.281 -0.4385  0.5843 -1.0960
   84MOL   H25625322   0.455   0.413   4.516 -1.5334 -1.0506  0.1283
   84MOL   C25725323   0.025   0.568   4.758  0.2079 -0.2186 -0.1459
   84MOL   C25825324   8.070   0.543   4.650  0.0415 -0.1206  0.1603
   84MOL   C25925325   8.027   0.398   4.657 -0.2223  1.0253  0.3298
   84MOL   C26025326   8.065   0.306   4.557  0.3852  1.2217 -0.5004
   84MOL   C26125327   8.029   0.167   4.573 -0.2835  0.1274  0.2760
   84MOL   C26225328   7.967   0.135   4.691 -0.0464  0.1217 -0.0264
   84MOL   C26325329   7.938   0.231   4.785 -0.4018 -0.6419  0.0096
   84MOL   N26425330   7.963   0.367   4.766 -0.0519  0.2832  0.2396
   84MOL   H26525331   8.123   0.582   4.851  0.3355  0.1435 -0.1272
   84MOL   H26625332   0.071   0.470   4.769  2.0975  0.7592  0.9924
   84MOL   H26725333   8.115   0.567   4.554  2.0793 -2.6542  0.4476
   84MOL   H26825334   8.112   0.345   4.467 -1.0508  2.6506 -0.6478
   84MOL   H26925335   8.047   0.092   4.498  0.9113  2.8292 -2.2510
   84MOL   H27025336   7.949   0.029   4.705 -1.8081  0.2069 -1.5077
   84MOL   H27125337   7.887   0.190   4.871  0.3386 -2.0544 -0.1985
   84MOL   C27225338   7.942   0.632   4.664  0.2296  0.6256  0.3721
   84MOL   C27325339   7.938   0.768   4.598 -0.0843  0.5653 -0.1013
   84MOL   C27425340   7.976   0.773   4.451  0.3111 -0.4937 -0.4807
   84MOL   C27525341   8.047   0.886   4.398  0.0355  0.9284 -0.2484
   84MOL   C27625342   8.075   0.883   4.259 -0.5374 -0.2065 -0.4753
   84MOL   C27725343   8.038   0.771   4.181  0.0429  0.3023 -0.2237
   84MOL   C27825344   7.964   0.667   4.239  0.4211  0.2844 -0.3120
   84MOL   N27925345   7.935   0.673   4.371 -0.6108 -0.2413 -0.2796
   84MOL   H28025346   7.908   0.641   4.767  0.5637  1.9703  0.3728
   84MOL   H28125347   7.863   0.574   4.618  1.8349 -1.2997 -0.0646
   84MOL   H28225348   8.013   0.832   4.646  1.6115  0.0430 -1.9666
   84MOL   H28325349   8.073   0.973   4.457 -0.7398  1.6470 -0.9698
   84MOL   H28425350   8.129   0.962   4.207 -0.0630 -1.0949 -1.3527
   84MOL   H28525351   8.064   0.786   4.077 -0.1982 -1.0731 -0.4956
   84MOL   H28625352   7.929   0.590   4.172  0.4584  0.5144 -0.5989
   84MOL   C28725353   7.806   0.845   4.624  0.2056 -0.3158 -0.1182
   84MOL   C28825354   7.797   1.001   4.591 -0.4749  0.1190  0.5783
   84MOL   C28925355   7.676   1.077   4.636 -0.7269  0.1836  0.4923
   84MOL   C29025356   7.586   1.146   4.546 -0.3403 -0.0250 -0.4353
   84MOL   C29125357   7.475   1.208   4.608 -0.1297 -0.0229 -0.2459
   84MOL   C29225358   7.461   1.202   4.746 -0.2087 -0.9795  0.0573
   84MOL   C29325359   7.561   1.139   4.827 -0.2858  0.2517 -0.2706
   84MOL   N29425360   7.668   1.080   4.772 -0.1477  0.6009 -0.3835
   84MOL   H29525361   7.800   0.841   4.732  3.3183  0.7067  0.1500
   84MOL   H29625362   7.715   0.793   4.593 -0.5717  1.1713 -0.3550
   84MOL   H29725363   7.792   1.004   4.482 -1.3424 -1.6873  0.5372
   84MOL   H29825364   7.595   1.159   4.439 -1.5979  0.9524 -0.4266
   84MOL   H29925365   7.397   1.252   4.547 -0.6956 -0.2721  0.2873
   84MOL   H30025366   7.382   1.258   4.793 -0.4771  1.0497 -2.6891
   84MOL   H30125367   7.560   1.149   4.934  1.3853 -1.6124 -0.0504
   84MOL   H30225368   7.891   1.048   4.620  1.2475 -2.7531 -0.0604
   85MOL     C125369   3.342   7.182   1.391  0.3258 -0.0971 -0.2211
   85MOL     C225370   3.413   7.087   1.294 -0.0699  0.3200  0.2999
   85MOL     C325371   3.325   7.051   1.176  0.9254 -0.3029  0.5381
   85MOL     C425372   3.269   6.924   1.163 -0.5816  0.1195  0.8626
   85MOL     C525373   3.210   6.886   1.044 -0.2653 -0.3331  0.3455
   85MOL     C625374   3.201   6.982   0.937 -0.7958  0.2504  0.4464
   85MOL     C725375   3.251   7.111   0.958  1.4510 -0.1639 -0.7188
   85MOL     N825376   3.311   7.146   1.079  0.0040 -0.1858  0.0818
   85MOL     H925377   3.382   7.185   1.492 -2.5453 -2.6188  1.0613
   85MOL    H1025378   3.330   7.284   1.356  1.3307  0.0752 -0.0625
   85MOL    H1125379   3.425   6.989   1.340 -1.0494  1.2412  2.5411
   85MOL    H1225380   3.279   6.845   1.236 -0.8619 -1.9146 -1.2145
   85MOL    H1325381   3.177   6.783   1.037  1.4417 -0.8118 -0.9632
   85MOL    H1425382   3.150   6.954   0.846  0.3297  1.6599 -0.6400
   85MOL    H1525383   3.253   7.189   0.883 -0.9808 -2.4649 -3.2952
   85MOL    H1625384   3.237   7.151   1.397  0.3377  0.1841  1.7551
   85MOL    C1725385   3.551   7.146   1.254 -0.7352  0.0802 -0.3551
   85MOL    C1825386   3.631   7.074   1.139  0.1066  0.0858 -0.1172
   85MOL    C1925387   3.733   7.166   1.071  0.1957 -0.2702 -0.3702
   85MOL    C2025388   3.718   7.214   0.944 -0.1830 -0.3335 -1.0140
   85MOL    C2125389   3.807   7.315   0.898  0.2754 -0.3358  0.9722
   85MOL    C2225390   3.919   7.347   0.977 -0.4467  0.1795  0.3648
   85MOL    C2325391   3.930   7.287   1.098 -0.4972  0.1929  0.8565
   85MOL    N2425392   3.837   7.200   1.149  0.1391 -0.7643  0.1428
   85MOL    H2525393   3.616   7.151   1.340  1.5215 -1.9482 -1.8643
   85MOL    H2625394   3.536   7.242   1.206 -1.1872  0.2869  0.1952
   85MOL    H2725395   3.553   7.060   1.064 -2.1302  1.1841  1.9098
   85MOL    H2825396   3.638   7.193   0.874 -0.5840  3.4427 -1.7717
   85MOL    H2925397   3.793   7.362   0.802 -0.1230 -1.5154  0.4407
   85MOL    H3025398   3.992   7.418   0.940  0.6073  0.4191  2.7969
   85MOL    H3125399   4.008   7.309   1.168 -0.5930 -1.7528  1.6157
   85MOL    C3225400   3.691   6.938   1.186  0.2920 -0.0654 -0.2827
   85MOL    C3325401   3.779   6.863   1.092 -0.1753 -0.1641  0.6456
   85MOL    C3425402   3.931   6.886   1.114  0.0016 -0.0054 -0.3342
   85MOL    C3525403   4.015   6.935   1.013 -0.5226 -0.0165  0.8244
   85MOL    C3625404   4.145   6.972   1.054  0.3931 -0.2919  0.5712
   85MOL    C3725405   4.179   6.967   1.192  0.3095  0.4433  0.3962
   85MOL    C3825406   4.088   6.912   1.280 -0.1342  0.6054  0.1750
   85MOL    N3925407   3.972   6.862   1.237  0.2046  0.2097 -0.7630
   85MOL    H4025408   3.616   6.876   1.236 -1.8983  3.3307  0.8059
   85MOL    H4125409   3.747   6.962   1.277  0.6528 -1.1919 -0.2015
   85MOL    H4225410   3.763   6.920   1.000  3.2651  1.4620  0.9678
   85MOL    H4325411   3.976   6.964   0.917 -0.2570 -1.3224  0.3071
   85MOL    H4425412   4.208   7.024   0.983  0.6812  2.0549  2.4771
   85MOL    H4525413   4.273   7.005   1.228  0.0283  1.2900  0.2348
   85MOL    H4625414   4.114   6.877   1.379 -1.2692  0.5452  0.4701
   85MOL    C4725415   3.747   6.710   1.084 -0.3530 -0.3889  0.5555
   85MOL    C4825416   3.607   6.679   1.022 -0.0035 -0.1269  0.1524
   85MOL    C4925417   3.601   6.735   0.879  0.2799 -0.3496  0.6813
   85MOL    C5025418   3.517   6.844   0.850  0.6761 -0.3179 -0.4068
   85MOL    C5125419   3.515   6.898   0.722 -0.0494  0.3668 -0.7219
   85MOL    C5225420   3.584   6.832   0.620  0.2865  0.2469  0.1576
   85MOL    C5325421   3.670   6.725   0.657  0.2128  0.0751  0.2649
   85MOL    N5425422   3.679   6.685   0.783 -0.1056  0.4589 -0.1930
   85MOL    H5525423   3.758   6.656   1.179  0.7643 -2.4134 -0.6934
   85MOL    H5625424   3.812   6.672   1.006 -0.0299 -1.1040  1.1599
   85MOL    H5725425   3.535   6.736   1.081 -0.7626 -1.5640  0.6410
   85MOL    H5825426   3.471   6.899   0.930 -1.0507  1.2209 -2.3919
   85MOL    H5925427   3.467   6.993   0.704  2.4765  2.0716  1.1415
   85MOL    H6025428   3.574   6.869   0.519 -1.0632  0.4610  0.3669
   85MOL    H6125429   3.735   6.678   0.585  1.9667  2.3162  0.3047
   85MOL    C6225430   3.559   6.531   1.006  0.9317  0.6420 -0.5326
   85MOL    C6325431   3.539   6.454   1.133 -0.0486 -0.6405 -0.5893
   85MOL    C6425432   3.408   6.494   1.199  0.0216 -0.0581 -0.0132
   85MOL    C6525433   3.406   6.569   1.318 -0.0082 -0.2922  0.1088
   85MOL    C6625434   3.288   6.624   1.373 -0.2116 -0.3969 -0.5206
   85MOL    C6725435   3.170   6.595   1.305 -0.4422  1.1105  1.0054
   85MOL    C6825436   3.174   6.517   1.192  0.2696  0.0465 -0.4841
   85MOL    N6925437   3.289   6.463   1.142  0.3419 -0.0682  0.0479
   85MOL    H7025438   3.628   6.470   0.948  0.5075 -0.7092  0.3583
   85MOL    H7125439   3.469   6.531   0.944  0.8476 -1.6218 -0.4602
   85MOL    H7225440   3.624   6.488   1.193 -2.8175 -0.2408  3.3668
   85MOL    H7325441   3.501   6.588   1.367  0.7738  0.3312 -1.5933
   85MOL    H7425442   3.283   6.681   1.464  0.4035 -1.9101  0.4697
   85MOL    H7525443   3.072   6.629   1.336 -1.8052 -1.9637  0.2718
   85MOL    H7625444   3.084   6.490   1.140  0.8077 -2.2578 -0.2585
   85MOL    C7725445   3.544   6.298   1.094 -0.0881  0.0482 -0.7445
   85MOL    C7825446   3.685   6.244   1.102  0.6590 -0.0992  0.1028
   85MOL    C7925447   3.754   6.252   1.244 -0.3670 -0.2908 -0.2979
   85MOL    C8025448   3.860   6.344   1.261 -0.0496  0.3474 -0.0199
   85MOL    C8125449   3.908   6.366   1.390 -0.0711 -0.2132  0.5692
   85MOL    C8225450   3.846   6.296   1.491  0.7458 -1.0871 -0.0147
   85MOL    C8325451   3.746   6.199   1.467 -0.0180  0.3844 -0.4519
   85MOL    N8425452   3.699   6.180   1.342  0.7150  0.1675  0.1365
   85MOL    H8525453   3.505   6.279   0.994 -0.8047 -2.3641 -0.0374
   85MOL    H8625454   3.483   6.239   1.163  0.5008  2.3136  1.8201
   85MOL    H8725455   3.742   6.300   1.029  0.4231  1.0428  0.7788
   85MOL    H8825456   3.895   6.394   1.171 -2.8614 -1.5895 -2.2896
   85MOL    H8925457   3.986   6.439   1.404  0.9618 -0.9137 -1.2627
   85MOL    H9025458   3.889   6.311   1.589  2.7385  1.2473 -1.2049
   85MOL    H9125459   3.708   6.143   1.551  0.3349 -0.6050 -0.9503
   85MOL    C9225460   3.693   6.095   1.054  0.4694  0.8111 -0.2566
   85MOL    C9325461   3.668   6.066   0.911 -0.1857 -0.5809 -0.0914
   85MOL    C9425462   3.764   6.154   0.826  0.0841  0.4301 -1.2143
   85MOL    C9525463   3.706   6.264   0.762 -0.0177  0.3866 -0.1729
   85MOL    C9625464   3.793   6.341   0.687 -0.1945  0.4439  0.2652
   85MOL    C9725465   3.927   6.311   0.683 -1.4212  0.3345  0.0134
   85MOL    C9825466   3.980   6.200   0.755 -1.0303 -0.5464  0.2655
   85MOL    N9925467   3.897   6.125   0.824 -0.2066 -0.5110  0.3709
   85MOL   H10025468   3.622   6.035   1.111 -0.2988  1.4454 -0.5537
   85MOL   H10125469   3.793   6.060   1.079 -0.0654 -0.1506  0.5719
   85MOL   H10225470   3.567   6.098   0.885  0.2423  0.3663 -0.6250
   85MOL   H10325471   3.603   6.291   0.779 -0.7157 -1.1263 -1.8669
   85MOL   H10425472   3.760   6.420   0.620 -0.3353 -0.1133 -0.3263
   85MOL   H10525473   3.998   6.368   0.625 -0.8491 -1.6519 -1.3234
   85MOL   H10625474   4.085   6.176   0.749 -0.6997  0.2331  2.4647
   85MOL   C10725475   3.664   5.919   0.851  0.0123 -0.4352  0.7920
   85MOL   C10825476   3.548   5.819   0.880  0.0502  0.5535  0.4751
   85MOL   C10925477   3.415   5.888   0.859  0.1249  0.3359 -0.5161
   85MOL   C11025478   3.330   5.895   0.965 -0.2195  0.2195 -0.3307
   85MOL   C11125479   3.198   5.948   0.945 -0.2675  0.3490 -0.0839
   85MOL   C11225480   3.156   5.984   0.814 -0.4724 -0.1608 -0.8185
   85MOL   C11325481   3.259   5.987   0.720 -0.4998 -0.1911  0.0661
   85MOL   N11425482   3.381   5.934   0.737 -0.8195 -0.1098 -0.0238
   85MOL   H11525483   3.766   5.879   0.856  0.1121 -0.1754  0.8528
   85MOL   H11625484   3.650   5.944   0.745  1.7919 -0.4968  0.5271
   85MOL   H11725485   3.560   5.779   0.981 -0.0424  1.3960  0.8225
   85MOL   H11825486   3.353   5.856   1.063 -2.1342  1.2575  0.5610
   85MOL   H11925487   3.129   5.959   1.027 -0.4340 -0.6685 -0.0822
   85MOL   H12025488   3.057   6.027   0.801 -0.2953  1.1042  1.6394
   85MOL   H12125489   3.234   6.027   0.623  1.1825 -1.7242 -1.0114
   85MOL   C12225490   3.556   5.693   0.785  0.3922  0.5661  0.0428
   85MOL   C12325491   3.699   5.617   0.786  0.0438  0.5468 -0.1744
   85MOL   C12425492   3.728   5.560   0.924 -0.6361 -0.3016  0.3781
   85MOL   C12525493   3.840   5.603   1.000 -0.2027  0.1777 -0.3464
   85MOL   C12625494   3.864   5.543   1.124 -0.4112  0.3627 -0.0319
   85MOL   C12725495   3.767   5.459   1.177 -0.1253 -0.4460  0.1358
   85MOL   C12825496   3.654   5.428   1.098 -0.0161  0.2450  0.4547
   85MOL   N12925497   3.633   5.478   0.977  0.3682 -0.2962 -0.2321
   85MOL   H13025498   3.520   5.721   0.686  1.9642  0.2500 -0.6364
   85MOL   H13125499   3.477   5.621   0.805  0.3312  0.8103  0.6719
   85MOL   H13225500   3.780   5.684   0.758  1.2459  0.3643  2.7622
   85MOL   H13325501   3.894   5.688   0.959 -0.2153  0.1168 -0.4918
   85MOL   H13425502   3.947   5.567   1.188 -3.0448  0.7404  3.4175
   85MOL   H13525503   3.777   5.403   1.269  2.8309 -0.0356  0.0944
   85MOL   H13625504   3.577   5.360   1.132 -1.5669  0.6456 -2.0841
   85MOL   C13725505   3.697   5.506   0.675  0.5871 -0.1120  0.1293
   85MOL   C13825506   3.671   5.561   0.529 -0.0962 -0.2164 -1.5275
   85MOL   C13925507   3.745   5.692   0.498 -0.3932  0.1096 -0.4918
   85MOL   C14025508   3.680   5.808   0.460  0.8717 -0.1945 -0.3293
   85MOL   C14125509   3.752   5.932   0.450  0.3786 -0.1695  0.1783
   85MOL   C14225510   3.890   5.930   0.475  0.0877  0.9272  0.5269
   85MOL   C14325511   3.945   5.803   0.505  0.3998 -0.4886 -0.3038
   85MOL   N14425512   3.880   5.688   0.518  0.1258  0.3056  0.1820
   85MOL   H14525513   3.627   5.428   0.702  0.7450 -0.1350  0.4753
   85MOL   H14625514   3.790   5.448   0.676  0.3455 -0.5835 -2.1598
   85MOL   H14725515   3.570   5.602   0.524  0.1890  0.6712 -0.3408
   85MOL   H14825516   3.572   5.811   0.466  0.7700 -0.9642 -1.6353
   85MOL   H14925517   3.703   6.025   0.427  0.2338 -0.2324  0.2311
   85MOL   H15025518   3.944   6.022   0.465 -0.1358  1.0094  0.0720
   85MOL   H15125519   4.052   5.790   0.499  0.6988  1.3761  0.5487
   85MOL   C15225520   3.693   5.457   0.420  0.3625 -0.8161 -0.0225
   85MOL   C15325521   3.631   5.485   0.280  0.4258 -0.2435  0.7613
   85MOL   C15425522   3.484   5.523   0.270 -0.6867 -0.5723  0.0384
   85MOL   C15525523   3.380   5.431   0.263 -0.1755  0.5774 -0.3691
   85MOL   C15625524   3.248   5.481   0.257  0.7358  0.3389 -0.1895
   85MOL   C15725525   3.220   5.617   0.266 -0.2196 -0.0732 -0.1759
   85MOL   C15825526   3.335   5.696   0.280 -0.2238  0.6203  0.1450
   85MOL   N15925527   3.462   5.653   0.279 -0.6222  0.1232  0.1140
   85MOL   H16025528   3.641   5.366   0.447 -0.6534  0.1212  1.2474
   85MOL   H16125529   3.797   5.425   0.420  1.3855  2.3188  1.1187
   85MOL   H16225530   3.618   5.383   0.243 -1.3547  0.6679 -1.2331
   85MOL   H16325531   3.403   5.326   0.268  0.2577  0.6538 -0.6598
   85MOL   H16425532   3.169   5.410   0.236 -1.6740  2.9011 -0.2143
   85MOL   H16525533   3.120   5.654   0.245 -0.4449 -1.1271 -1.0080
   85MOL   H16625534   3.333   5.804   0.279 -1.6017  0.6157  0.8921
   85MOL   C16725535   3.717   5.554   0.168 -0.3702 -0.1664 -0.7152
   85MOL   C16825536   3.834   5.467   0.109  0.2639 -0.5017 -0.8443
   85MOL   C16925537   3.789   5.331   0.067 -0.2466  0.4376 -0.1005
   85MOL   C17025538   3.822   5.221   0.145 -0.0497  0.3477  0.0577
   85MOL   C17125539   3.753   5.099   0.111  0.1434 -0.3669 -0.1421
   85MOL   C17225540   3.681   5.089   8.144 -0.2299  0.4126 -0.8566
   85MOL   C17325541   3.662   5.206   8.068 -0.0295  0.9688 -0.5008
   85MOL   N17425542   3.710   5.326   8.109  0.5322  0.3998  0.6905
   85MOL   H17525543   3.753   5.649   0.209  0.1040 -0.0758 -1.3284
   85MOL   H17625544   3.654   5.564   0.079  0.1793 -0.6428 -1.1630
   85MOL   H17725545   3.905   5.443   0.188 -0.5905  0.7515  0.3081
   85MOL   H17825546   3.878   5.234   0.237  0.0115  2.3141 -0.2376
   85MOL   H17925547   3.767   5.018   0.181  2.1143  1.6185  1.8542
   85MOL   H18025548   3.640   4.997   8.106 -0.9520 -0.1399  1.1871
   85MOL   H18125549   3.601   5.192   7.980 -1.9615 -1.4890  1.1717
   85MOL   C18225550   3.916   5.537   8.148 -0.3269 -0.8530  0.8011
   85MOL   C18325551   4.008   5.650   0.050  0.8669 -0.2589  0.5180
   85MOL   C18425552   4.130   5.597   0.115  0.3150  0.3929  0.2274
   85MOL   C18525553   4.152   5.633   0.249  0.1677 -0.2840 -0.0856
   85MOL   C18625554   4.265   5.593   0.315 -0.2885 -0.3872 -0.4651
   85MOL   C18725555   4.352   5.505   0.242  0.2087 -0.0320 -0.5708
   85MOL   C18825556   4.325   5.478   0.110 -0.3636  0.7459 -0.4298
   85MOL   N18925557   4.215   5.520   0.041  0.0081  0.1340  0.3867
   85MOL   H19025558   3.842   5.576   8.079  1.1631  2.0061  0.7394
   85MOL   H19125559   3.971   5.474   8.078  0.4088 -1.1057  1.5903
   85MOL   H19225560   3.947   5.698   0.126  0.2711 -3.0185  1.8603
   85MOL   H19325561   4.075   5.680   0.309  2.3251  2.1487  0.9011
   85MOL   H19425562   4.292   5.618   0.417 -0.7024  2.3443 -0.9867
   85MOL   H19525563   4.437   5.464   0.295  0.4155  1.1700  0.0443
   85MOL   H19625564   4.403   5.417   0.066 -0.8282 -1.6143  1.8552
   85MOL   C19725565   4.054   5.752   8.094 -0.0362  0.0514  0.6311
   85MOL   C19825566   3.940   5.826   8.020  0.5810 -0.1825 -0.2334
   85MOL   C19925567   3.844   5.887   8.119 -0.2317  0.8123  1.1857
   85MOL   C20025568   3.718   5.827   8.131  0.5121  0.2312  0.6761
   85MOL   C20125569   3.626   5.877   0.072 -0.5041  0.1697  0.3487
   85MOL   C20225570   3.660   5.988   0.150 -0.2935 -0.7694  0.2391
   85MOL   C20325571   3.783   6.048   0.125 -0.0743  0.4426  0.2239
   85MOL   N20425572   3.873   5.999   0.036  0.2287 -0.6577 -0.0888
   85MOL   H20525573   4.111   5.699   8.017 -0.8931  0.1476 -0.0748
   85MOL   H20625574   4.117   5.833   8.131  0.2609  0.7678 -1.3651
   85MOL   H20725575   3.885   5.750   7.964  1.8830  1.8451 -4.5101
   85MOL   H20825576   3.696   5.740   8.071 -0.6111 -0.0162  1.4301
   85MOL   H20925577   3.530   5.834   0.096  0.1242 -0.5861  1.5952
   85MOL   H21025578   3.600   6.031   0.229 -0.2500 -1.3166  0.5684
   85MOL   H21125579   3.820   6.127   0.189  3.4723 -0.7289 -0.2842
   85MOL   C21225580   4.011   5.921   7.920 -0.3986 -0.5634 -0.0377
   85MOL   C21325581   3.921   6.007   7.832  0.4766  0.1629 -0.3564
   85MOL   C21425582   3.991   6.125   7.765 -0.2272  0.8932  0.4101
   85MOL   C21525583   3.961   6.260   7.801  0.1867  0.2976  0.1627
   85MOL   C21625584   4.034   6.358   7.731  0.0700  0.3147 -0.2108
   85MOL   C21725585   4.138   6.323   7.637  0.4733 -0.6041 -0.4283
   85MOL   C21825586   4.158   6.188   7.614  0.6871  0.5166  0.2133
   85MOL   N21925587   4.087   6.091   7.672 -0.1265  0.1436 -0.4322
   85MOL   H22025588   4.083   5.861   7.865 -1.0287 -2.5099  1.2350
   85MOL   H22125589   4.078   5.990   7.972  0.8795 -1.8707  0.0792
   85MOL   H22225590   3.861   6.062   7.905  0.8977 -2.5053  2.1153
   85MOL   H22325591   3.882   6.283   7.870 -0.6581 -0.1115 -0.6523
   85MOL   H22425592   4.011   6.462   7.747 -1.9828  0.1486 -1.9470
   85MOL   H22525593   4.187   6.400   7.580  1.7294 -0.7479  0.4514
   85MOL   H22625594   4.224   6.149   7.538 -0.0019 -0.8623  0.3063
   85MOL   C22725595   3.808   5.937   7.744 -0.1944 -0.1552  0.1857
   85MOL   C22825596   3.861   5.864   7.616 -0.2519  0.3349 -0.5280
   85MOL   C22925597   3.938   5.740   7.635 -0.0499  0.3248 -0.0180
   85MOL   C23025598   4.078   5.734   7.629 -0.0231 -0.1025 -0.3423
   85MOL   C23125599   4.151   5.617   7.654  0.4128 -0.3167 -0.2417
   85MOL   C23225600   4.070   5.498   7.692  0.1732  0.1840  0.5292
   85MOL   C23325601   3.933   5.514   7.698  0.0480 -0.1896  0.9207
   85MOL   N23425602   3.869   5.632   7.677  0.3434 -0.0836 -0.1962
   85MOL   H23525603   3.748   6.019   7.704 -0.6121  0.2584  1.6002
   85MOL   H23625604   3.746   5.881   7.814 -0.3073  1.0996  1.1214
   85MOL   H23725605   3.934   5.926   7.564  0.1726 -1.7990 -2.5589
   85MOL   H23825606   4.123   5.823   7.590 -3.3916  1.0874 -1.6785
   85MOL   H23925607   4.256   5.611   7.629 -0.2183 -0.4632 -3.0360
   85MOL   H24025608   4.122   5.404   7.696 -0.4899 -0.2713 -1.1005
   85MOL   H24125609   3.869   5.428   7.714 -1.3387  1.1449  2.7345
   85MOL   C24225610   3.746   5.850   7.511  0.2027 -0.0145  0.2982
   85MOL   C24325611   3.799   5.845   7.369  0.4889  0.1987 -0.3692
   85MOL   C24425612   3.701   5.783   7.268 -0.3751  0.2953 -0.5701
   85MOL   C24525613   3.740   5.673   7.191  0.2657 -0.1763 -0.2075
   85MOL   C24625614   3.635   5.614   7.108 -0.4501 -0.4082 -1.0233
   85MOL   C24725615   3.510   5.672   7.109 -0.0654  0.2558  0.4009
   85MOL   C24825616   3.490   5.788   7.182  0.5202  0.3087 -0.7223
   85MOL   N24925617   3.581   5.843   7.258  0.1816  0.6679 -0.3840
   85MOL   H25025618   3.683   5.938   7.523 -0.2149 -0.2145 -0.3904
   85MOL   H25125619   3.698   5.758   7.545 -0.7190  1.0562  1.9570
   85MOL   H25225620   3.882   5.774   7.370  1.7571  1.6408 -1.8113
   85MOL   H25325621   3.832   5.616   7.199  0.7483  0.2527 -2.4198
   85MOL   H25425622   3.658   5.519   7.063 -1.7598 -0.9107 -0.6543
   85MOL   H25525623   3.433   5.634   7.044  0.9528 -0.3105 -0.4960
   85MOL   H25625624   3.397   5.842   7.185  0.1595 -0.2946 -0.9059
   85MOL   C25725625   3.844   5.983   7.323  0.0022 -0.0117 -0.5651
   85MOL   C25825626   3.905   6.010   7.183 -0.5778 -0.1980 -0.4224
   85MOL   C25925627   3.930   6.158   7.166 -0.0362  0.0532 -0.2288
   85MOL   C26025628   3.869   6.240   7.070  0.4052  0.3165 -0.1675
   85MOL   C26125629   3.903   6.373   7.067 -0.2577 -0.1303  0.4217
   85MOL   C26225630   3.994   6.420   7.160  0.2161 -0.2653  0.7046
   85MOL   C26325631   4.063   6.330   7.240 -0.3743 -1.0391  0.4524
   85MOL   N26425632   4.027   6.197   7.244 -0.4494 -0.1330  0.3266
   85MOL   H26525633   3.921   6.027   7.386  0.5822 -1.1188 -0.4950
   85MOL   H26625634   3.760   6.050   7.343 -0.5042 -0.9804  0.6539
   85MOL   H26725635   3.829   5.994   7.106  0.3069  0.0914 -1.3687
   85MOL   H26825636   3.796   6.204   6.999 -0.3341  2.2942 -0.4503
   85MOL   H26925637   3.852   6.434   6.994 -1.2219 -0.9459  0.4005
   85MOL   H27025638   4.017   6.526   7.155 -1.3084  0.0185 -0.8385
   85MOL   H27125639   4.145   6.349   7.308 -2.4717  0.5984  2.6246
   85MOL   C27225640   4.027   5.908   7.156 -0.9481 -0.3542 -0.1660
   85MOL   C27325641   4.120   5.949   7.045  0.1346 -0.1383 -0.3394
   85MOL   C27425642   4.247   5.865   7.052 -0.7147 -0.2169  0.6846
   85MOL   C27525643   4.375   5.920   7.087  0.4170  0.4240 -0.0047
   85MOL   C27625644   4.485   5.832   7.095 -0.3118 -0.1960  0.0197
   85MOL   C27725645   4.470   5.703   7.062 -0.3794  0.0336  0.6360
   85MOL   C27825646   4.341   5.653   7.029 -0.1932  0.3413 -0.1525
   85MOL   N27925647   4.233   5.734   7.025  0.2354 -0.1216  0.4110
   85MOL   H28025648   3.997   5.804   7.147 -1.3461 -0.1559 -1.1360
   85MOL   H28125649   4.088   5.916   7.247  0.6076  0.9961 -1.2887
   85MOL   H28225650   4.146   6.053   7.062  0.2048 -0.3568  0.9445
   85MOL   H28325651   4.383   6.027   7.101  0.4960  0.3672  0.3771
   85MOL   H28425652   4.579   5.882   7.115  0.9613 -2.2428 -0.7627
   85MOL   H28525653   4.551   5.633   7.072 -0.9489 -0.8552 -0.7751
   85MOL   H28625654   4.326   5.551   6.999 -1.1080 -0.1670  1.9364
   85MOL   C28725655   4.052   5.958   6.909  0.0540  0.0240  0.0901
   85MOL   C28825656   4.137   6.020   6.790  0.0782  0.1241 -0.3254
   85MOL   C28925657   4.051   6.029   6.664  0.1000  0.2812 -0.5520
   85MOL   C29025658   4.009   5.912   6.602 -0.0105 -0.6264  0.6743
   85MOL   C29125659   3.945   5.925   6.479 -0.3685 -0.3099  0.3704
   85MOL   C29225660   3.908   6.051   6.435 -0.6707  0.4031 -0.3118
   85MOL   C29325661   3.955   6.161   6.504  0.8376  0.0476  0.1065
   85MOL   N29425662   4.022   6.152   6.619  0.0447 -0.1761 -0.8114
   85MOL   H29525663   3.959   6.013   6.913 -0.4821 -1.0400  3.4856
   85MOL   H29625664   4.024   5.857   6.879 -0.4824  0.2295 -0.1040
   85MOL   H29725665   4.230   5.965   6.775  0.2645  0.2090  0.4580
   85MOL   H29825666   4.036   5.817   6.644  1.5080 -0.8554 -0.7825
   85MOL   H29925667   3.901   5.843   6.424 -3.1732  2.8441 -2.2902
   85MOL   H30025668   3.837   6.060   6.354 -0.1540  0.2600 -0.7897
   85MOL   H30125669   3.919   6.260   6.480  1.3092  0.4072  0.8672
   85MOL   H30225670   4.169   6.121   6.819 -2.0011  0.4123  1.0731
   86MOL     C125671   0.131   5.661   6.507 -0.4784 -0.2125  0.7414
   86MOL     C225672   0.042   5.751   6.589  0.3019 -0.5697  0.3121
   86MOL     C325673   8.056   5.753   6.535  0.1880 -0.0835 -0.0618
   86MOL     C425674   8.027   5.848   6.437 -0.3723  0.0922 -0.9097
   86MOL     C525675   7.895   5.860   6.382 -0.0974 -0.0622 -0.0677
   86MOL     C625676   7.802   5.770   6.435  0.0213 -0.0404 -0.5560
   86MOL     C725677   7.840   5.669   6.515 -0.6446  0.6525  0.1527
   86MOL     N825678   7.962   5.660   6.562 -0.1659  0.2359 -0.3812
   86MOL     H925679   0.233   5.690   6.531 -1.4266  2.6443  1.4693
   86MOL    H1025680   0.121   5.553   6.517  0.3513 -0.3882 -0.1738
   86MOL    H1125681   0.098   5.842   6.567  1.3812 -1.7232 -1.8288
   86MOL    H1225682   8.106   5.915   6.407 -0.2024  0.4339  0.2770
   86MOL    H1325683   7.880   5.937   6.308 -0.8237 -1.8768 -1.8735
   86MOL    H1425684   7.700   5.776   6.401 -0.7798  0.1627  1.8165
   86MOL    H1525685   7.762   5.605   6.553  0.3449 -1.8721 -1.9138
   86MOL    H1625686   0.115   5.675   6.400 -1.2602 -1.7672  0.6357
   86MOL    C1725687   0.057   5.722   6.746  0.3966 -0.4459  0.3496
   86MOL    C1825688   0.199   5.719   6.819 -0.2497 -0.2140 -0.6475
   86MOL    C1925689   0.287   5.835   6.779  0.2194 -0.2194 -0.1439
   86MOL    C2025690   0.414   5.817   6.727 -0.6548  0.6807  0.1971
   86MOL    C2125691   0.496   5.929   6.698  0.3428 -0.0415  0.0208
   86MOL    C2225692   0.439   6.054   6.717 -0.0138  0.3667  0.1614
   86MOL    C2325693   0.306   6.061   6.763  0.4626  0.1275 -0.3051
   86MOL    N2425694   0.232   5.954   6.788 -0.0535 -0.6403  0.4139
   86MOL    H2525695   0.007   5.629   6.773  0.9497 -0.5837  0.9212
   86MOL    H2625696   8.147   5.799   6.792 -0.2362  0.3679 -1.7897
   86MOL    H2725697   0.248   5.631   6.776 -0.4541  0.3725 -2.1016
   86MOL    H2825698   0.447   5.715   6.712 -0.0046  0.7374  1.2161
   86MOL    H2925699   0.601   5.927   6.673  0.8095  3.7016  1.4481
   86MOL    H3025700   0.496   6.145   6.709  1.0699 -0.4848 -2.2304
   86MOL    H3125701   0.260   6.158   6.775  1.1350  0.2817  1.1177
   86MOL    C3225702   0.193   5.694   6.971 -0.0931 -0.3672 -0.6877
   86MOL    C3325703   0.136   5.554   7.011 -0.1655  0.2301 -0.2004
   86MOL    C3425704   0.192   5.439   6.932  0.1260  0.0900  0.1714
   86MOL    C3525705   0.110   5.359   6.856  0.5047  0.3854  0.3815
   86MOL    C3625706   0.163   5.240   6.799 -0.1580 -0.0256 -0.7677
   86MOL    C3725707   0.298   5.217   6.808  0.5056 -0.5054 -0.2784
   86MOL    C3825708   0.379   5.307   6.879  0.4900  0.1859 -0.9063
   86MOL    N3925709   0.327   5.412   6.942 -0.4565  0.1118  0.0081
   86MOL    H4025710   0.124   5.769   7.010  0.1706  0.2733 -1.4343
   86MOL    H4125711   0.289   5.710   7.019  0.3189  1.1174 -1.9599
   86MOL    H4225712   0.030   5.554   6.988 -0.2563  1.3033  0.1537
   86MOL    H4325713   0.004   5.365   6.840  0.6381  1.8406 -0.0613
   86MOL    H4425714   0.101   5.175   6.739  0.7023  0.2523 -1.9667
   86MOL    H4525715   0.327   5.126   6.757 -0.6076  0.6983 -3.1765
   86MOL    H4625716   0.485   5.300   6.895  0.4615  0.4575 -0.5883
   86MOL    C4725717   0.142   5.529   7.163 -0.2365  0.3371  0.0651
   86MOL    C4825718   0.065   5.621   7.256  0.1697 -0.9918  0.0698
   86MOL    C4925719   8.102   5.564   7.337  0.6081 -0.3223  0.2051
   86MOL    C5025720   8.118   5.444   7.409  0.1656 -0.2023 -0.0746
   86MOL    C5125721   8.008   5.396   7.479  0.9129 -0.2935 -0.3170
   86MOL    C5225722   7.884   5.463   7.474 -0.1471  0.1399  0.1016
   86MOL    C5325723   7.884   5.586   7.411  0.3843 -0.1815 -0.1660
   86MOL    N5425724   7.990   5.636   7.349  0.1148 -0.0451 -0.2347
   86MOL    H5525725   0.249   5.535   7.178  0.0061  0.1380 -1.4787
   86MOL    H5625726   0.113   5.425   7.178 -1.8335  0.4042 -2.2589
   86MOL    H5725727   0.028   5.707   7.201  1.0628  0.4820  1.7439
   86MOL    H5825728   0.067   5.405   7.420 -0.0166 -1.1589 -1.7126
   86MOL    H5925729   8.017   5.315   7.550  0.8602  0.7546  0.8876
   86MOL    H6025730   7.799   5.438   7.536 -1.4136 -1.7828 -2.3032
   86MOL    H6125731   7.805   5.660   7.413  0.1506 -0.4217  3.2476
   86MOL    C6225732   0.175   5.674   7.349 -0.2357  0.0578  0.3195
   86MOL    C6325733   0.129   5.783   7.439  0.0710 -0.2983  0.1615
   86MOL    C6425734   0.227   5.787   7.556 -0.9765  0.1976 -0.3892
   86MOL    C6525735   0.195   5.723   7.673 -0.1384  0.4593  0.4779
   86MOL    C6625736   0.301   5.701   7.765 -0.0932 -0.0672 -0.2950
   86MOL    C6725737   0.431   5.753   7.739 -0.2071 -0.4895  0.4779
   86MOL    C6825738   0.446   5.826   7.621 -0.0791 -0.0101 -0.0307
   86MOL    N6925739   0.351   5.842   7.528 -0.4123 -0.1027  0.1460
   86MOL    H7025740   0.259   5.708   7.289  1.2049 -0.9301  1.7439
   86MOL    H7125741   0.205   5.589   7.411  0.8102 -0.6659 -1.1566
   86MOL    H7225742   0.035   5.757   7.487 -0.9968  2.1639 -0.5446
   86MOL    H7325743   0.096   5.684   7.695 -0.2245 -0.0600 -0.7774
   86MOL    H7425744   0.287   5.630   7.846 -2.3898 -0.3164 -0.8645
   86MOL    H7525745   0.521   5.725   7.791  0.6967 -3.5139 -2.5055
   86MOL    H7625746   0.545   5.859   7.594  0.0376  0.1722  0.6157
   86MOL    C7725747   0.122   5.911   7.361 -0.4917  0.2327 -0.2811
   86MOL    C7825748   0.073   6.042   7.428 -0.2249 -0.4589  0.5379
   86MOL    C7925749   0.103   6.172   7.354  0.1220 -0.4723 -0.0906
   86MOL    C8025750   0.204   6.261   7.382  0.0494 -0.3324  0.7908
   86MOL    C8125751   0.238   6.360   7.286  0.4481  0.5322 -0.1020
   86MOL    C8225752   0.150   6.378   7.177 -0.6199  0.0218 -0.3696
   86MOL    C8325753   0.052   6.286   7.149 -0.6137  0.7364 -0.6576
   86MOL    N8425754   0.028   6.185   7.237 -0.2546  0.0823 -0.2183
   86MOL    H8525755   0.057   5.895   7.276  0.5786  0.7397 -1.2075
   86MOL    H8625756   0.216   5.941   7.314 -0.6476  1.6894  0.2759
   86MOL    H8725757   0.139   6.054   7.515  0.5136  0.6522 -0.1585
   86MOL    H8825758   0.260   6.246   7.473 -0.7123  1.6098  1.5905
   86MOL    H8925759   0.318   6.431   7.293  0.9893  0.2167 -2.5519
   86MOL    H9025760   0.173   6.455   7.105  0.3084 -0.9209 -1.0773
   86MOL    H9125761   0.007   6.285   7.051 -1.0331 -0.8605 -0.4640
   86MOL    C9225762   8.076   6.037   7.468  0.0305  0.1008 -0.4323
   86MOL    C9325763   8.049   5.984   7.611  0.9056  0.4489  0.0433
   86MOL    C9425764   8.105   6.078   7.715 -0.2269 -0.0856 -0.0552
   86MOL    C9525765   8.070   6.215   7.727 -0.0277 -0.3520 -0.1303
   86MOL    C9625766   8.134   6.300   7.821  0.4718 -0.0541  0.2167
   86MOL    C9725767   0.088   6.242   7.892  0.2665 -0.1951  0.5049
   86MOL    C9825768   0.112   6.107   7.883  0.0804  0.6835  0.0823
   86MOL    N9925769   0.051   6.030   7.791 -0.1690  0.1606  0.5376
   86MOL   H10025770   8.023   5.978   7.392 -1.0458 -0.9367  1.0933
   86MOL   H10125771   8.030   6.135   7.458 -1.0377 -0.6564 -3.9259
   86MOL   H10225772   8.102   5.889   7.620 -0.4724 -0.0544  3.7014
   86MOL   H10325773   7.990   6.256   7.667 -0.2939 -3.4388 -1.9596
   86MOL   H10425774   8.107   6.404   7.829 -0.2432 -0.0161 -2.3466
   86MOL   H10525775   0.145   6.298   7.965 -0.6540  0.6376  0.5922
   86MOL   H10625776   0.193   6.066   7.942  0.9915 -0.6329 -2.0288
   86MOL   C10725777   7.912   5.939   7.634  0.8828 -0.0885 -0.4002
   86MOL   C10825778   7.883   5.895   7.771  0.3335 -0.2296  0.1587
   86MOL   C10925779   7.732   5.909   7.792 -0.5278  0.0564 -0.7304
   86MOL   C11025780   7.668   6.007   7.874 -0.9997  0.1195 -0.4273
   86MOL   C11125781   7.521   6.010   7.887  0.2713  0.2366 -0.5457
   86MOL   C11225782   7.450   5.899   7.838  0.1889  0.3592 -0.0068
   86MOL   C11325783   7.525   5.810   7.753 -0.0766 -0.0437  0.0525
   86MOL   N11425784   7.657   5.816   7.729 -0.4193  0.7209  0.6899
   86MOL   H11525785   7.885   5.860   7.565 -0.6139  1.5889 -1.7888
   86MOL   H11625786   7.841   6.018   7.609 -0.6734 -1.4774 -0.4806
   86MOL   H11725787   7.913   5.970   7.844  2.7823 -0.8437 -0.1661
   86MOL   H11825788   7.722   6.081   7.931  0.0707 -0.9100 -0.0938
   86MOL   H11925789   7.473   6.087   7.945 -1.1221 -1.4362  0.5807
   86MOL   H12025790   7.345   5.881   7.852  0.1156  0.5573 -0.2877
   86MOL   H12125791   7.473   5.729   7.705  0.0113 -0.4661  0.6545
   86MOL   C12225792   7.966   5.777   7.815  0.0105 -0.9234  0.2423
   86MOL   C12325793   7.931   5.696   7.945  0.3267  0.3834 -0.0059
   86MOL   C12425794   8.002   5.563   7.951  0.1536 -0.2072  0.6260
   86MOL   C12525795   7.937   5.437   7.966 -0.3572  0.1599 -0.0967
   86MOL   C12625796   8.018   5.322   7.971  0.0227 -0.2531 -0.0162
   86MOL   C12725797   0.009   5.338   7.970  0.8727  0.5524 -0.0059
   86MOL   C12825798   0.061   5.469   7.949  0.1045  0.1066 -0.5814
   86MOL   N12925799   8.142   5.582   7.947 -0.1167  0.0088 -0.2335
   86MOL   H13025800   8.072   5.798   7.822 -0.0570 -0.4241 -0.2414
   86MOL   H13125801   7.957   5.703   7.735  1.9024  0.0939 -0.9428
   86MOL   H13225802   7.824   5.678   7.933  0.7849 -0.9821 -2.3432
   86MOL   H13325803   7.830   5.425   7.974 -0.4177  0.9525  0.3448
   86MOL   H13425804   7.966   5.228   7.983 -0.5714  0.1840  0.9234
   86MOL   H13525805   0.072   5.253   7.989  0.4397  0.2049 -0.1069
   86MOL   H13625806   0.166   5.492   7.943  0.2090  0.3012  1.4103
   86MOL   C13725807   7.949   5.778   8.075 -0.0806 -0.4547 -0.7176
   86MOL   C13825808   7.881   5.712   0.049 -0.0713  0.7046 -0.4548
   86MOL   C13925809   7.975   5.712   0.173 -0.6321  0.0032  0.0290
   86MOL   C14025810   8.007   5.594   0.241 -0.1005 -0.2524 -0.3749
   86MOL   C14125811   8.082   5.600   0.356  0.6317  0.2408  0.2719
   86MOL   C14225812   8.117   5.726   0.411 -0.1973  0.2340 -0.2618
   86MOL   C14325813   8.068   5.841   0.346  0.3287  0.1521  0.1571
   86MOL   N14425814   8.005   5.833   0.226  0.3608 -0.0195 -0.3747
   86MOL   H14525815   7.921   5.883   8.064  0.7340 -0.1220  0.2753
   86MOL   H14625816   8.056   5.776   8.097  0.1594 -1.8172 -1.8946
   86MOL   H14725817   7.870   5.605   0.033 -2.3512  0.8596 -0.1171
   86MOL   H14825818   7.976   5.501   0.196 -2.5486 -0.1564  1.0506
   86MOL   H14925819   8.119   5.511   0.406  0.8171  0.7444  1.0464
   86MOL   H15025820   0.024   5.733   0.501 -0.3767  2.6109 -0.2899
   86MOL   H15125821   8.093   5.943   0.370  2.7435  0.1677 -2.2391
   86MOL   C15225822   7.745   5.770   0.092  1.4755  0.0295 -0.2175
   86MOL   C15325823   7.626   5.738   0.001  0.7040 -0.0314  0.0359
   86MOL   C15425824   7.620   5.584   8.139  0.3070  0.0731 -0.0749
   86MOL   C15525825   7.591   5.533   8.009 -0.5069 -0.2945  0.3709
   86MOL   C15625826   7.549   5.396   8.001  0.0538  0.0891 -0.0687
   86MOL   C15725827   7.562   5.313   8.116  0.3026 -0.2419  0.0147
   86MOL   C15825828   7.607   5.373   0.082 -0.9369  0.1033  0.4596
   86MOL   N15925829   7.647   5.504   0.093  0.2535  0.5163  0.1862
   86MOL   H16025830   7.754   5.875   0.122  2.0902  0.1140 -0.7042
   86MOL   H16125831   7.721   5.732   0.192  1.9328  0.5424  0.0893
   86MOL   H16225832   7.661   5.772   8.056  0.9371  2.1094  0.8369
   86MOL   H16325833   7.577   5.598   7.923 -0.1619 -0.5018  0.1538
   86MOL   H16425834   7.514   5.347   7.911  1.4932 -1.1728  0.0473
   86MOL   H16525835   7.531   5.210   8.111 -0.2810 -0.0426 -0.6241
   86MOL   H16625836   7.614   5.312   0.171  1.7101  0.4925  0.5470
   86MOL   C16725837   7.485   5.793   0.032  0.0445  0.3751  0.2532
   86MOL   C16825838   7.410   5.725   0.153 -0.7027  0.3759  0.6410
   86MOL   C16925839   7.364   5.833   0.254  0.7749 -0.8970  0.1680
   86MOL   C17025840   7.239   5.890   0.247  0.2428 -0.0741 -0.2806
   86MOL   C17125841   7.208   6.000   0.326 -0.3448  0.0738  0.2334
   86MOL   C17225842   7.296   6.038   0.435  0.6036 -0.2716  0.9561
   86MOL   C17325843   7.419   5.969   0.438  0.1493  0.4169 -0.0980
   86MOL   N17425844   7.453   5.872   0.351 -0.4898 -0.2533 -0.6753
   86MOL   H17525845   7.420   5.766   8.101  0.7452 -1.3827  0.2390
   86MOL   H17625846   7.495   5.900   0.047  0.1344  0.1131  2.2060
   86MOL   H17725847   7.492   5.675   0.205  0.9781  0.8679 -1.4217
   86MOL   H17825848   7.155   5.865   0.183  0.4721 -0.8395 -0.2849
   86MOL   H17925849   7.108   6.042   0.323  0.2494  1.4235 -1.0856
   86MOL   H18025850   7.277   6.108   0.516 -1.8685 -0.8626  0.9301
   86MOL   H18125851   7.502   5.992   0.503 -1.0213 -1.1357  2.0026
   86MOL   C18225852   7.292   5.623   0.114 -0.1737  0.0234 -0.0591
   86MOL   C18325853   7.229   5.538   0.224  0.5726 -0.9020  0.3540
   86MOL   C18425854   7.111   5.458   0.176  0.0598 -0.7814 -0.4937
   86MOL   C18525855   6.993   5.450   0.254 -0.7044  0.1566 -0.4931
   86MOL   C18625856   6.893   5.362   0.216  0.7905 -0.4121 -0.0749
   86MOL   C18725857   6.904   5.294   0.097 -0.2826  0.0861  0.6382
   86MOL   C18825858   7.031   5.300   0.029 -0.3763 -0.3372 -0.5811
   86MOL   N18925859   7.129   5.384   0.069 -0.2610  0.2696 -0.5588
   86MOL   H19025860   7.328   5.555   0.036 -0.3774 -0.2760  0.1095
   86MOL   H19125861   7.211   5.678   0.065 -0.7050 -1.8896 -1.3687
   86MOL   H19225862   7.189   5.603   0.301 -0.0202 -1.9200  0.9205
   86MOL   H19325863   7.000   5.508   0.345 -2.9128  0.8992 -0.7695
   86MOL   H19425864   6.808   5.358   0.283  1.8116 -1.8685  1.1551
   86MOL   H19525865   6.829   5.224   0.064 -1.8812  1.9965  0.1399
   86MOL   H19625866   7.059   5.254   8.087 -1.1182 -0.7229 -0.6171
   86MOL   C19725867   7.337   5.443   0.293  0.4493 -0.1351  0.0318
   86MOL   C19825868   7.286   5.340   0.404 -0.2506 -0.3013 -0.7924
   86MOL   C19925869   7.293   5.202   0.349  0.0279 -0.1958  0.5676
   86MOL   C20025870   7.176   5.123   0.340  0.2237  0.1178 -0.7988
   86MOL   C20125871   7.191   4.990   0.304 -0.3717  0.0662 -0.2185
   86MOL   C20225872   7.317   4.937   0.264  0.5413  0.3416  0.8244
   86MOL   C20325873   7.423   5.028   0.271  0.3025 -0.1296  0.8569
   86MOL   N20425874   7.420   5.155   0.311  0.1857 -0.0672 -0.1546
   86MOL   H20525875   7.419   5.503   0.332 -1.2780  1.5849  1.1040
   86MOL   H20625876   7.387   5.393   0.210  1.8196 -0.0330  0.7781
   86MOL   H20725877   7.184   5.371   0.430  0.2459  0.5090  0.2064
   86MOL   H20825878   7.082   5.163   0.377 -0.2674  1.7006 -3.5845
   86MOL   H20925879   7.108   4.920   0.301 -0.3089  0.0555 -2.6038
   86MOL   H21025880   7.322   4.836   0.225 -0.7538  0.5089  0.2319
   86MOL   H21125881   7.524   5.001   0.244 -0.4115 -0.7235 -1.3101
   86MOL   C21225882   7.361   5.340   0.540 -0.2112 -0.1491 -0.3958
   86MOL   C21325883   7.365   5.473   0.620 -0.2727  0.2167 -0.8196
   86MOL   C21425884   7.230   5.548   0.610 -0.2663  0.0106 -0.2463
   86MOL   C21525885   7.212   5.673   0.550  0.3346  0.2633  0.0400
   86MOL   C21625886   7.090   5.733   0.546 -0.1630 -0.4391  0.0040
   86MOL   C21725887   6.988   5.673   0.617  0.2621 -0.9762 -0.7752
   86MOL   C21825888   7.010   5.547   0.679 -0.0792  0.1108  0.1918
   86MOL   N21925889   7.131   5.484   0.678  0.2235 -0.5351  0.6853
   86MOL   H22025890   7.464   5.324   0.508 -0.1264 -3.4965  1.3857
   86MOL   H22125891   7.331   5.259   0.606  0.4788 -0.4754 -0.4821
   86MOL   H22225892   7.420   5.541   0.555 -0.5970  0.9791 -0.2987
   86MOL   H22325893   7.293   5.711   0.489  1.9140 -0.6209  1.5505
   86MOL   H22425894   7.069   5.831   0.505  3.5104  0.9964  1.2834
   86MOL   H22525895   6.885   5.705   0.618  0.3526 -0.6870 -0.7818
   86MOL   H22625896   6.923   5.495   0.717 -2.2523  2.0681 -1.8445
   86MOL   C22725897   7.423   5.454   0.762  0.4602  0.1758  0.4345
   86MOL   C22825898   7.433   5.582   0.839  0.8035  0.7229 -0.0651
   86MOL   C22925899   7.450   5.554   0.990  0.1513  0.2579 -0.5564
   86MOL   C23025900   7.336   5.536   1.071  0.3379  0.6554 -0.8906
   86MOL   C23125901   7.352   5.516   1.212  0.1898 -0.2094 -0.0526
   86MOL   C23225902   7.482   5.508   1.261  0.1826  0.0829 -0.0308
   86MOL   C23325903   7.591   5.528   1.172 -0.6242 -0.1198 -0.2948
   86MOL   N23425904   7.577   5.541   1.039  0.0746  0.0001 -0.9122
   86MOL   H23525905   7.518   5.404   0.779  0.9854  2.2285  4.1564
   86MOL   H23625906   7.362   5.377   0.808  0.2966 -2.2342 -3.5508
   86MOL   H23725907   7.344   5.645   0.831 -1.7208 -2.7131  0.2324
   86MOL   H23825908   7.239   5.539   1.024  0.7062 -0.6813 -1.7629
   86MOL   H23925909   7.265   5.500   1.274  1.7910 -0.7915  2.0846
   86MOL   H24025910   7.491   5.481   1.366 -0.1370  0.1610  0.0154
   86MOL   H24125911   7.693   5.527   1.209  0.0689 -2.9479 -2.1423
   86MOL   C24225912   7.551   5.678   0.793 -0.2982 -0.3215 -0.1436
   86MOL   C24325913   7.559   5.811   0.870 -0.0958 -0.5891 -0.3856
   86MOL   C24425914   7.701   5.877   0.876  0.1924 -0.1943 -0.2428
   86MOL   C24525915   7.759   5.917   1.002  0.2413  0.2645 -0.4188
   86MOL   C24625916   7.896   5.962   1.001 -0.2013  0.2790  0.4456
   86MOL   C24725917   7.965   5.955   0.881  0.5910  0.3322  1.0261
   86MOL   C24825918   7.896   5.923   0.765  0.3153  0.0160 -0.3177
   86MOL   N24925919   7.766   5.883   0.761 -0.3332  0.1200 -0.0462
   86MOL   H25025920   7.536   5.711   0.690 -1.6056  0.6286  0.3390
   86MOL   H25125921   7.642   5.617   0.794 -0.1916 -0.1972 -1.3035
   86MOL   H25225922   7.538   5.781   0.973 -1.2885  0.9731 -0.1525
   86MOL   H25325923   7.703   5.907   1.094  0.6039 -1.6411 -0.3854
   86MOL   H25425924   7.948   5.997   1.089 -1.8121 -0.1803  1.6078
   86MOL   H25525925   8.068   5.985   0.867  0.7067 -1.0194 -1.2735
   86MOL   H25625926   7.947   5.932   0.670  1.7020  2.0233  0.5854
   86MOL   C25725927   7.460   5.915   0.814  0.5937  0.0996 -0.7116
   86MOL   C25825928   7.433   6.032   0.916 -0.2204  0.3559  0.9038
   86MOL   C25925929   7.454   6.169   0.843 -0.1152  0.6632 -0.0155
   86MOL   C26025930   7.567   6.253   0.874  0.0743 -0.4086  1.0947
   86MOL   C26125931   7.581   6.368   0.802 -0.4089 -0.3732 -0.0327
   86MOL   C26225932   7.482   6.404   0.707  0.2961  0.0125 -0.6909
   86MOL   C26325933   7.377   6.315   0.684  0.4081  0.0644 -0.3010
   86MOL   N26425934   7.363   6.193   0.744  0.5220  0.2079  0.5415
   86MOL   H26525935   7.364   5.867   0.793 -0.3156  2.2261 -1.4970
   86MOL   H26625936   7.508   5.955   0.725  2.1641  3.1406  1.4180
   86MOL   H26725937   7.506   6.041   0.996  0.9710  1.4886 -0.2934
   86MOL   H26825938   7.635   6.236   0.957  0.1854 -0.1902  1.0482
   86MOL   H26925939   7.655   6.439   0.834 -0.7865  0.2880 -0.6141
   86MOL   H27025940   7.475   6.498   0.653  1.3957  0.6415  0.2179
   86MOL   H27125941   7.313   6.339   0.600  0.5731 -1.6078 -0.9139
   86MOL   C27225942   7.295   6.022   0.974  1.0311  0.0342 -0.7248
   86MOL   C27325943   7.256   5.914   1.077  0.4617  0.5173  0.0757
   86MOL   C27425944   7.321   5.937   1.204 -0.2818 -0.5860 -0.5700
   86MOL   C27525945   7.418   5.856   1.255 -0.1664 -0.2488  0.3653
   86MOL   C27625946   7.475   5.889   1.384  0.2445  0.3261 -0.8027
   86MOL   C27725947   7.430   6.003   1.452 -0.1505 -0.2668  0.4408
   86MOL   C27825948   7.329   6.079   1.387  0.3610 -0.6420 -0.3803
   86MOL   N27925949   7.278   6.049   1.269  0.0496 -0.3233 -0.6596
   86MOL   H28025950   7.227   6.018   0.888 -0.4533  0.9861  0.3824
   86MOL   H28125951   7.276   6.116   1.026 -0.2888  0.7438 -2.4246
   86MOL   H28225952   7.294   5.820   1.037 -0.9460 -0.2777  0.5632
   86MOL   H28325953   7.444   5.765   1.202 -2.6056 -0.5144 -0.4377
   86MOL   H28425954   7.557   5.829   1.423  0.5849  0.9875 -0.4901
   86MOL   H28525955   7.468   6.036   1.547 -0.0534  0.9009 -0.0021
   86MOL   H28625956   7.285   6.165   1.435 -2.1868 -1.8959 -0.4119
   86MOL   C28725957   7.105   5.887   1.084 -0.0591  0.2771 -0.3689
   86MOL   C28825958   7.051   5.822   0.959 -0.2234 -0.2772  0.0357
   86MOL   C28925959   6.910   5.869   0.930  0.3439 -0.3627 -0.0690
   86MOL   C29025960   6.890   5.972   0.837 -0.4040 -0.2771  0.7628
   86MOL   C29125961   6.759   6.009   0.815  0.0247  0.0370  0.3595
   86MOL   C29225962   6.659   5.969   0.908 -0.8616  0.3067 -0.4875
   86MOL   C29325963   6.696   5.866   0.996  0.4636  0.7686  0.5414
   86MOL   N29425964   6.821   5.809   1.007  0.0715 -0.1600  0.4542
   86MOL   H29525965   7.057   5.984   1.093  1.8014  1.0811  1.1183
   86MOL   H29625966   7.074   5.828   1.171 -3.1070  0.3792 -1.3193
   86MOL   H29725967   7.047   5.714   0.968  0.7401 -0.3243 -0.1089
   86MOL   H29825968   6.979   6.002   0.785  0.2143 -4.3176 -0.6792
   86MOL   H29925969   6.732   6.084   0.742 -1.1841 -1.3537 -0.6699
   86MOL   H30025970   6.556   6.002   0.908 -1.2477 -0.8794 -0.1671
   86MOL   H30125971   6.628   5.821   1.067  1.7038  0.5614  1.6076
   86MOL   H30225972   7.110   5.841   0.870  0.9143  1.8740  1.2001
   87MOL     C125973   7.430   2.377   3.091  0.1797 -0.7568  0.6292
   87MOL     C225974   7.302   2.391   3.005  0.7672 -0.3263 -0.0940
   87MOL     C325975   7.320   2.444   2.869 -0.1594 -0.1974  0.5849
   87MOL     C425976   7.257   2.569   2.830  0.2341 -0.7653  0.8567
   87MOL     C525977   7.285   2.621   2.703  0.2791  0.2103 -0.1262
   87MOL     C625978   7.362   2.548   2.609 -0.0597 -0.1302  0.1992
   87MOL     C725979   7.422   2.427   2.653  0.0008 -0.5886  0.2333
   87MOL     N825980   7.404   2.382   2.780 -0.4501  0.0655 -0.7597
   87MOL     H925981   7.391   2.341   3.186 -1.0371  1.8779  1.1823
   87MOL    H1025982   7.487   2.299   3.042  2.0572 -0.0967  1.7265
   87MOL    H1125983   7.240   2.462   3.061  1.2280  0.5369 -0.6773
   87MOL    H1225984   7.196   2.625   2.898  2.1065 -0.0053  1.9572
   87MOL    H1325985   7.249   2.721   2.681 -0.2962  0.5044  2.0009
   87MOL    H1425986   7.370   2.581   2.507  1.1911  0.9480  0.6355
   87MOL    H1525987   7.481   2.369   2.584  1.7001  1.3835 -0.0405
   87MOL    H1625988   7.493   2.465   3.104 -0.2913 -0.4318  0.7735
   87MOL    C1725989   7.217   2.256   3.002 -0.4143  0.0966  0.1294
   87MOL    C1825990   7.066   2.268   2.977  0.0481 -0.1129 -0.5392
   87MOL    C1925991   7.012   2.136   2.919 -0.5427 -0.3562  0.4859
   87MOL    C2025992   6.961   2.122   2.791  0.1889 -0.7284 -0.3816
   87MOL    C2125993   6.912   1.999   2.749 -0.6596  0.2719 -0.1859
   87MOL    C2225994   6.917   1.897   2.842 -0.1885 -0.2850  0.5225
   87MOL    C2325995   6.964   1.916   2.973 -0.3697 -0.1667 -0.1695
   87MOL    N2425996   7.014   2.031   3.008  0.7025  0.2012 -0.1901
   87MOL    H2525997   7.221   2.191   3.089  0.5989 -2.3037 -1.6598
   87MOL    H2625998   7.270   2.208   2.920  0.0874 -1.0824  1.1172
   87MOL    H2725999   7.046   2.348   2.906 -1.2725 -1.1164 -1.3243
   87MOL    H2826000   6.957   2.211   2.730  0.1773 -0.6744 -0.3015
   87MOL    H2926001   6.875   1.981   2.649  0.5251 -1.8111 -0.2627
   87MOL    H3026002   6.885   1.798   2.814 -1.8447  0.6954 -1.1326
   87MOL    H3126003   6.980   1.830   3.037 -0.8384 -0.2695 -0.1883
   87MOL    C3226004   6.998   2.309   3.107  0.3905  0.4549 -0.2755
   87MOL    C3326005   6.853   2.361   3.099 -0.4185  0.5616 -0.4150
   87MOL    C3426006   6.756   2.243   3.117  0.6908  0.4504 -0.0724
   87MOL    C3526007   6.691   2.187   3.005 -0.8847 -0.4714 -0.7489
   87MOL    C3626008   6.624   2.068   3.022  0.8353  0.0087 -0.1881
   87MOL    C3726009   6.611   2.014   3.151  0.4363 -0.6314  0.0503
   87MOL    C3826010   6.672   2.082   3.260  0.6781 -0.0643  0.1266
   87MOL    N3926011   6.747   2.191   3.245  0.3889  0.2434  0.3329
   87MOL    H4026012   7.058   2.388   3.154 -0.2927  1.1588 -0.5727
   87MOL    H4126013   6.999   2.224   3.175  0.8970  2.1613  1.9118
   87MOL    H4226014   6.835   2.406   3.001 -0.8611  0.2818 -0.4639
   87MOL    H4326015   6.708   2.234   2.909  2.7684  0.1616  0.1428
   87MOL    H4426016   6.576   2.015   2.942  0.5276 -1.6750  1.0973
   87MOL    H4526017   6.557   1.921   3.163 -2.0366  0.6297 -0.7887
   87MOL    H4626018   6.650   2.057   3.363  1.4918  0.4050  0.4168
   87MOL    C4726019   6.825   2.472   3.211  0.2765 -0.8327  0.1519
   87MOL    C4826020   6.896   2.614   3.204  0.7500  0.2050  1.0228
   87MOL    C4926021   6.847   2.692   3.081 -0.7967 -0.0151 -0.7546
   87MOL    C5026022   6.708   2.711   3.058 -0.3416  0.2219 -0.0134
   87MOL    C5126023   6.678   2.787   2.941 -0.1196  0.4358 -0.7677
   87MOL    C5226024   6.783   2.840   2.866 -0.0770  0.1506  0.3526
   87MOL    C5326025   6.913   2.805   2.898 -0.8330 -0.0462 -0.0180
   87MOL    N5426026   6.946   2.731   3.002  0.9765  0.3078  0.0171
   87MOL    H5526027   6.839   2.421   3.307  2.8017  3.1081  2.0033
   87MOL    H5626028   6.718   2.490   3.211  0.4784  0.4148  0.7473
   87MOL    H5726029   7.001   2.586   3.210  0.5098 -0.8247  0.5950
   87MOL    H5826030   6.642   2.661   3.128 -0.2921  0.5722  0.2800
   87MOL    H5926031   6.574   2.785   2.912 -0.8206  0.8338  1.6243
   87MOL    H6026032   6.766   2.904   2.781 -0.7814  1.0834  1.1789
   87MOL    H6126033   6.993   2.846   2.839 -0.2404 -0.7203  0.3157
   87MOL    C6226034   6.878   2.704   3.323 -0.0233 -0.2329 -0.0586
   87MOL    C6326035   6.911   2.651   3.466 -0.4797 -0.1746  0.2371
   87MOL    C6426036   7.035   2.566   3.485 -0.3958  0.1555  0.1366
   87MOL    C6526037   7.028   2.430   3.523 -0.2244  0.2687  0.0445
   87MOL    C6626038   7.150   2.364   3.543 -0.0563 -0.4612  0.0641
   87MOL    C6726039   7.271   2.437   3.521 -0.5344  0.4261  0.4793
   87MOL    C6826040   7.264   2.572   3.498  0.1093  0.3430 -0.1363
   87MOL    N6926041   7.151   2.640   3.476  0.3232  0.4362 -0.1325
   87MOL    H7026042   6.777   2.744   3.321 -0.4523 -1.2837  0.2573
   87MOL    H7126043   6.946   2.787   3.304  0.9335 -1.1528 -0.6988
   87MOL    H7226044   6.827   2.585   3.489 -1.6367  1.5801  1.1619
   87MOL    H7326045   6.938   2.377   3.550 -0.5203 -0.1797 -1.7628
   87MOL    H7426046   7.143   2.261   3.575  1.4424 -0.4148  0.5354
   87MOL    H7526047   7.370   2.394   3.516  0.4062  2.2960  2.5060
   87MOL    H7626048   7.354   2.631   3.486  0.2289 -0.0405 -1.1684
   87MOL    C7726049   6.898   2.750   3.585 -0.5352 -0.1055 -0.5221
   87MOL    C7826050   6.957   2.891   3.585  0.4861  0.1770 -0.1506
   87MOL    C7926051   6.862   2.976   3.496  0.1579  0.3449  0.6556
   87MOL    C8026052   6.918   3.070   3.414  0.0104 -0.4396 -0.3480
   87MOL    C8126053   6.831   3.160   3.348 -0.0604  0.7959 -0.6984
   87MOL    C8226054   6.693   3.152   3.384  0.3352 -0.1478  0.0946
   87MOL    C8326055   6.646   3.054   3.466 -0.4211 -0.9328  0.6274
   87MOL    N8426056   6.729   2.969   3.518 -0.3629 -0.0843  1.0045
   87MOL    H8526057   6.947   2.705   3.671 -0.2698 -2.4904 -1.8789
   87MOL    H8626058   6.793   2.754   3.612 -0.2989 -0.3299  0.4513
   87MOL    H8726059   7.058   2.882   3.543  0.7841  0.0707  0.5832
   87MOL    H8826060   7.025   3.072   3.395  0.3834  1.4273  1.8367
   87MOL    H8926061   6.862   3.231   3.273 -0.3279 -0.1188 -1.6771
   87MOL    H9026062   6.628   3.225   3.339  0.3514 -0.0081  0.3028
   87MOL    H9126063   6.544   3.036   3.493 -0.5670 -0.0580  0.6765
   87MOL    C9226064   6.971   2.955   3.725 -0.2588  0.3106 -0.3753
   87MOL    C9326065   7.079   2.904   3.822  0.1869  0.4171  0.2479
   87MOL    C9426066   7.219   2.960   3.793  0.7083  0.0844  0.4882
   87MOL    C9526067   7.313   2.881   3.718  0.2184 -0.3575 -0.2202
   87MOL    C9626068   7.435   2.942   3.686 -0.0237 -0.5211 -0.2993
   87MOL    C9726069   7.454   3.077   3.715 -0.0044  0.1404 -0.3184
   87MOL    C9826070   7.355   3.147   3.784  0.2087 -0.4464 -0.0514
   87MOL    N9926071   7.238   3.089   3.825 -0.0333  0.3700 -0.5744
   87MOL   H10026072   6.873   2.932   3.767 -0.2976 -1.0534 -1.1472
   87MOL   H10126073   6.984   3.063   3.722 -2.9508  0.7410  1.7068
   87MOL   H10226074   7.095   2.799   3.796  1.1278  1.0945 -2.0401
   87MOL   H10326075   7.290   2.778   3.695  0.3865 -0.0939 -1.6250
   87MOL   H10426076   7.520   2.894   3.638 -0.5209 -1.1163 -0.5888
   87MOL   H10526077   7.545   3.128   3.686  0.0115 -0.2789 -1.0263
   87MOL   H10626078   7.357   3.255   3.784  0.0871 -0.4423 -0.6929
   87MOL   C10726079   7.033   2.930   3.966  0.6456  0.1457 -0.3229
   87MOL   C10826080   6.906   2.868   4.022  0.3295  0.2255 -0.6010
   87MOL   C10926081   6.849   2.739   3.955 -0.2625  0.2914  0.6408
   87MOL   C11026082   6.724   2.745   3.895  0.3936 -0.0532  0.2287
   87MOL   C11126083   6.675   2.629   3.831  0.0561  0.1702  0.9780
   87MOL   C11226084   6.746   2.511   3.842  0.8271  0.1088 -0.0913
   87MOL   C11326085   6.871   2.519   3.907  0.3107 -0.4852  0.0650
   87MOL   N11426086   6.929   2.631   3.962 -0.0247  0.2256  0.4621
   87MOL   H11526087   7.026   3.038   3.963  0.0983  0.1145 -0.2174
   87MOL   H11626088   7.119   2.916   4.032  0.9505  1.7575 -0.3749
   87MOL   H11726089   6.826   2.940   4.011  0.1192  0.5454  2.5268
   87MOL   H11826090   6.669   2.838   3.894  1.2970  0.4744 -1.9986
   87MOL   H11926091   6.578   2.632   3.784  0.0215 -0.4171  1.0144
   87MOL   H12026092   6.713   2.415   3.806  0.8579 -0.0407  0.2781
   87MOL   H12126093   6.931   2.430   3.920  1.1616  0.1204  0.3059
   87MOL   C12226094   6.902   2.838   4.185  0.3823 -0.9371 -0.5346
   87MOL   C12326095   6.765   2.800   4.240  0.1084  0.0252  0.6012
   87MOL   C12426096   6.775   2.720   4.371  0.9300  0.0444 -0.1107
   87MOL   C12526097   6.840   2.781   4.484  0.3513 -0.0497 -0.1548
   87MOL   C12626098   6.871   2.696   4.595  0.7140 -0.7807 -0.8268
   87MOL   C12726099   6.841   2.556   4.583  0.0080 -0.3723  0.2284
   87MOL   C12826100   6.777   2.513   4.466 -0.0270 -0.3647 -0.1188
   87MOL   N12926101   6.743   2.593   4.364  0.4552  0.5078  0.0293
   87MOL   H13026102   6.929   2.926   4.242 -0.7774 -1.2110  0.4496
   87MOL   H13126103   6.981   2.765   4.206  2.0797  0.5711 -1.4945
   87MOL   H13226104   6.717   2.729   4.173 -1.3151  1.6746 -0.1612
   87MOL   H13326105   6.860   2.887   4.492 -0.6022  0.1685 -0.5597
   87MOL   H13426106   6.920   2.740   4.681 -1.0088 -0.1460 -0.1445
   87MOL   H13526107   6.860   2.482   4.660  0.0126 -3.0975 -2.3315
   87MOL   H13626108   6.759   2.407   4.456  2.6664 -0.7498 -1.7323
   87MOL   C13726109   6.660   2.917   4.246 -0.5011 -0.3520  0.8474
   87MOL   C13826110   6.524   2.886   4.321 -0.2642 -0.5579 -0.0275
   87MOL   C13926111   6.462   3.023   4.337  0.3281  0.4514 -0.2342
   87MOL   C14026112   6.433   3.065   4.463 -0.1846 -0.4038  0.4213
   87MOL   C14126113   6.341   3.173   4.478  0.1512 -0.0606 -0.8608
   87MOL   C14226114   6.297   3.238   4.359 -0.1345  0.4242  0.3212
   87MOL   C14326115   6.341   3.197   4.239 -0.8115 -0.1061  0.1245
   87MOL   N14426116   6.425   3.088   4.226 -0.1471  0.1929  0.1602
   87MOL   H14526117   6.641   2.938   4.140 -2.3022 -0.3643  1.1528
   87MOL   H14626118   6.718   2.997   4.293  1.3583  0.2859 -2.3605
   87MOL   H14726119   6.537   2.836   4.416  0.5518  0.5774  0.4675
   87MOL   H14826120   6.473   3.011   4.548  0.8852  1.1698  0.9476
   87MOL   H14926121   6.305   3.191   4.578  0.0533 -0.2983 -0.8542
   87MOL   H15026122   6.232   3.324   4.371  0.3058  1.2460 -2.6806
   87MOL   H15126123   6.314   3.247   4.147  1.1914  0.5282 -0.1275
   87MOL   C15226124   6.425   2.794   4.237  0.5321  0.0233  0.4692
   87MOL   C15326125   6.406   2.648   4.289  0.1374  0.0562  0.2060
   87MOL   C15426126   6.306   2.636   4.406  0.3008  0.6873  0.6581
   87MOL   C15526127   6.341   2.620   4.540  0.1097 -0.7315  0.5980
   87MOL   C15626128   6.245   2.623   4.641  0.3853 -0.1427  0.3036
   87MOL   C15726129   6.106   2.634   4.598 -0.6925  0.7791 -0.2260
   87MOL   C15826130   6.082   2.647   4.456  0.7462  0.4411  0.4476
   87MOL   N15926131   6.179   2.648   4.364  0.2250  0.3435  0.3300
   87MOL   H16026132   6.469   2.791   4.137  1.1209  0.1313  0.7222
   87MOL   H16126133   6.324   2.832   4.222 -0.1746 -1.5310  1.2287
   87MOL   H16226134   6.503   2.618   4.330 -0.3863 -1.1932  0.5671
   87MOL   H16326135   6.447   2.630   4.561  0.2527  2.4180 -1.3064
   87MOL   H16426136   6.267   2.618   4.747  2.3343 -1.9193 -0.1629
   87MOL   H16526137   6.023   2.622   4.667  1.2485 -1.5400  1.7706
   87MOL   H16626138   5.981   2.649   4.418  0.7096 -0.9847  0.4321
   87MOL   C16726139   6.390   2.537   4.168 -0.6723 -0.3640 -0.0431
   87MOL   C16826140   6.470   2.408   4.197 -0.2128  0.5670 -0.0163
   87MOL   C16926141   6.401   2.322   4.300  0.0272 -0.9861 -0.0450
   87MOL   C17026142   6.453   2.297   4.429 -0.3380  0.2796  0.2343
   87MOL   C17126143   6.377   2.216   4.514  0.3128 -0.7977 -0.4351
   87MOL   C17226144   6.259   2.158   4.469 -0.3300 -0.5467  0.7293
   87MOL   C17326145   6.225   2.185   4.333  0.3362  0.4775  0.4199
   87MOL   N17426146   6.286   2.274   4.257 -0.1344 -0.0516 -0.0215
   87MOL   H17526147   6.429   2.583   4.078  1.5690  0.7151  1.4232
   87MOL   H17626148   6.287   2.518   4.140  0.1343 -1.4646 -2.3609
   87MOL   H17726149   6.565   2.441   4.238 -1.8186  2.5478  2.2139
   87MOL   H17826150   6.547   2.341   4.458 -0.9015  1.3690  0.4390
   87MOL   H17926151   6.399   2.201   4.618  1.5801  1.9167 -0.2834
   87MOL   H18026152   6.191   2.106   4.535 -1.4467 -0.6781 -0.4945
   87MOL   H18126153   6.131   2.151   4.293  0.4196  1.4845 -0.6541
   87MOL   C18226154   6.499   2.327   4.069  0.3445  0.6713  0.2075
   87MOL   C18326155   6.567   2.186   4.074  0.1410  0.3952 -0.1954
   87MOL   C18426156   6.564   2.111   3.939  0.5139  0.1582 -0.1390
   87MOL   C18526157   6.465   2.017   3.920  0.3224 -0.0079  0.2425
   87MOL   C18626158   6.454   1.952   3.796  0.6599 -0.3479 -0.0702
   87MOL   C18726159   6.549   1.980   3.701 -0.1328 -1.0638  0.1732
   87MOL   C18826160   6.637   2.086   3.724  0.2647 -0.1505  0.2001
   87MOL   N18926161   6.645   2.149   3.844 -0.7787  0.4069 -0.4118
   87MOL   H19026162   6.560   2.386   3.999  1.8999 -0.4503  0.5953
   87MOL   H19126163   6.408   2.297   4.017  0.7912 -0.1011 -0.1436
   87MOL   H19226164   6.498   2.130   4.138 -0.9558  0.4450 -1.3282
   87MOL   H19326165   6.391   1.991   3.994  1.2868 -1.0700  0.8492
   87MOL   H19426166   6.392   1.866   3.773  0.5998 -0.2869 -0.1351
   87MOL   H19526167   6.549   1.934   3.603 -2.6088 -1.5706  0.3750
   87MOL   H19626168   6.702   2.125   3.648 -0.9020  3.1905  0.8585
   87MOL   C19726169   6.711   2.184   4.131  0.7147 -0.2931  0.9161
   87MOL   C19826170   6.766   2.046   4.158  0.8152 -0.3006  0.2398
   87MOL   C19926171   6.907   2.063   4.211  0.1980  0.1645  0.1578
   87MOL   C20026172   7.010   2.047   4.120 -0.5449  0.4349 -0.5943
   87MOL   C20126173   7.140   2.083   4.154  0.5103 -0.5521  0.9499
   87MOL   C20226174   7.158   2.142   4.277 -0.9480  0.9648  0.3409
   87MOL   C20326175   7.049   2.159   4.366 -0.2293  0.1155 -0.1528
   87MOL   N20426176   6.927   2.119   4.333  0.1084 -0.2264 -0.1036
   87MOL   H20526177   6.720   2.259   4.210 -1.5068  1.1250 -0.1528
   87MOL   H20626178   6.780   2.224   4.057 -0.0499 -0.2564  0.2268
   87MOL   H20726179   6.775   1.972   4.078 -2.1503 -0.9856  0.4899
   87MOL   H20826180   6.989   1.997   4.026  0.9526 -1.7446  0.1745
   87MOL   H20926181   7.222   2.078   4.084 -0.6717 -0.0147 -0.5134
   87MOL   H21026182   7.258   2.161   4.312 -1.1296 -0.2349  1.5277
   87MOL   H21126183   7.062   2.201   4.464 -1.7794  0.7415 -0.2040
   87MOL   C21226184   6.672   1.977   4.267  0.0421 -0.4804  0.5375
   87MOL   C21326185   6.730   1.869   4.362  0.3323 -0.1547  0.6492
   87MOL   C21426186   6.648   1.869   4.488 -0.1904 -0.0249 -1.1560
   87MOL   C21526187   6.710   1.919   4.606 -0.1764 -0.1821  0.2412
   87MOL   C21626188   6.629   1.931   4.727  0.2037  0.4461 -0.7273
   87MOL   C21726189   6.506   1.867   4.730  0.4306  0.4899  0.2296
   87MOL   C21826190   6.453   1.824   4.606  0.5908  0.0364  0.2558
   87MOL   N21926191   6.514   1.839   4.490 -0.8527  0.7924  0.5671
   87MOL   H22026192   6.587   1.934   4.214 -0.1241  1.6977 -1.0571
   87MOL   H22126193   6.633   2.053   4.334  0.9091  1.4602 -1.0949
   87MOL   H22226194   6.832   1.897   4.388  1.7896 -2.5925 -2.0672
   87MOL   H22326195   6.808   1.963   4.598 -1.0064  1.8503  0.9101
   87MOL   H22426196   6.670   1.973   4.818  0.2762  0.0973 -0.5985
   87MOL   H22526197   6.451   1.856   4.823 -0.5116 -0.4196 -0.4198
   87MOL   H22626198   6.352   1.787   4.594  0.6919 -0.3139  0.4920
   87MOL   C22726199   6.740   1.728   4.309  0.4053 -0.5987 -0.0424
   87MOL   C22826200   6.862   1.688   4.219 -0.1524  0.2491  0.1893
   87MOL   C22926201   6.990   1.676   4.293  0.5177 -0.0919  0.0450
   87MOL   C23026202   7.106   1.726   4.234  1.3666 -0.4982 -0.5267
   87MOL   C23126203   7.224   1.702   4.302 -0.2081 -0.3209  0.5376
   87MOL   C23226204   7.224   1.632   4.426 -0.3337 -0.2861 -0.5614
   87MOL   C23326205   7.103   1.594   4.480 -0.4211  0.2383  0.1066
   87MOL   N23426206   6.987   1.609   4.413 -0.3549  0.0996 -0.3631
   87MOL   H23526207   6.646   1.709   4.258  0.8047  3.3796 -2.4193
   87MOL   H23626208   6.744   1.662   4.396 -3.8028  0.7081  1.2903
   87MOL   H23726209   6.881   1.772   4.151 -1.5212  0.3941 -0.0159
   87MOL   H23826210   7.092   1.773   4.137  3.3273  1.2600 -0.0078
   87MOL   H23926211   7.317   1.745   4.266 -0.2105 -1.0098 -0.3113
   87MOL   H24026212   7.317   1.611   4.477 -0.3368  0.4100 -0.2665
   87MOL   H24126213   7.096   1.549   4.577  0.4164 -0.0999  0.0092
   87MOL   C24226214   6.820   1.565   4.136  0.1740 -0.3288 -0.7093
   87MOL   C24326215   6.761   1.600   4.000 -0.4351 -0.1457 -0.5036
   87MOL   C24426216   6.864   1.677   3.925 -0.6740  0.9047  0.0424
   87MOL   C24526217   6.829   1.800   3.864  0.2552 -0.0663 -0.9794
   87MOL   C24626218   6.922   1.874   3.787 -0.0515 -0.5303  0.3580
   87MOL   C24726219   7.050   1.819   3.765 -0.0243  1.0354  0.1786
   87MOL   C24826220   7.075   1.689   3.825 -1.0931  0.2245 -0.2091
   87MOL   N24926221   6.990   1.634   3.908 -0.3035  0.4510 -0.1712
   87MOL   H25026222   6.746   1.502   4.184  1.2793 -1.8713 -1.0077
   87MOL   H25126223   6.909   1.503   4.122 -0.4812 -1.3157 -0.5487
   87MOL   H25226224   6.671   1.660   4.010 -1.4176 -1.9283  2.0498
   87MOL   H25326225   6.732   1.840   3.891  1.6139  2.6075  0.1513
   87MOL   H25426226   6.898   1.966   3.735 -1.2565 -0.5027  0.9440
   87MOL   H25526227   7.124   1.858   3.697  0.3863  0.8788  0.5303
   87MOL   H25626228   7.173   1.647   3.813 -1.0227  0.2054  0.4323
   87MOL   C25726229   6.725   1.472   3.923  0.2397  0.2646  0.3964
   87MOL   C25826230   6.600   1.391   3.964  0.4190  0.3846 -0.1879
   87MOL   C25926231   6.484   1.451   3.886  0.0510  0.8708 -0.1913
   87MOL   C26026232   6.425   1.391   3.775  0.2398  0.6036 -0.4757
   87MOL   C26126233   6.308   1.446   3.715 -0.6509 -0.3635 -0.3867
   87MOL   C26226234   6.268   1.570   3.767 -0.3546  0.0872  0.0205
   87MOL   C26326235   6.341   1.632   3.873  0.3126 -0.4507  0.1969
   87MOL   N26426236   6.439   1.564   3.939  0.1585  0.1036 -0.1004
   87MOL   H26526237   6.817   1.413   3.921  0.9552  1.3757 -2.4770
   87MOL   H26626238   6.713   1.493   3.817 -0.8068  0.2840  0.5111
   87MOL   H26726239   6.579   1.421   4.067  1.6318 -0.9586  0.4511
   87MOL   H26826240   6.463   1.298   3.735 -0.1373 -0.0383  0.6413
   87MOL   H26926241   6.258   1.406   3.628  0.5479  0.3179 -1.4045
   87MOL   H27026242   6.176   1.612   3.727 -0.8273 -2.2895 -1.5093
   87MOL   H27126243   6.296   1.721   3.916 -1.3385 -0.8871 -0.5749
   87MOL   C27226244   6.622   1.240   3.929 -1.1966  0.7701 -0.3667
   87MOL   C27326245   6.729   1.161   4.007  0.0533 -0.6561 -0.5638
   87MOL   C27426246   6.728   1.194   4.158 -0.4950  0.7116  0.7336
   87MOL   C27526247   6.845   1.248   4.217 -0.1929  0.3823 -0.6222
   87MOL   C27626248   6.842   1.280   4.353  0.1065 -0.7598  0.6245
   87MOL   C27726249   6.724   1.259   4.426  1.3887  0.2840 -0.0709
   87MOL   C27826250   6.607   1.219   4.357  0.5865 -0.0272  0.6394
   87MOL   N27926251   6.611   1.172   4.228  0.9672 -0.4484  0.3644
   87MOL   H28026252   6.649   1.241   3.824 -0.8018  0.3811 -0.2673
   87MOL   H28126253   6.528   1.186   3.939  0.0658 -1.0577  2.2262
   87MOL   H28226254   6.824   1.193   3.962  1.9775 -1.2410  2.8883
   87MOL   H28326255   6.935   1.263   4.158  1.0944 -1.0938  0.9308
   87MOL   H28426256   6.928   1.324   4.399  0.3758  0.6583 -1.1702
   87MOL   H28526257   6.727   1.283   4.531 -1.7352 -0.2884  0.1795
   87MOL   H28626258   6.509   1.218   4.403  1.0027 -1.2984  1.5242
   87MOL   C28726259   6.711   1.011   3.987 -0.7379 -0.2203  0.0643
   87MOL   C28826260   6.831   0.932   4.027  0.0042 -0.3531 -0.5508
   87MOL   C28926261   6.825   0.794   3.972 -0.2604 -0.3753 -0.5163
   87MOL   C29026262   6.798   0.688   4.055  0.0191 -0.3466  1.4197
   87MOL   C29126263   6.786   0.556   3.997  0.1845 -0.6675 -0.4219
   87MOL   C29226264   6.789   0.545   3.857  0.4795 -0.1264  0.0593
   87MOL   C29326265   6.825   0.662   3.785  0.4534 -0.1461 -0.1496
   87MOL   N29426266   6.843   0.784   3.836  0.1104  0.1523 -0.5200
   87MOL   H29526267   6.693   1.010   3.879  0.5018  2.0038 -0.1847
   87MOL   H29626268   6.622   0.970   4.036 -0.0118  0.5140  2.0375
   87MOL   H29726269   6.840   0.928   4.136 -0.2767 -0.5887 -0.5367
   87MOL   H29826270   6.789   0.714   4.160  0.6439  0.5206  1.2695
   87MOL   H29926271   6.772   0.466   4.056  0.4059  0.0781  0.7785
   87MOL   H30026272   6.777   0.449   3.808 -0.0272  0.4262 -0.9155
   87MOL   H30126273   6.821   0.653   3.678  0.2162  1.4526 -0.2880
   87MOL   H30226274   6.922   0.974   3.984 -1.4491  0.8743 -2.4745
   88MOL     C126275   5.578   2.535   2.044 -0.2748  0.0493  0.5949
   88MOL     C226276   5.468   2.619   2.109  0.4505 -0.6831  0.4939
   88MOL     C326277   5.384   2.696   2.008  0.1389 -0.6548 -0.1429
   88MOL     C426278   5.369   2.835   2.027 -0.9811  0.7242 -0.2162
   88MOL     C526279   5.301   2.901   1.929 -0.4234 -0.2858  0.1713
   88MOL     C626280   5.236   2.834   1.826  0.3037 -0.4798 -0.4016
   88MOL     C726281   5.243   2.696   1.828  0.1769  0.2333 -0.2938
   88MOL     N826282   5.317   2.626   1.915  0.0291  0.2620  0.1419
   88MOL     H926283   5.543   2.460   1.972 -2.0870  2.7568 -1.4399
   88MOL    H1026284   5.657   2.597   2.003 -0.5803  1.0255  1.4874
   88MOL    H1126285   5.528   2.695   2.160 -1.0062 -1.0854  2.8691
   88MOL    H1226286   5.422   2.892   2.103  3.3027 -2.6140 -0.4924
   88MOL    H1326287   5.291   3.008   1.944  1.4130 -0.1065  0.1624
   88MOL    H1426288   5.177   2.878   1.748  1.1780 -2.2888 -2.1310
   88MOL    H1526289   5.192   2.634   1.755  2.8639 -1.5451 -0.7350
   88MOL    H1626290   5.622   2.472   2.121  4.3150  1.5027 -0.6874
   88MOL    C1726291   5.384   2.550   2.220 -0.1681 -0.0572  0.2914
   88MOL    C1826292   5.278   2.638   2.290  0.5235  0.1496  0.0030
   88MOL    C1926293   5.186   2.553   2.384 -0.1574 -0.9642 -0.7975
   88MOL    C2026294   5.049   2.552   2.367 -0.2040  0.1304  0.0161
   88MOL    C2126295   4.968   2.476   2.453  0.4715 -0.5822 -0.6813
   88MOL    C2226296   5.024   2.383   2.541 -0.0047  0.1618 -0.4034
   88MOL    C2326297   5.162   2.377   2.546 -0.9318 -0.1014 -0.6018
   88MOL    N2426298   5.241   2.464   2.470 -0.6963  0.0901 -0.0601
   88MOL    H2526299   5.456   2.501   2.286 -1.3155 -0.3561  1.3341
   88MOL    H2626300   5.333   2.460   2.188  0.3587 -0.1470 -0.3125
   88MOL    H2726301   5.212   2.684   2.216  0.4553 -1.1002 -0.7333
   88MOL    H2826302   5.006   2.614   2.289  0.0927  0.2738 -0.0361
   88MOL    H2926303   4.862   2.480   2.438  0.4274 -2.3760 -0.9775
   88MOL    H3026304   4.966   2.312   2.597 -0.1348  0.4227 -0.2057
   88MOL    H3126305   5.207   2.327   2.631  0.0916 -1.6106 -1.9937
   88MOL    C3226306   5.349   2.745   2.368 -0.4303 -0.4720 -0.8269
   88MOL    C3326307   5.267   2.860   2.429 -0.4676 -0.7877  0.8885
   88MOL    C3426308   5.200   2.945   2.316  0.1799 -0.0613  0.6778
   88MOL    C3526309   5.254   3.073   2.299 -0.3874 -0.5337  0.2926
   88MOL    C3626310   5.195   3.158   2.209  0.5742  0.2781  0.6549
   88MOL    C3726311   5.076   3.118   2.146 -0.3006  0.2873  0.3312
   88MOL    C3826312   5.035   2.984   2.161 -0.1008 -0.4603 -0.7591
   88MOL    N3926313   5.096   2.899   2.246  0.0286 -0.9792 -0.3314
   88MOL    H4026314   5.417   2.794   2.299 -1.7185  0.7129 -1.2802
   88MOL    H4126315   5.399   2.700   2.454 -2.4490 -0.4644  0.3743
   88MOL    H4226316   5.340   2.926   2.476  0.0488 -1.9923  1.7924
   88MOL    H4326317   5.349   3.101   2.341  0.9517 -1.4324 -1.9989
   88MOL    H4426318   5.237   3.255   2.188 -0.1437  0.1977 -1.2414
   88MOL    H4526319   5.023   3.184   2.079 -0.8414 -0.0057  0.4707
   88MOL    H4626320   4.954   2.953   2.097  0.1590 -0.3527 -1.1399
   88MOL    C4726321   5.170   2.832   2.543 -0.5912  0.6434  0.1515
   88MOL    C4826322   5.237   2.752   2.661 -0.5893 -0.8571  0.7808
   88MOL    C4926323   5.344   2.842   2.734 -0.7276  0.1151  0.8165
   88MOL    C5026324   5.310   2.967   2.783 -0.4681  0.0512 -0.0911
   88MOL    C5126325   5.411   3.047   2.839 -0.1435 -0.3628  0.1583
   88MOL    C5226326   5.543   3.002   2.838  0.5768 -0.0795  0.2431
   88MOL    C5326327   5.571   2.871   2.783  0.5478 -0.5988 -0.1259
   88MOL    N5426328   5.471   2.799   2.724  0.2222 -0.1617  0.1938
   88MOL    H5526329   5.082   2.784   2.500 -0.6300  0.1427  0.7943
   88MOL    H5626330   5.135   2.926   2.585  0.1687  1.0019 -0.0113
   88MOL    H5726331   5.290   2.665   2.622  1.8319  1.4216 -1.1932
   88MOL    H5826332   5.208   3.003   2.790 -1.2187 -1.9699 -0.4385
   88MOL    H5926333   5.391   3.144   2.883  0.3187 -0.4598  0.5856
   88MOL    H6026334   5.616   3.070   2.878 -0.8962  1.5340  0.2386
   88MOL    H6126335   5.671   2.830   2.779 -0.5518 -3.4115  0.2663
   88MOL    C6226336   5.126   2.696   2.750  0.3461  0.0572 -0.6066
   88MOL    C6326337   5.174   2.597   2.860  0.2549  0.3256 -0.2598
   88MOL    C6426338   5.223   2.676   2.979 -0.0794 -0.7893  0.1010
   88MOL    C6526339   5.359   2.651   3.026 -0.2477  0.0972 -0.1146
   88MOL    C6626340   5.405   2.713   3.143 -0.5776  0.1909  0.1182
   88MOL    C6726341   5.314   2.797   3.212 -0.1456  0.1504 -0.4009
   88MOL    C6826342   5.185   2.818   3.165 -0.7247  0.4374  0.2562
   88MOL    N6926343   5.137   2.756   3.051 -0.0234 -0.1215  0.7337
   88MOL    H7026344   5.054   2.637   2.692 -0.9722  0.3183  0.7248
   88MOL    H7126345   5.066   2.773   2.798  0.2949 -2.0438  2.8212
   88MOL    H7226346   5.254   2.537   2.817 -0.8266 -0.9856 -0.4967
   88MOL    H7326347   5.426   2.581   2.977 -0.6861  0.5288 -1.3501
   88MOL    H7426348   5.502   2.694   3.186 -0.7650  1.1873  0.9982
   88MOL    H7526349   5.347   2.822   3.312 -0.0879 -1.8767  0.1085
   88MOL    H7626350   5.114   2.881   3.217 -2.1080  0.4065 -1.5476
   88MOL    C7726351   5.059   2.494   2.885 -0.4666  0.4307 -0.3172
   88MOL    C7826352   5.071   2.401   3.008  0.4418  0.7038  0.0456
   88MOL    C7926353   4.938   2.323   3.019 -0.2318 -0.6495 -0.3923
   88MOL    C8026354   4.908   2.216   2.931  0.3427  0.3339  0.5018
   88MOL    C8126355   4.787   2.145   2.953 -0.1779  0.1789  0.0607
   88MOL    C8226356   4.701   2.198   3.050  0.6900 -0.3006 -0.4673
   88MOL    C8326357   4.742   2.306   3.134 -0.4353 -1.2231 -1.1559
   88MOL    N8426358   4.855   2.370   3.118 -0.5725  0.3762 -0.0559
   88MOL    H8526359   5.041   2.420   2.807 -0.7484 -1.1297  1.1917
   88MOL    H8626360   4.972   2.554   2.907 -1.2908 -0.4142 -1.2122
   88MOL    H8726361   5.094   2.460   3.096  1.6805  0.1321  0.1139
   88MOL    H8826362   4.977   2.187   2.853 -1.1169 -2.4224  0.1644
   88MOL    H8926363   4.754   2.071   2.882  0.4021  0.5647 -0.6180
   88MOL    H9026364   4.601   2.158   3.061  1.1179 -1.1785  0.2663
   88MOL    H9126365   4.674   2.342   3.210  1.0427 -0.2966 -0.2404
   88MOL    C9226366   5.192   2.306   2.994  0.5814 -0.3824 -0.2013
   88MOL    C9326367   5.197   2.184   3.095 -0.3200 -0.6201 -0.1448
   88MOL    C9426368   5.324   2.104   3.054  0.5103 -0.3144 -0.1527
   88MOL    C9526369   5.319   1.972   3.005  0.3220 -0.3318  0.6322
   88MOL    C9626370   5.440   1.911   2.974 -0.0290  0.8674  0.1490
   88MOL    C9726371   5.560   1.983   2.980  0.4916  0.4291  0.1326
   88MOL    C9826372   5.560   2.116   3.017  0.1364  0.2175  0.1514
   88MOL    N9926373   5.444   2.170   3.056 -0.4874 -0.4981 -0.0134
   88MOL   H10026374   5.281   2.367   3.010 -0.9935  1.5359  1.4793
   88MOL   H10126375   5.198   2.265   2.893 -0.4443 -2.5083  0.5627
   88MOL   H10226376   5.104   2.130   3.078 -0.9269  0.4739 -0.3450
   88MOL   H10326377   5.223   1.923   2.998 -0.4284  0.8917  2.1438
   88MOL   H10426378   5.445   1.811   2.933 -2.6074  1.0687 -0.7514
   88MOL   H10526379   5.655   1.935   2.959  0.2779  1.4370 -3.3265
   88MOL   H10626380   5.647   2.179   3.005  0.7738 -1.0814 -2.2347
   88MOL   C10726381   5.201   2.222   3.245 -0.4785  0.1648  0.4142
   88MOL   C10826382   5.215   2.098   3.345 -0.0805  0.8168  0.8600
   88MOL   C10926383   5.292   2.110   3.480 -0.5204 -0.3580 -0.2985
   88MOL   C11026384   5.410   2.042   3.506  0.1872 -0.0045 -0.5538
   88MOL   C11126385   5.466   2.054   3.633 -0.2187 -0.6437 -0.8622
   88MOL   C11226386   5.402   2.127   3.735 -0.1732  0.7992 -0.4039
   88MOL   C11326387   5.277   2.176   3.698  0.2051  0.1931  0.2323
   88MOL   N11426388   5.225   2.173   3.574  0.5337 -0.2524  0.0569
   88MOL   H11526389   5.127   2.297   3.269 -2.3344 -1.2304 -0.8203
   88MOL   H11626390   5.294   2.278   3.249 -0.1925 -0.1632 -1.1672
   88MOL   H11726391   5.286   2.023   3.311 -0.4810  0.4162  0.9008
   88MOL   H11826392   5.450   1.975   3.431  0.6710 -0.2302 -0.0958
   88MOL   H11926393   5.556   1.999   3.654 -0.8741 -0.2470  3.4590
   88MOL   H12026394   5.443   2.136   3.834  0.4006 -3.1912 -0.2106
   88MOL   H12126395   5.224   2.224   3.778  0.7508 -2.3985  2.1846
   88MOL   C12226396   5.081   2.024   3.349  0.1519 -0.4036 -0.0765
   88MOL   C12326397   5.070   1.907   3.446 -0.0602  0.0925  0.4748
   88MOL   C12426398   4.926   1.879   3.488  0.2076 -0.3057 -0.4517
   88MOL   C12526399   4.881   1.896   3.619  0.2139  0.0738  0.0685
   88MOL   C12626400   4.757   1.851   3.663 -0.9523 -0.2147  0.0692
   88MOL   C12726401   4.673   1.799   3.559 -0.6169  0.6029 -0.0088
   88MOL   C12826402   4.722   1.787   3.424  0.3943 -0.3862 -0.2368
   88MOL   N12926403   4.846   1.820   3.394 -0.4467  0.3165 -0.3872
   88MOL   H13026404   5.058   1.988   3.248  1.8428  2.0546 -1.3987
   88MOL   H13126405   5.008   2.098   3.381 -0.1941 -0.5030 -0.6291
   88MOL   H13226406   5.103   1.946   3.543 -1.7095  0.9948  0.6956
   88MOL   H13326407   4.946   1.943   3.691  0.0124  0.4196  0.0251
   88MOL   H13426408   4.729   1.867   3.766 -0.3904  2.5630 -0.1618
   88MOL   H13526409   4.570   1.776   3.581  0.1395 -0.2961  2.7242
   88MOL   H13626410   4.669   1.744   3.340 -1.6720  0.1946  0.7340
   88MOL   C13726411   5.147   1.782   3.406 -0.6911 -0.6995  0.3721
   88MOL   C13826412   5.134   1.675   3.512 -0.5066  0.1199 -1.0141
   88MOL   C13926413   5.161   1.530   3.457  0.1445  0.0213 -0.4854
   88MOL   C14026414   5.063   1.433   3.425  0.1073  0.0998 -0.5039
   88MOL   C14126415   5.098   1.307   3.380 -0.8565 -0.3268 -0.2811
   88MOL   C14226416   5.233   1.280   3.356  0.1673 -0.5660  0.1525
   88MOL   C14326417   5.328   1.378   3.390  0.2884 -0.3192 -0.1730
   88MOL   N14426418   5.292   1.497   3.439  0.1877 -0.2438  0.0161
   88MOL   H14526419   5.255   1.798   3.398 -0.5609 -2.1093 -0.9507
   88MOL   H14626420   5.112   1.741   3.311  1.1480  0.7774 -1.0064
   88MOL   H14726421   5.031   1.665   3.547 -0.6619  0.0361 -1.4919
   88MOL   H14826422   4.957   1.455   3.433  0.3261  0.8870  0.2251
   88MOL   H14926423   5.023   1.235   3.352 -3.0200  1.3943  0.9096
   88MOL   H15026424   5.274   1.187   3.319  0.8523 -0.4052  0.4983
   88MOL   H15126425   5.435   1.373   3.389  0.3990  1.4900  0.5604
   88MOL   C15226426   5.208   1.710   3.637 -0.2375 -0.2799 -0.2349
   88MOL   C15326427   5.191   1.612   3.755  0.4181 -0.1809  0.9482
   88MOL   C15426428   5.316   1.620   3.841 -0.0286  0.2097  0.5832
   88MOL   C15526429   5.408   1.516   3.839  0.4447 -0.0499 -0.4560
   88MOL   C15626430   5.528   1.533   3.912 -0.1830 -0.4777  0.0685
   88MOL   C15726431   5.540   1.638   3.997  0.7534 -0.1845  0.1468
   88MOL   C15826432   5.438   1.737   4.001  0.4450 -0.0940  0.2008
   88MOL   N15926433   5.336   1.736   3.914 -0.2288 -0.4978  0.3718
   88MOL   H16026434   5.189   1.811   3.674 -4.5437 -1.9178  2.3818
   88MOL   H16126435   5.311   1.712   3.600 -0.3238  0.3193 -0.4593
   88MOL   H16226436   5.190   1.509   3.718 -0.6641  0.2537 -0.2983
   88MOL   H16326437   5.383   1.431   3.778 -2.3906  1.0841 -0.9712
   88MOL   H16426438   5.612   1.466   3.906  0.1373  0.0301 -1.4462
   88MOL   H16526439   5.632   1.652   4.053 -0.0104  2.0581  0.8869
   88MOL   H16626440   5.450   1.830   4.054  0.4136  0.8507 -1.4084
   88MOL   C16726441   5.057   1.632   3.829  1.2187 -0.1526 -0.1950
   88MOL   C16826442   5.022   1.520   3.930  0.0679  0.2070 -0.2346
   88MOL   C16926443   4.908   1.569   4.027 -0.4985  0.1457  0.5762
   88MOL   C17026444   4.908   1.559   4.166 -0.2044 -0.1382  0.3458
   88MOL   C17126445   4.787   1.573   4.236  0.0704 -1.5096 -0.0843
   88MOL   C17226446   4.670   1.622   4.168  0.2334  0.4229 -0.0437
   88MOL   C17326447   4.684   1.648   4.030  0.7359 -0.1810 -0.0414
   88MOL   N17426448   4.801   1.624   3.969 -0.3538  0.4907 -0.0645
   88MOL   H17526449   4.970   1.636   3.763  1.1458  0.3307 -0.0681
   88MOL   H17626450   5.058   1.730   3.875  3.4518 -0.1099 -0.2738
   88MOL   H17726451   5.116   1.500   3.982  0.2065 -0.2865 -0.6667
   88MOL   H17826452   5.002   1.534   4.213  0.1090 -2.2906 -1.3748
   88MOL   H17926453   4.793   1.551   4.342  0.7794  0.0608  0.2137
   88MOL   H18026454   4.574   1.640   4.214 -0.3406 -4.4490  0.9559
   88MOL   H18126455   4.608   1.682   3.961  1.7535 -1.6615 -1.9289
   88MOL   C18226456   4.987   1.387   3.857 -0.4553  0.2924 -0.4324
   88MOL   C18326457   4.952   1.265   3.955  1.0968 -0.1378  0.3831
   88MOL   C18426458   4.804   1.246   3.980 -0.3339  0.9519 -0.2729
   88MOL   C18526459   4.759   1.257   4.115 -0.0876 -0.3619 -0.2757
   88MOL   C18626460   4.629   1.241   4.140 -0.3425 -0.2994 -0.9423
   88MOL   C18726461   4.537   1.222   4.033 -0.3569 -0.1998  0.0708
   88MOL   C18826462   4.591   1.205   3.905  0.1624 -0.6669 -0.5938
   88MOL   N18926463   4.722   1.217   3.877  0.1186 -0.4264  0.7338
   88MOL   H19026464   5.082   1.360   3.811  0.3522 -2.8181  2.8548
   88MOL   H19126465   4.918   1.398   3.773 -0.5735 -1.4051 -0.5773
   88MOL   H19226466   5.000   1.290   4.050  0.0357  1.2228  0.5740
   88MOL   H19326467   4.827   1.298   4.188 -0.0694 -0.5501 -0.1893
   88MOL   H19426468   4.597   1.254   4.242  2.0663  0.4263 -0.2532
   88MOL   H19526469   4.432   1.213   4.052 -0.1604 -3.6134 -0.1478
   88MOL   H19626470   4.525   1.200   3.820  1.6549 -0.8938 -1.7587
   88MOL   C19726471   5.025   1.129   3.905 -0.0868 -0.0768 -0.3657
   88MOL   C19826472   5.181   1.125   3.913 -0.4156 -0.7815 -0.1985
   88MOL   C19926473   5.224   1.171   4.052 -1.0818  0.1039 -0.2632
   88MOL   C20026474   5.212   1.083   4.168  0.3172 -0.2620 -0.1242
   88MOL   C20126475   5.262   1.132   4.294 -0.1694 -0.3871 -0.2713
   88MOL   C20226476   5.319   1.260   4.297  0.9976  0.7141 -0.1136
   88MOL   C20326477   5.324   1.333   4.179 -0.3185  0.0177 -0.3499
   88MOL   N20426478   5.284   1.295   4.058 -0.1226 -0.2001  0.5994
   88MOL   H20526479   4.984   1.091   3.811  0.5244 -1.3834 -0.1040
   88MOL   H20626480   4.986   1.058   3.977 -0.0572 -2.4123 -2.6144
   88MOL   H20726481   5.222   1.192   3.838 -0.7559 -0.0479  0.2700
   88MOL   H20826482   5.171   0.983   4.173 -0.0707 -0.1204 -0.4652
   88MOL   H20926483   5.237   1.072   4.381  0.6365 -0.5334 -0.1389
   88MOL   H21026484   5.339   1.312   4.390 -0.9314  2.2829 -0.5497
   88MOL   H21126485   5.367   1.432   4.179  0.2191 -0.1696 -2.8578
   88MOL   C21226486   5.240   0.982   3.881  0.6635  0.0875  0.0878
   88MOL   C21326487   5.396   0.994   3.876  0.2238 -0.3104 -0.5249
   88MOL   C21426488   5.453   0.861   3.924  0.1995 -1.4552 -0.5397
   88MOL   C21526489   5.535   0.852   4.033  0.6402  0.4065  0.0821
   88MOL   C21626490   5.609   0.738   4.058  0.1846  0.1031 -0.0811
   88MOL   C21726491   5.611   0.633   3.964  0.4519 -0.0019  0.4164
   88MOL   C21826492   5.507   0.649   3.865  0.2383  0.2740  1.0087
   88MOL   N21926493   5.426   0.750   3.855 -0.1622  0.0895 -0.2845
   88MOL   H22026494   5.191   0.949   3.789  1.4787 -0.8562 -0.0181
   88MOL   H22126495   5.214   0.900   3.948 -2.5700  1.4709  0.6004
   88MOL   H22226496   5.427   1.071   3.946 -1.2279 -0.9547  0.8541
   88MOL   H22326497   5.542   0.933   4.103  1.6025 -0.4259  0.9784
   88MOL   H22426498   5.680   0.740   4.140 -0.4687 -0.4117  0.5077
   88MOL   H22526499   5.677   0.548   3.961  2.7743  1.7639  0.0693
   88MOL   H22626500   5.483   0.570   3.795  2.4816  1.6409 -1.4317
   88MOL   C22726501   5.454   1.039   3.737  0.1934 -0.1414 -0.4185
   88MOL   C22826502   5.611   1.037   3.728  0.7652  0.4207  0.6163
   88MOL   C22926503   5.664   1.080   3.588  0.0107 -0.7131 -0.4153
   88MOL   C23026504   5.731   0.990   3.504  0.2948 -0.0149  0.2664
   88MOL   C23126505   5.782   1.043   3.383 -0.3542 -0.1662 -0.6528
   88MOL   C23226506   5.749   1.176   3.347  0.0789 -0.1650  0.3804
   88MOL   C23326507   5.680   1.254   3.435  0.8588  0.4679  0.6906
   88MOL   N23426508   5.638   1.209   3.554 -0.7357 -0.6848  0.7579
   88MOL   H23526509   5.416   1.141   3.728 -0.5408 -0.4874 -1.4063
   88MOL   H23626510   5.415   0.981   3.653 -0.2377  0.3440 -0.5635
   88MOL   H23726511   5.639   0.932   3.730  0.0288  0.1792 -1.2161
   88MOL   H23826512   5.749   0.888   3.533 -0.5309 -0.9012 -2.2264
   88MOL   H23926513   5.844   0.984   3.317  1.0187  1.1363 -0.5492
   88MOL   H24026514   5.788   1.213   3.253  0.4637 -3.2491 -0.7036
   88MOL   H24126515   5.670   1.353   3.395  1.5076 -0.6137 -2.3116
   88MOL   C24226516   5.680   1.114   3.843 -0.0352 -0.0609  0.3922
   88MOL   C24326517   5.836   1.102   3.846 -0.2262  0.4701  0.2803
   88MOL   C24426518   5.898   1.228   3.907 -0.0796  0.1096 -0.3445
   88MOL   C24526519   5.934   1.343   3.834  0.3378  0.0651  0.0750
   88MOL   C24626520   5.995   1.450   3.908 -0.6823  0.5490 -0.1199
   88MOL   C24726521   6.003   1.447   4.045 -0.0326 -0.3394 -0.5468
   88MOL   C24826522   5.956   1.331   4.108 -0.1702  0.4811 -0.3404
   88MOL   N24926523   5.906   1.225   4.039  0.0065 -0.4787 -0.3426
   88MOL   H25026524   5.646   1.080   3.941  0.5240  1.0007  0.9525
   88MOL   H25126525   5.647   1.218   3.844 -0.3507 -0.1320 -1.0154
   88MOL   H25226526   5.863   1.117   3.742  0.0446  0.0338  0.2874
   88MOL   H25326527   5.939   1.344   3.726 -1.5835  0.3592 -0.0293
   88MOL   H25426528   6.007   1.544   3.854 -2.5943  0.2857 -1.0560
   88MOL   H25526529   6.041   1.523   4.111  0.0624 -1.5527  0.8161
   88MOL   H25626530   5.971   1.318   4.214 -1.2641 -2.0136 -0.4586
   88MOL   C25726531   5.898   0.966   3.878 -0.3396 -0.0831 -0.5013
   88MOL   C25826532   6.049   0.942   3.865 -0.4021  0.6766 -0.1679
   88MOL   C25926533   6.123   1.010   3.979 -0.8055 -0.0094  0.5720
   88MOL   C26026534   6.204   1.121   3.951  0.3184  0.2859 -0.0571
   88MOL   C26126535   6.270   1.177   4.059  0.2695  0.3587  0.5019
   88MOL   C26226536   6.260   1.123   4.189 -0.0074 -0.1618 -0.3182
   88MOL   C26326537   6.170   1.016   4.204 -0.7816  0.2914  0.3573
   88MOL   N26426538   6.112   0.948   4.104 -0.4428 -0.2590  0.5151
   88MOL   H26526539   5.859   0.884   3.818  1.8866 -1.9555  0.5225
   88MOL   H26626540   5.881   0.927   3.978  4.0805 -0.1600  0.3129
   88MOL   H26726541   6.066   0.987   3.767  3.2217 -0.9138 -0.3447
   88MOL   H26826542   6.210   1.168   3.854  1.3969  1.6673  0.6565
   88MOL   H26926543   6.328   1.266   4.041  0.6337 -0.0369 -0.2683
   88MOL   H27026544   6.320   1.161   4.270  0.1397 -1.6867  0.3181
   88MOL   H27126545   6.172   0.954   4.292  0.1529 -1.2293 -0.7118
   88MOL   C27226546   6.097   0.792   3.855 -0.0826  0.4511  0.0992
   88MOL   C27326547   6.253   0.776   3.854  0.0822 -0.6276  0.2662
   88MOL   C27426548   6.298   0.630   3.880  0.1845  0.3441  0.4098
   88MOL   C27526549   6.357   0.593   3.996 -0.5753 -0.1306 -1.2053
   88MOL   C27626550   6.412   0.464   4.007 -0.7840  0.2830 -0.5969
   88MOL   C27726551   6.395   0.371   3.904  0.1896 -0.4187  0.0218
   88MOL   C27826552   6.321   0.416   3.794  0.3729 -0.1367  0.9880
   88MOL   N27926553   6.276   0.540   3.779  0.5471  0.7150  0.1428
   88MOL   H28026554   6.058   0.746   3.765 -1.1711  0.3304  0.6287
   88MOL   H28126555   6.060   0.734   3.940  0.1178 -2.8329 -1.9673
   88MOL   H28226556   6.290   0.839   3.935 -0.6866 -1.1945  1.0661
   88MOL   H28326557   6.375   0.666   4.074 -0.6339  0.3773 -1.6659
   88MOL   H28426558   6.459   0.428   4.097 -1.7883 -1.0214 -0.5801
   88MOL   H28526559   6.426   0.267   3.909  3.2213  0.4338 -0.4973
   88MOL   H28626560   6.318   0.356   3.705 -0.1146  1.4906 -0.1055
   88MOL   C28726561   6.317   0.828   3.721  0.8110  0.1502  0.3325
   88MOL   C28826562   6.466   0.855   3.737 -0.5572  0.4535  1.5993
   88MOL   C28926563   6.527   0.931   3.619  0.0640  0.0617 -0.4740
   88MOL   C29026564   6.635   0.881   3.548  0.1314 -0.3372 -0.3131
   88MOL   C29126565   6.704   0.970   3.463  0.9942  0.4519  0.0544
   88MOL   C29226566   6.650   1.096   3.437  0.2587 -0.2514 -0.7544
   88MOL   C29326567   6.540   1.137   3.516 -0.5902 -0.2216  0.3445
   88MOL   N29426568   6.480   1.055   3.601 -0.1805 -0.0462 -0.5358
   88MOL   H29526569   6.261   0.914   3.685  0.4704 -0.5699 -0.8834
   88MOL   H29626570   6.300   0.764   3.634  1.9073 -0.3692  0.4878
   88MOL   H29726571   6.519   0.761   3.754  0.4110  0.8722  0.9798
   88MOL   H29826572   6.678   0.782   3.560  1.8930  0.2930 -1.2950
   88MOL   H29926573   6.790   0.937   3.407  0.9136  1.1658 -0.4952
   88MOL   H30026574   6.697   1.159   3.363 -0.3316  1.4709  0.3045
   88MOL   H30126575   6.490   1.233   3.508 -2.5161 -1.1255  1.1741
   88MOL   H30226576   6.498   0.908   3.827  0.5945 -0.1700  1.5726
   89MOL     C126577   1.041   1.192   2.572 -0.3112 -0.1926 -0.1166
   89MOL     C226578   1.103   1.320   2.627 -0.2023  0.2948 -1.5382
   89MOL     C326579   1.042   1.353   2.764  0.0771  1.2423  0.0995
   89MOL     C426580   0.960   1.463   2.778  0.0788  0.1046 -0.3850
   89MOL     C526581   0.883   1.477   2.892 -0.3096  0.5967 -0.4213
   89MOL     C626582   0.898   1.378   2.992  0.6429  0.2352 -0.7033
   89MOL     C726583   0.989   1.277   2.975  0.3245 -0.1127 -0.1345
   89MOL     N826584   1.062   1.262   2.864 -0.2337 -0.7932 -0.5751
   89MOL     H926585   1.096   1.115   2.627  0.7448  0.8219  0.2464
   89MOL    H1026586   0.934   1.184   2.591 -0.7498  2.5859 -1.2394
   89MOL    H1126587   1.082   1.398   2.554  0.2934  1.4832 -0.4272
   89MOL    H1226588   0.944   1.542   2.706 -0.8794  1.1326  0.9300
   89MOL    H1326589   0.833   1.572   2.902  2.2331  2.2873 -3.0562
   89MOL    H1426590   0.843   1.381   3.086  1.6031 -0.3406 -0.1135
   89MOL    H1526591   1.023   1.217   3.058  0.1655  1.1519  0.8448
   89MOL    H1626592   1.064   1.196   2.466 -1.7295 -1.4849 -0.4939
   89MOL    C1726593   1.256   1.312   2.638  0.0659 -0.4058  0.0698
   89MOL    C1826594   1.330   1.279   2.512 -0.1797 -0.1890 -0.2041
   89MOL    C1926595   1.285   1.362   2.393 -0.8766  0.0484  0.0123
   89MOL    C2026596   1.234   1.297   2.279 -0.0199  0.3838  0.1196
   89MOL    C2126597   1.227   1.370   2.158 -0.3177  0.1736 -0.2610
   89MOL    C2226598   1.273   1.502   2.155 -0.6149  0.9042  0.1069
   89MOL    C2326599   1.309   1.566   2.273 -0.9922 -0.0237 -0.3954
   89MOL    N2426600   1.323   1.495   2.393  0.0898  0.2492 -0.0866
   89MOL    H2526601   1.291   1.238   2.710  1.4479 -0.1090 -0.2829
   89MOL    H2626602   1.294   1.410   2.668  0.4525  0.3392 -2.7167
   89MOL    H2726603   1.309   1.176   2.480  0.7554 -0.6100  0.5291
   89MOL    H2826604   1.196   1.196   2.280  0.0979  0.3407  0.1770
   89MOL    H2926605   1.195   1.313   2.072 -1.1072 -0.2032  0.2732
   89MOL    H3026606   1.280   1.555   2.061  1.4637  1.3827  0.5133
   89MOL    H3126607   1.340   1.668   2.286  1.3372 -0.6640 -0.6609
   89MOL    C3226608   1.487   1.273   2.515  0.3212  0.0328  0.4342
   89MOL    C3326609   1.554   1.192   2.628  0.0741 -0.1631 -0.7751
   89MOL    C3426610   1.691   1.148   2.585 -0.1308  0.3315 -0.0183
   89MOL    C3526611   1.783   1.239   2.535 -0.4892  0.1347  0.0979
   89MOL    C3626612   1.916   1.194   2.495  0.5475  0.7912 -0.6637
   89MOL    C3726613   1.939   1.060   2.524  0.0635  1.1423  0.0411
   89MOL    C3826614   1.839   0.967   2.567  0.4022  0.0484 -0.5446
   89MOL    N3926615   1.719   1.010   2.593  0.0370 -0.4207 -0.7871
   89MOL    H4026616   1.533   1.371   2.517 -0.0117  0.2587 -1.8249
   89MOL    H4126617   1.521   1.233   2.420  0.3980  0.7898  0.1367
   89MOL    H4226618   1.496   1.102   2.647  1.1452 -0.9134 -1.0599
   89MOL    H4326619   1.768   1.346   2.528 -0.2470  0.2819  1.7289
   89MOL    H4426620   1.997   1.262   2.474  2.3879 -1.3766 -0.6726
   89MOL    H4526621   2.037   1.019   2.505 -0.6385 -0.6197  0.0526
   89MOL    H4626622   1.863   0.863   2.581 -1.3559  0.1200  3.4334
   89MOL    C4726623   1.577   1.275   2.756  0.7942 -0.0617 -0.3241
   89MOL    C4826624   1.591   1.198   2.886 -0.2419  1.4733  0.2995
   89MOL    C4926625   1.686   1.280   2.973 -0.0182  0.6637  0.1021
   89MOL    C5026626   1.805   1.231   3.022  0.7393  0.5978  0.1416
   89MOL    C5126627   1.892   1.318   3.084 -0.7207  0.0125  0.1117
   89MOL    C5226628   1.834   1.443   3.126  0.1062  0.1746 -0.3064
   89MOL    C5326629   1.703   1.479   3.082 -0.0384 -0.1336 -0.0766
   89MOL    N5426630   1.631   1.396   3.004 -0.0849 -0.5468 -0.3064
   89MOL    H5526631   1.485   1.333   2.752  0.4888 -0.6421 -2.2658
   89MOL    H5626632   1.650   1.354   2.737  0.2230  1.1335  2.2219
   89MOL    H5726633   1.648   1.107   2.865  0.2410  1.8963 -0.2535
   89MOL    H5826634   1.835   1.130   2.999  0.8261  1.0432 -1.7751
   89MOL    H5926635   1.992   1.289   3.111 -1.4106 -1.0092  1.6767
   89MOL    H6026636   1.890   1.504   3.195 -1.5996 -0.9827  2.1620
   89MOL    H6126637   1.662   1.573   3.117  1.4310  0.3618  0.3748
   89MOL    C6226638   1.457   1.143   2.948 -0.0654 -0.2488  0.1545
   89MOL    C6326639   1.485   1.044   3.057  0.5521  0.5310  0.1295
   89MOL    C6426640   1.409   1.082   3.189  0.3821 -0.3418  0.1886
   89MOL    C6526641   1.474   1.110   3.309  0.6201 -0.4405 -0.8817
   89MOL    C6626642   1.399   1.143   3.423 -0.8427 -0.8210 -0.3188
   89MOL    C6726643   1.258   1.151   3.409 -0.1921  0.1353  0.2451
   89MOL    C6826644   1.201   1.116   3.285  0.3669  0.2014 -0.1137
   89MOL    N6926645   1.272   1.095   3.172 -0.6791  0.0320 -0.2725
   89MOL    H7026646   1.401   1.094   2.868 -0.1159  0.8005 -0.4660
   89MOL    H7126647   1.404   1.233   2.980  0.9943  0.3018  0.3774
   89MOL    H7226648   1.588   1.039   3.093  0.4717 -1.6970  0.1308
   89MOL    H7326649   1.580   1.098   3.324  0.5698  0.5092  0.3297
   89MOL    H7426650   1.449   1.162   3.517  0.1404 -2.2699 -0.5305
   89MOL    H7526651   1.196   1.177   3.493 -1.3593 -3.3980  0.5627
   89MOL    H7626652   1.094   1.105   3.271  0.1502  0.7834  1.0959
   89MOL    C7726653   1.457   0.897   3.010  0.4332 -0.0431 -0.5874
   89MOL    C7826654   1.487   0.788   3.119  0.1399  0.4727  0.3299
   89MOL    C7926655   1.400   0.670   3.082 -0.1827 -0.1200 -0.1395
   89MOL    C8026656   1.282   0.637   3.154 -0.0965 -0.4262 -0.7129
   89MOL    C8126657   1.215   0.516   3.125  0.1406 -0.4736  0.0360
   89MOL    C8226658   1.265   0.445   3.014 -1.0636 -0.4378 -0.1720
   89MOL    C8326659   1.364   0.500   2.929 -0.4675 -0.4247 -0.4538
   89MOL    N8426660   1.437   0.604   2.973  0.5695 -0.3408  0.0197
   89MOL    H8526661   1.508   0.875   2.916  1.2097  0.0074 -0.1870
   89MOL    H8626662   1.352   0.885   2.986 -0.0932  0.7977  1.1507
   89MOL    H8726663   1.459   0.827   3.216  3.1423 -1.2958  2.0024
   89MOL    H8826664   1.229   0.687   3.234  2.8723 -1.3926  1.9426
   89MOL    H8926665   1.130   0.473   3.176 -1.5043 -0.8521 -2.9218
   89MOL    H9026666   1.216   0.352   2.987 -2.2116  0.1952 -0.2871
   89MOL    H9126667   1.402   0.452   2.840 -0.2322 -0.6231 -0.2476
   89MOL    C9226668   1.636   0.746   3.119 -0.3521 -0.2885 -0.5941
   89MOL    C9326669   1.697   0.675   3.244  0.1478 -0.7681  0.5589
   89MOL    C9426670   1.660   0.529   3.233 -0.4402 -0.0522 -0.6075
   89MOL    C9526671   1.558   0.477   3.319 -0.4041  0.3589  0.5806
   89MOL    C9626672   1.526   0.341   3.311 -0.4948 -0.2601 -0.2650
   89MOL    C9726673   1.581   0.266   3.203  0.3112 -0.3062 -1.0864
   89MOL    C9826674   1.681   0.328   3.127 -0.6823  0.8347 -0.4977
   89MOL    N9926675   1.736   0.452   3.151  0.6338 -0.1032  0.3610
   89MOL   H10026676   1.697   0.836   3.113 -1.5626  0.6416  0.8203
   89MOL   H10126677   1.662   0.696   3.026  0.3702  1.4271 -1.3254
   89MOL   H10226678   1.654   0.727   3.330  2.4593  2.6404 -0.2587
   89MOL   H10326679   1.509   0.540   3.391 -3.2698 -0.2108 -0.8091
   89MOL   H10426680   1.455   0.300   3.381 -1.4789 -0.7013 -1.5135
   89MOL   H10526681   1.559   0.161   3.188  0.7181 -0.7186  1.0626
   89MOL   H10626682   1.727   0.272   3.047  0.3494  0.2635  0.4874
   89MOL   C10726683   1.853   0.690   3.258  0.1691  1.1546 -0.3135
   89MOL   C10826684   1.909   0.832   3.261  0.2851  0.5240 -0.7359
   89MOL   C10926685   1.851   0.924   3.371 -0.0373  0.2806  0.0011
   89MOL   C11026686   1.831   1.060   3.346  0.6501 -0.3396 -0.5175
   89MOL   C11126687   1.812   1.154   3.452 -0.2707  0.2357  0.4293
   89MOL   C11226688   1.795   1.097   3.581  0.2113 -0.1574  0.2915
   89MOL   C11326689   1.828   0.963   3.601  0.6205  0.3367 -0.4653
   89MOL   N11426690   1.853   0.874   3.501 -0.7533 -0.6354  0.2934
   89MOL   H11526691   1.894   0.639   3.171 -0.1824  1.9872 -0.9751
   89MOL   H11626692   1.885   0.641   3.350 -1.9026 -0.0895 -0.2009
   89MOL   H11726693   1.885   0.878   3.165  0.4010 -0.9479 -1.4989
   89MOL   H11826694   1.829   1.092   3.243 -2.8702  2.7302  0.3976
   89MOL   H11926695   1.807   1.261   3.433  0.3170  0.1302 -0.3454
   89MOL   H12026696   1.754   1.158   3.660 -0.8028  3.1633 -2.6617
   89MOL   H12126697   1.834   0.925   3.702  1.0241  1.4267 -0.0722
   89MOL   C12226698   2.065   0.835   3.264 -0.1011  0.1315 -0.2189
   89MOL   C12326699   2.133   0.813   3.128 -0.5979 -0.0081 -0.3788
   89MOL   C12426700   2.129   0.940   3.047 -0.7641 -0.0517  0.5149
   89MOL   C12526701   2.049   0.968   2.939 -0.6065  0.1219  1.0417
   89MOL   C12626702   2.064   1.082   2.860 -0.5420  0.8676  0.3354
   89MOL   C12726703   2.165   1.174   2.898  0.4317 -0.3017 -0.3191
   89MOL   C12826704   2.233   1.152   3.019 -0.4859  0.0690 -0.4769
   89MOL   N12926705   2.213   1.034   3.090  0.5531  0.6650  0.1883
   89MOL   H13026706   2.091   0.753   3.331  2.5339  0.8151 -0.3760
   89MOL   H13126707   2.097   0.929   3.309  0.0369  0.2440 -0.5537
   89MOL   H13226708   2.074   0.733   3.083  2.1837 -1.9450 -0.6607
   89MOL   H13326709   1.973   0.897   2.910  3.2528 -2.0992 -4.2858
   89MOL   H13426710   2.008   1.090   2.768  1.6194 -0.9539 -1.1837
   89MOL   H13526711   2.192   1.258   2.836 -2.9744  0.8896 -0.2941
   89MOL   H13626712   2.320   1.201   3.060 -0.8653 -1.4310  2.2253
   89MOL   C13726713   2.275   0.764   3.140 -0.0200  0.2084  0.2207
   89MOL   C13826714   2.303   0.615   3.181  0.0782 -0.3309 -0.1412
   89MOL   C13926715   2.216   0.523   3.094 -0.3628 -0.0341 -0.4704
   89MOL   C14026716   2.116   0.451   3.155 -0.2890  0.5248 -0.4024
   89MOL   C14126717   2.045   0.359   3.078 -0.4546  0.2082 -0.4640
   89MOL   C14226718   2.082   0.333   2.943 -0.2092  0.3731 -0.7812
   89MOL   C14326719   2.180   0.415   2.889 -0.2092  0.1774 -0.0546
   89MOL   N14426720   2.251   0.503   2.967  0.0690  0.0852  0.2801
   89MOL   H14526721   2.329   0.822   3.215 -0.3835 -2.3033  2.5011
   89MOL   H14626722   2.311   0.783   3.039 -1.9486 -0.0370 -0.5344
   89MOL   H14726723   2.254   0.598   3.277 -0.6087  0.3223 -0.3684
   89MOL   H14826724   2.082   0.461   3.257  0.0343  0.2012 -0.2627
   89MOL   H14926725   1.968   0.298   3.122 -1.8124  0.3864 -2.5414
   89MOL   H15026726   2.024   0.269   2.878  0.3947 -0.6015 -0.3741
   89MOL   H15126727   2.232   0.407   2.795  0.2206  1.2024  0.0889
   89MOL   C15226728   2.451   0.563   3.177  0.2317 -0.5083 -0.1831
   89MOL   C15326729   2.544   0.619   3.292  0.1048 -0.3133  0.3611
   89MOL   C15426730   2.503   0.562   3.426 -0.4815  0.2331 -0.5326
   89MOL   C15526731   2.530   0.428   3.456  0.6159 -0.8620  0.1432
   89MOL   C15626732   2.511   0.397   3.597  0.3991 -1.0355  0.8628
   89MOL   C15726733   2.454   0.490   3.684 -0.3587 -0.1334 -0.8331
   89MOL   C15826734   2.433   0.620   3.636 -0.4863 -0.1857 -0.1764
   89MOL   N15926735   2.458   0.654   3.512 -0.7975 -0.2342  0.5633
   89MOL   H16026736   2.498   0.595   3.085 -1.3814 -0.5645 -1.0435
   89MOL   H16126737   2.448   0.454   3.182  1.2424 -0.6159 -1.6416
   89MOL   H16226738   2.520   0.726   3.294  0.5383 -0.1467 -1.9013
   89MOL   H16326739   2.572   0.356   3.388  0.9051 -0.7116  0.1646
   89MOL   H16426740   2.536   0.296   3.627 -1.1821 -1.3047  1.3306
   89MOL   H16526741   2.427   0.460   3.784  2.5938 -1.0052 -0.2572
   89MOL   H16626742   2.395   0.697   3.701  2.5609 -0.6419  2.2720
   89MOL   C16726743   2.694   0.590   3.262 -0.2551  0.1509 -0.0033
   89MOL   C16826744   2.762   0.681   3.157  0.0922  0.8889 -0.0923
   89MOL   C16926745   2.717   0.824   3.181  0.6427 -0.2404  0.3394
   89MOL   C17026746   2.742   0.893   3.299  0.0204 -0.5485  0.8800
   89MOL   C17126747   2.693   1.024   3.320 -0.6609 -0.1841  0.2670
   89MOL   C17226748   2.619   1.074   3.211  0.3933  0.2971  0.5710
   89MOL   C17326749   2.583   0.992   3.108  0.5999  0.4764  0.0209
   89MOL   N17426750   2.629   0.870   3.089 -0.1083  0.1356 -0.6578
   89MOL   H17526751   2.708   0.484   3.239  2.4146  0.1872  1.2549
   89MOL   H17626752   2.750   0.598   3.356  0.1489  0.1104 -0.2392
   89MOL   H17726753   2.728   0.654   3.057 -0.6311  1.0403  0.1134
   89MOL   H17826754   2.800   0.850   3.380 -0.7741 -0.6948  1.3803
   89MOL   H17926755   2.729   1.082   3.403  2.5969 -0.6332 -0.7647
   89MOL   H18026756   2.588   1.178   3.210 -2.5179 -0.4830  2.3868
   89MOL   H18126757   2.525   1.020   3.021  1.4309  2.0393 -0.0561
   89MOL   C18226758   2.912   0.650   3.167  0.3365  0.0281 -0.0699
   89MOL   C18326759   3.003   0.724   3.070  0.8102 -0.1047 -0.3623
   89MOL   C18426760   3.152   0.683   3.093  0.2579 -0.0678  0.5134
   89MOL   C18526761   3.240   0.780   3.150  0.2118 -0.4199 -1.2882
   89MOL   C18626762   3.375   0.743   3.173  0.4502  0.4313 -0.3811
   89MOL   C18726763   3.405   0.606   3.160  0.8774  0.4684 -0.3754
   89MOL   C18826764   3.316   0.522   3.089 -0.2940 -0.2658 -1.0404
   89MOL   N18926765   3.187   0.557   3.067 -0.4316 -0.3585  0.3808
   89MOL   H19026766   2.940   0.544   3.165 -2.3458 -0.7646  1.9857
   89MOL   H19126767   2.932   0.686   3.268 -1.4437 -0.4547  0.4731
   89MOL   H19226768   2.999   0.832   3.087  0.6473  0.0471 -1.3554
   89MOL   H19326769   3.209   0.882   3.168 -0.7879 -1.4870  3.8045
   89MOL   H19426770   3.453   0.801   3.219  1.0242  0.6471 -1.5995
   89MOL   H19526771   3.496   0.564   3.199 -1.0355 -0.3908  3.3380
   89MOL   H19626772   3.350   0.420   3.074  2.1481  0.5755 -1.4330
   89MOL   C19726773   2.973   0.697   2.920  0.2167 -0.2653 -0.4383
   89MOL   C19826774   2.893   0.795   2.846 -0.2404  0.1435  0.1528
   89MOL   C19926775   2.972   0.926   2.824 -0.0196 -0.1687 -0.1123
   89MOL   C20026776   2.940   1.042   2.898 -0.1154 -0.0930 -1.2013
   89MOL   C20126777   3.027   1.155   2.893 -0.4011  0.3722 -0.5667
   89MOL   C20226778   3.143   1.138   2.817 -0.3652 -0.6734  0.6282
   89MOL   C20326779   3.160   1.028   2.736 -0.1057 -0.5040 -0.1247
   89MOL   N20426780   3.078   0.922   2.742 -0.0083  0.2798 -0.9677
   89MOL   H20526781   2.939   0.597   2.896 -0.0613 -0.7544  1.8965
   89MOL   H20626782   3.068   0.688   2.867  0.4660 -2.4207  0.3257
   89MOL   H20726783   2.809   0.821   2.911 -2.5765 -3.4678 -1.2464
   89MOL   H20826784   2.856   1.043   2.965  0.7400 -0.5438 -0.1142
   89MOL   H20926785   3.009   1.241   2.955 -0.1630  0.2756 -0.3605
   89MOL   H21026786   3.205   1.226   2.806 -0.9585 -0.1810  1.1877
   89MOL   H21126787   3.242   1.016   2.668 -1.1206 -0.4235 -1.3839
   89MOL   C21226788   2.814   0.734   2.735 -0.0842 -0.1627  0.2782
   89MOL   C21326789   2.886   0.702   2.603 -0.0878 -0.3019 -0.3779
   89MOL   C21426790   2.994   0.597   2.614  0.4339 -0.3227  0.4443
   89MOL   C21526791   3.117   0.609   2.554  0.4260 -0.4027 -0.8230
   89MOL   C21626792   3.210   0.501   2.562 -0.0998 -0.7380  0.0594
   89MOL   C21726793   3.177   0.392   2.632 -0.1369  0.3046  0.1208
   89MOL   C21826794   3.047   0.378   2.686  0.2240 -0.5812 -0.2207
   89MOL   N21926795   2.957   0.478   2.674  0.0879 -0.7634 -0.2036
   89MOL   H22026796   2.742   0.813   2.715  0.1742 -0.2213 -0.9320
   89MOL   H22126797   2.757   0.644   2.760 -0.2474 -1.0268 -2.9767
   89MOL   H22226798   2.935   0.792   2.566  0.8810 -0.7261 -0.1309
   89MOL   H22326799   3.146   0.695   2.495 -0.4310  1.1377  0.9258
   89MOL   H22426800   3.311   0.513   2.525 -0.3250  0.4603 -0.2060
   89MOL   H22526801   3.239   0.308   2.660 -1.1127 -0.3305  0.3874
   89MOL   H22626802   3.017   0.300   2.754 -0.3099  1.1173  1.5527
   89MOL   C22726803   2.771   0.661   2.504  0.2336  0.4365  0.2604
   89MOL   C22826804   2.718   0.781   2.425  0.0988  0.3112  0.0135
   89MOL   C22926805   2.829   0.866   2.360 -0.8371 -0.0792  0.1648
   89MOL   C23026806   2.834   1.004   2.383  0.1629 -0.1487  0.1769
   89MOL   C23126807   2.930   1.073   2.309 -0.6655  0.4847 -0.2003
   89MOL   C23226808   3.022   1.001   2.222 -0.3225  0.6348  0.1792
   89MOL   C23326809   3.005   0.863   2.210 -0.2106 -0.3497  0.9168
   89MOL   N23426810   2.911   0.796   2.277  0.3348  0.2542 -0.2393
   89MOL   H23526811   2.696   0.598   2.550 -0.6153  0.1894 -1.3984
   89MOL   H23626812   2.825   0.604   2.428  1.1370 -2.2717  2.8508
   89MOL   H23726813   2.661   0.849   2.489 -0.2389 -0.0608  0.1098
   89MOL   H23826814   2.774   1.052   2.458  0.2850 -2.4728  1.8314
   89MOL   H23926815   2.941   1.181   2.317  0.7169  0.1655  2.7798
   89MOL   H24026816   3.096   1.064   2.175 -2.0873  2.7491  0.1077
   89MOL   H24126817   3.072   0.803   2.150 -0.0609  0.3884  0.3333
   89MOL   C24226818   2.625   0.725   2.315 -0.6762  0.4554 -0.3927
   89MOL   C24326819   2.492   0.670   2.363  0.4586  0.3601 -0.2347
   89MOL   C24426820   2.436   0.743   2.486 -0.0957  0.6221 -0.4296
   89MOL   C24526821   2.373   0.868   2.484 -0.5408  0.1426  0.9532
   89MOL   C24626822   2.329   0.925   2.605  0.1277  0.1119 -0.2257
   89MOL   C24726823   2.351   0.857   2.723  1.4352  0.2369 -0.4775
   89MOL   C24826824   2.414   0.732   2.722  0.1675 -0.2686  0.0172
   89MOL   N24926825   2.454   0.673   2.605 -0.3675  0.0148  0.0268
   89MOL   H25026826   2.672   0.665   2.238 -0.2744  1.5670 -1.0352
   89MOL   H25126827   2.598   0.807   2.248 -1.2809  0.6668  0.1010
   89MOL   H25226828   2.514   0.572   2.404 -2.5928 -0.2115  0.0884
   89MOL   H25326829   2.349   0.917   2.391 -0.3722 -0.9139  0.3397
   89MOL   H25426830   2.266   1.013   2.612  0.5823  0.4108  0.1359
   89MOL   H25526831   2.314   0.895   2.817  0.3673  0.6104 -1.0343
   89MOL   H25626832   2.419   0.678   2.816 -2.4935 -0.9376 -0.1770
   89MOL   C25726833   2.396   0.652   2.246  0.1885  0.5580 -0.5739
   89MOL   C25826834   2.426   0.539   2.139 -0.4737 -0.1979 -0.9063
   89MOL   C25926835   2.425   0.395   2.195 -1.0052 -0.4674  0.0500
   89MOL   C26026836   2.348   0.352   2.301 -0.2735 -1.2508  0.3734
   89MOL   C26126837   2.355   0.216   2.327 -0.0464 -0.0730 -0.1942
   89MOL   C26226838   2.440   0.130   2.259  0.3913  0.0024 -0.3521
   89MOL   C26326839   2.529   0.187   2.165  0.3522 -0.7261  0.5684
   89MOL   N26426840   2.515   0.319   2.132 -0.2122  0.0206 -0.5086
   89MOL   H26526841   2.368   0.748   2.204  0.0049  1.4315  1.5124
   89MOL   H26626842   2.301   0.637   2.298 -0.3991  1.7925 -1.2739
   89MOL   H26726843   2.521   0.561   2.092 -0.4229 -1.0776 -1.2220
   89MOL   H26826844   2.283   0.413   2.362 -1.7272 -2.8921  0.5210
   89MOL   H26926845   2.294   0.163   2.399 -0.2249  0.5906  0.1404
   89MOL   H27026846   2.448   0.025   2.283  2.7110 -0.4559 -2.9021
   89MOL   H27126847   2.609   0.133   2.116  1.1393 -0.0518  1.1000
   89MOL   C27226848   2.328   0.543   2.020 -0.9545 -0.4247 -0.0293
   89MOL   C27326849   2.370   0.619   1.896 -0.1857  0.0352  0.3793
   89MOL   C27426850   2.388   0.776   1.903  0.8500  0.4287 -0.2194
   89MOL   C27526851   2.314   0.855   1.813 -0.9894 -0.5929  1.1753
   89MOL   C27626852   2.334   0.994   1.812 -0.6383  0.3699 -0.0546
   89MOL   C27726853   2.416   1.046   1.915 -0.2765  0.1111  0.1362
   89MOL   C27826854   2.496   0.961   1.991  0.0130  1.0815 -0.7020
   89MOL   N27926855   2.484   0.829   1.985  0.5239 -0.1878 -0.5363
   89MOL   H28026856   2.232   0.590   2.043 -1.3438 -0.3249 -1.7759
   89MOL   H28126857   2.295   0.441   1.997 -2.0453  0.3092 -1.8211
   89MOL   H28226858   2.280   0.609   1.836  0.4644 -3.5274 -0.1652
   89MOL   H28326859   2.251   0.817   1.734 -1.5492 -0.3667  1.5144
   89MOL   H28426860   2.266   1.057   1.757 -2.0275 -0.5952  0.5088
   89MOL   H28526861   2.421   1.153   1.920 -2.2556  0.1701  1.4832
   89MOL   H28626862   2.581   1.005   2.043  0.1366  1.0131 -0.8455
   89MOL   C28726863   2.488   0.558   1.817 -0.3409 -0.2761  0.5426
   89MOL   C28826864   2.452   0.441   1.730  0.0587 -0.4576  0.8047
   89MOL   C28926865   2.360   0.490   1.616 -0.2718 -0.2168  0.1769
   89MOL   C29026866   2.249   0.414   1.577 -0.4435 -0.2338 -0.2789
   89MOL   C29126867   2.176   0.471   1.478  0.5158 -0.1758 -0.0526
   89MOL   C29226868   2.198   0.595   1.417 -1.0666  0.6447  0.2169
   89MOL   C29326869   2.320   0.656   1.456  0.6610  0.1793  0.5722
   89MOL   N29426870   2.396   0.603   1.550 -0.0872 -0.5071 -0.4320
   89MOL   H29526871   2.570   0.530   1.883  0.6234 -1.5733 -1.1637
   89MOL   H29626872   2.532   0.640   1.759 -0.2883  0.1483  1.1786
   89MOL   H29726873   2.405   0.357   1.780  1.1715 -0.4138  1.9532
   89MOL   H29826874   2.211   0.332   1.637 -0.6834  0.3928  0.4343
   89MOL   H29926875   2.097   0.409   1.438  0.9403 -0.0653 -1.0762
   89MOL   H30026876   2.143   0.629   1.330 -0.9597  0.5525  0.1127
   89MOL   H30126877   2.337   0.755   1.416  0.4828 -0.4028 -0.9933
   89MOL   H30226878   2.545   0.411   1.682 -0.4912  0.4870 -0.8772
   90MOL     C126879   7.514   4.942   1.543 -0.1279  0.2645 -0.2825
   90MOL     C226880   7.479   4.836   1.653  0.0232 -0.2407 -0.2937
   90MOL     C326881   7.585   4.818   1.754  0.3155 -0.1557 -0.3669
   90MOL     C426882   7.646   4.692   1.777 -0.5581 -0.1856 -0.2438
   90MOL     C526883   7.731   4.682   1.887 -0.8327  0.3530 -0.6715
   90MOL     C626884   7.762   4.795   1.959 -0.2905  0.6168 -0.4132
   90MOL     C726885   7.706   4.915   1.924 -0.3714  0.4187  0.8666
   90MOL     N826886   7.617   4.932   1.820  0.9020  0.3194 -0.2596
   90MOL     H926887   7.520   5.040   1.592  1.6140 -1.1491  2.4810
   90MOL    H1026888   7.606   4.908   1.496 -0.5060  0.1294 -0.9295
   90MOL    H1126889   7.476   4.739   1.603 -0.4202  0.0633 -0.8636
   90MOL    H1226890   7.622   4.604   1.720 -1.9160 -0.0771  0.1245
   90MOL    H1326891   7.784   4.590   1.910 -1.4838  0.4966  1.5980
   90MOL    H1426892   7.831   4.789   2.042 -0.6026 -0.0758 -0.2037
   90MOL    H1526893   7.725   4.998   1.990 -2.3976 -0.0523  2.0939
   90MOL    H1626894   7.441   4.941   1.462  0.0339 -0.5456 -0.4222
   90MOL    C1726895   7.341   4.859   1.717  0.0063 -0.2650  0.4139
   90MOL    C1826896   7.218   4.829   1.628 -0.6267  0.4755 -0.5602
   90MOL    C1926897   7.230   4.684   1.583 -0.1629 -0.1079  0.0627
   90MOL    C2026898   7.221   4.653   1.447  0.0318 -0.6684 -0.6393
   90MOL    C2126899   7.235   4.525   1.404  0.0810  0.2065  0.1863
   90MOL    C2226900   7.251   4.425   1.505  0.3489  0.7242 -0.2511
   90MOL    C2326901   7.251   4.461   1.637  0.0400 -0.0665  0.1968
   90MOL    N2426902   7.234   4.588   1.676  0.6313  0.2602  0.4441
   90MOL    H2526903   7.332   4.961   1.755  1.8403 -0.2819  0.9357
   90MOL    H2626904   7.327   4.807   1.812 -1.6788 -0.1271  0.2565
   90MOL    H2726905   7.226   4.891   1.539  2.6901 -1.1481 -1.4892
   90MOL    H2826906   7.208   4.728   1.370  1.1686  0.8340  0.6149
   90MOL    H2926907   7.246   4.507   1.298 -1.4801  2.4835 -0.3833
   90MOL    H3026908   7.268   4.322   1.478 -0.1878  0.2280  1.2982
   90MOL    H3126909   7.269   4.380   1.707 -0.2574 -0.6378 -0.3876
   90MOL    C3226910   7.080   4.852   1.699  0.2835 -0.7168 -0.1144
   90MOL    C3326911   7.032   4.991   1.711 -0.4314  0.3236 -0.1580
   90MOL    C3426912   6.975   5.040   1.568  0.2778  0.3800 -0.4478
   90MOL    C3526913   6.855   4.975   1.525 -0.1460  0.1221  0.0066
   90MOL    C3626914   6.803   5.018   1.396  0.0008 -0.2433 -0.0605
   90MOL    C3726915   6.865   5.127   1.335 -0.0560 -0.8723 -0.7717
   90MOL    C3826916   6.971   5.194   1.400  0.5779  0.0478  0.5334
   90MOL    N3926917   7.031   5.146   1.508  0.1725 -0.1597  0.2061
   90MOL    H4026918   7.112   4.816   1.797  1.8195  0.2023 -0.2671
   90MOL    H4126919   7.007   4.784   1.655  0.6388 -0.8187 -0.5474
   90MOL    H4226920   7.112   5.058   1.742  0.0209 -0.9583  1.5067
   90MOL    H4326921   6.814   4.889   1.576  0.6400  0.1563  0.7051
   90MOL    H4426922   6.724   4.964   1.346  0.0448  1.3373 -1.9138
   90MOL    H4526923   6.820   5.180   1.252 -1.0954 -0.8076 -0.1659
   90MOL    H4626924   7.019   5.280   1.354 -1.4220  1.5991  1.2665
   90MOL    C4726925   6.927   5.000   1.824  0.3700 -0.1278 -0.4961
   90MOL    C4826926   6.894   5.149   1.851 -0.7799  0.0685 -0.4041
   90MOL    C4926927   6.750   5.184   1.816  0.4302 -0.4712 -0.0342
   90MOL    C5026928   6.732   5.275   1.705 -0.4680  0.7147  0.7159
   90MOL    C5126929   6.602   5.318   1.681 -0.4299 -0.1745  0.2975
   90MOL    C5226930   6.496   5.264   1.760 -0.9783 -0.3283  0.2726
   90MOL    C5326931   6.528   5.179   1.866 -0.5088 -0.3592 -0.2129
   90MOL    N5426932   6.655   5.136   1.895 -0.3555  0.4365  0.5038
   90MOL    H5526933   6.964   4.945   1.910  1.0222  0.4078 -0.4302
   90MOL    H5626934   6.833   4.958   1.787  0.5854 -0.8054 -0.2737
   90MOL    H5726935   6.957   5.217   1.793 -0.5596  0.9949  0.8975
   90MOL    H5826936   6.813   5.312   1.645 -2.4597  1.5417 -1.5103
   90MOL    H5926937   6.582   5.401   1.614 -0.6640 -0.3735  0.1221
   90MOL    H6026938   6.393   5.295   1.757 -1.3429 -1.5362  0.0930
   90MOL    H6126939   6.445   5.151   1.930 -0.7999  0.5556 -0.1848
   90MOL    C6226940   6.926   5.204   2.000 -0.5438  0.1195 -0.0395
   90MOL    C6326941   7.053   5.159   2.071  0.0481 -0.1350  0.4304
   90MOL    C6426942   7.171   5.202   1.986 -0.4309 -0.3452  0.4217
   90MOL    C6526943   7.174   5.320   1.908 -0.5032 -1.0194 -0.3934
   90MOL    C6626944   7.286   5.351   1.827  1.1889  0.0127  0.1459
   90MOL    C6726945   7.399   5.268   1.842 -0.1055  0.3189 -0.8840
   90MOL    C6826946   7.386   5.159   1.926  0.5870  0.5759 -0.2897
   90MOL    N6926947   7.278   5.120   1.990 -0.4637 -0.1541 -0.3314
   90MOL    H7026948   6.844   5.173   2.065  0.8358  1.7250  2.5372
   90MOL    H7126949   6.919   5.312   2.004  1.1191  0.2756 -0.8941
   90MOL    H7226950   7.045   5.050   2.073  2.1160 -0.3505 -1.1153
   90MOL    H7326951   7.088   5.386   1.900  1.7220  1.9715 -0.4125
   90MOL    H7426952   7.295   5.440   1.766  1.3973 -0.3284 -0.3262
   90MOL    H7526953   7.495   5.285   1.795  0.1392  2.1714  0.2600
   90MOL    H7626954   7.475   5.105   1.952 -0.9957 -1.7424  0.4533
   90MOL    C7726955   7.064   5.191   2.220  0.5686  0.4310 -0.1112
   90MOL    C7826956   7.143   5.099   2.318 -0.0626 -0.0588 -1.5766
   90MOL    C7926957   7.201   5.177   2.430 -0.6963 -0.1490  0.1158
   90MOL    C8026958   7.336   5.212   2.435  0.1874 -0.4425 -0.1053
   90MOL    C8126959   7.381   5.301   2.541 -0.1687 -0.1028  0.4282
   90MOL    C8226960   7.288   5.347   2.632 -0.4784  0.2858  0.9956
   90MOL    C8326961   7.157   5.302   2.617 -0.6879  0.0879 -0.1331
   90MOL    N8426962   7.114   5.234   2.509 -0.1085 -0.3751 -0.2424
   90MOL    H8526963   6.962   5.184   2.257 -0.4751  1.1955 -2.7784
   90MOL    H8626964   7.093   5.296   2.226 -2.5688  1.2203  2.5058
   90MOL    H8726965   7.236   5.067   2.271  0.1726 -1.6331 -0.0604
   90MOL    H8826966   7.404   5.175   2.361  1.5917 -0.2893  1.0753
   90MOL    H8926967   7.484   5.327   2.558 -0.3230  0.9883 -0.1983
   90MOL    H9026968   7.309   5.418   2.711 -0.3724 -0.9193  2.0568
   90MOL    H9126969   7.087   5.329   2.694 -2.2152 -2.8158 -0.4695
   90MOL    C9226970   7.071   4.967   2.369  0.3950 -0.0474 -0.4125
   90MOL    C9326971   7.081   4.835   2.296  0.8980 -0.2916  0.4830
   90MOL    C9426972   7.220   4.787   2.266 -0.4944  1.1209  0.6100
   90MOL    C9526973   7.265   4.737   2.138 -0.3545 -0.1815 -0.8417
   90MOL    C9626974   7.395   4.689   2.120  0.0065 -0.5837  1.0284
   90MOL    C9726975   7.472   4.664   2.231  0.5743 -0.5039 -0.3059
   90MOL    C9826976   7.425   4.719   2.355  0.7901  0.8469 -0.3754
   90MOL    N9926977   7.304   4.778   2.373  0.0035  0.4977  0.0083
   90MOL   H10026978   6.966   4.995   2.375  0.7283  1.4327 -1.2480
   90MOL   H10126979   7.097   4.942   2.472  0.9911  1.7429 -0.1233
   90MOL   H10226980   7.032   4.853   2.200 -0.3066  2.7605  1.6109
   90MOL   H10326981   7.196   4.757   2.057 -0.8643 -2.7242 -1.0895
   90MOL   H10426982   7.434   4.670   2.021  1.1328  3.0260  0.6975
   90MOL   H10526983   7.571   4.621   2.227  0.1592 -1.5465  0.2682
   90MOL   H10626984   7.477   4.702   2.448  1.5175 -2.0209 -1.2583
   90MOL   C10726985   7.013   4.714   2.372 -0.1253 -1.0739 -1.1001
   90MOL   C10826986   6.857   4.732   2.397  0.1297  0.0445 -0.0729
   90MOL   C10926987   6.779   4.753   2.262 -0.6927 -0.7093  0.2162
   90MOL   C11026988   6.704   4.873   2.244  0.5112  0.2800 -1.5351
   90MOL   C11126989   6.638   4.899   2.127  0.0721 -0.1300 -0.2268
   90MOL   C11226990   6.648   4.807   2.028 -0.1356 -0.2278  0.1865
   90MOL   C11326991   6.733   4.689   2.048  0.0105  0.0140 -0.0759
   90MOL   N11426992   6.789   4.666   2.169 -0.6577  0.9273 -0.0174
   90MOL   H11526993   7.061   4.713   2.469  0.1730  0.6632 -1.2090
   90MOL   H11626994   7.034   4.616   2.329  1.7427 -0.8037 -0.8139
   90MOL   H11726995   6.838   4.816   2.463 -0.2180 -0.0893 -0.0001
   90MOL   H11826996   6.704   4.942   2.328 -1.4274 -1.2526 -0.2437
   90MOL   H11926997   6.578   4.988   2.116  0.8627  0.6461  1.4502
   90MOL   H12026998   6.583   4.824   1.944  0.1814 -1.9497 -0.4223
   90MOL   H12126999   6.719   4.613   1.972 -3.0203  0.8294 -0.4094
   90MOL   C12227000   6.794   4.619   2.478 -0.6765 -0.2172  0.4261
   90MOL   C12327001   6.838   4.596   2.626  0.2327  0.3757  0.4059
   90MOL   C12427002   6.804   4.716   2.718  0.0342 -0.1883 -0.3401
   90MOL   C12527003   6.674   4.733   2.772  0.7624 -0.5547 -0.5157
   90MOL   C12627004   6.651   4.859   2.838  0.1706 -0.1072 -0.1362
   90MOL   C12727005   6.754   4.951   2.862  0.5190 -0.3198  0.2425
   90MOL   C12827006   6.875   4.923   2.799 -0.4293 -0.2667  0.3626
   90MOL   N12927007   6.899   4.812   2.726  0.0100 -0.5247 -0.2134
   90MOL   H13027008   6.800   4.532   2.412  1.6103  1.0358 -1.0791
   90MOL   H13127009   6.685   4.627   2.483 -0.7526 -1.7599  1.5127
   90MOL   H13227010   6.944   4.575   2.633 -0.1902 -1.7547  1.0161
   90MOL   H13327011   6.600   4.655   2.774 -0.5796  0.7361  0.9169
   90MOL   H13427012   6.552   4.875   2.877  0.2855  0.8584 -0.2285
   90MOL   H13527013   6.742   5.046   2.913 -0.2604  0.3676 -1.1735
   90MOL   H13627014   6.955   4.996   2.806 -0.5705 -0.0814  0.0941
   90MOL   C13727015   6.787   4.456   2.682 -0.4783  0.7316 -0.0619
   90MOL   C13827016   6.857   4.335   2.609  0.0102  0.1654  0.3261
   90MOL   C13927017   6.994   4.311   2.660  0.2615  0.5750  0.2042
   90MOL   C14027018   7.107   4.348   2.587  0.6122  0.4802  0.0715
   90MOL   C14127019   7.237   4.318   2.640 -0.2893  0.3127  0.3862
   90MOL   C14227020   7.241   4.256   2.772 -0.0597  0.2312  0.6410
   90MOL   C14327021   7.120   4.223   2.835  0.1087  0.6449  0.8685
   90MOL   N14427022   7.000   4.249   2.775  0.0884 -0.1123 -0.1536
   90MOL   H14527023   6.681   4.450   2.654 -0.2349  2.3517 -1.3572
   90MOL   H14627024   6.801   4.452   2.790 -1.1213 -0.8126 -0.0154
   90MOL   H14727025   6.863   4.350   2.501  2.3896 -2.0773  0.0869
   90MOL   H14827026   7.096   4.414   2.503 -2.9846  1.4983  1.2625
   90MOL   H14927027   7.328   4.348   2.591 -1.2389  2.8559  0.1342
   90MOL   H15027028   7.337   4.236   2.817  0.1375 -0.5555 -0.1090
   90MOL   H15127029   7.117   4.170   2.930 -0.2170 -0.6602  0.1482
   90MOL   C15227030   6.758   4.212   2.616  0.1833  0.0386  0.5198
   90MOL   C15327031   6.772   4.107   2.503  0.5416 -0.1640 -0.3001
   90MOL   C15427032   6.725   4.156   2.363  0.4334 -1.0141  0.2619
   90MOL   C15527033   6.803   4.247   2.287 -0.3839  0.3381  0.0485
   90MOL   C15627034   6.752   4.295   2.161  0.2846 -0.2010  0.1608
   90MOL   C15727035   6.628   4.239   2.120 -0.0833  0.8192  0.7685
   90MOL   C15827036   6.562   4.148   2.205  0.2853  0.3272 -0.0137
   90MOL   N15927037   6.609   4.109   2.322  0.4155 -0.0376 -0.2167
   90MOL   H16027038   6.659   4.253   2.599  0.9238  1.1880 -1.1174
   90MOL   H16127039   6.775   4.160   2.710  3.4127 -0.8423 -0.4930
   90MOL   H16227040   6.699   4.035   2.540  0.0879  2.1887  3.6255
   90MOL   H16327041   6.899   4.289   2.311 -0.5367  0.8805 -0.2750
   90MOL   H16427042   6.810   4.365   2.102  0.5514  0.4000  1.1361
   90MOL   H16527043   6.593   4.255   2.019 -1.1723  1.6110  1.2564
   90MOL   H16627044   6.479   4.094   2.162 -1.2201  1.5319  1.3092
   90MOL   C16727045   6.909   4.034   2.498 -0.1719 -1.3021 -0.4397
   90MOL   C16827046   6.898   3.888   2.459 -0.5006 -0.0627  0.2440
   90MOL   C16927047   6.872   3.863   2.310 -0.5989  1.2784  0.4652
   90MOL   C17027048   6.757   3.788   2.275  0.5172  0.0798 -0.1091
   90MOL   C17127049   6.730   3.758   2.139  0.3545  0.0465  0.0830
   90MOL   C17227050   6.818   3.824   2.042  0.4460 -0.4791 -0.8903
   90MOL   C17327051   6.925   3.899   2.093  0.6266  0.7110  0.4750
   90MOL   N17427052   6.959   3.916   2.221  0.1226 -0.5683  0.4818
   90MOL   H17527053   6.945   4.033   2.601  0.1292 -0.1873 -0.5207
   90MOL   H17627054   6.972   4.094   2.432 -0.7658 -0.5656 -0.3541
   90MOL   H17727055   6.809   3.850   2.508 -0.9293  1.1975  0.4795
   90MOL   H17827056   6.689   3.762   2.355  0.2442  0.4049 -0.2350
   90MOL   H17927057   6.641   3.712   2.100  0.7875  1.2559 -2.3871
   90MOL   H18027058   6.802   3.816   1.936  0.3303  0.9876 -0.9840
   90MOL   H18127059   6.995   3.947   2.026  1.8861 -1.4317  0.2085
   90MOL   C18227060   7.021   3.806   2.510 -0.4478 -0.0270 -0.3268
   90MOL   C18327061   7.000   3.652   2.494  0.1376  0.6315  0.5504
   90MOL   C18427062   7.115   3.565   2.535 -0.9041  0.4640  0.3525
   90MOL   C18527063   7.172   3.477   2.441 -0.5997  0.6824  0.1195
   90MOL   C18627064   7.250   3.369   2.489 -0.1803 -0.1203  0.1403
   90MOL   C18727065   7.276   3.366   2.627  0.2665 -0.4535 -0.4117
   90MOL   C18827066   7.218   3.463   2.709  0.2326  0.4931  0.7347
   90MOL   N18927067   7.134   3.560   2.667 -0.1681  0.2609 -0.9047
   90MOL   H19027068   7.053   3.837   2.610  2.4486  0.7749 -1.4751
   90MOL   H19127069   7.103   3.842   2.449  1.6086 -3.3324  0.4018
   90MOL   H19227070   6.995   3.640   2.386 -0.1765 -1.3167  0.7681
   90MOL   H19327071   7.153   3.482   2.335  1.8296  1.5856 -0.3049
   90MOL   H19427072   7.286   3.292   2.422 -1.6522  0.4584 -1.3714
   90MOL   H19527073   7.329   3.288   2.680  0.3697  0.3192  0.6291
   90MOL   H19627074   7.254   3.471   2.810 -1.3879 -2.1329  1.5616
   90MOL   C19727075   6.869   3.586   2.553  0.2071  0.4994  0.0602
   90MOL   C19827076   6.844   3.434   2.544 -0.1469  0.4416 -1.0359
   90MOL   C19927077   6.738   3.383   2.645 -0.4221 -0.8484  0.1484
   90MOL   C20027078   6.787   3.333   2.768  0.1740 -0.2094  0.4975
   90MOL   C20127079   6.699   3.319   2.873 -0.1675  1.1645  0.1930
   90MOL   C20227080   6.561   3.332   2.841 -0.1497  0.1421 -0.3392
   90MOL   C20327081   6.521   3.374   2.709 -0.2265 -0.4605 -0.8684
   90MOL   N20427082   6.610   3.407   2.617  0.0451  0.5793 -0.2115
   90MOL   H20527083   6.784   3.632   2.502  1.3299  1.9015 -0.5655
   90MOL   H20627084   6.875   3.615   2.658  0.3006  0.4136  0.0793
   90MOL   H20727085   6.928   3.387   2.596 -1.7482 -2.5267 -1.0195
   90MOL   H20827086   6.891   3.325   2.795  0.3135  1.4111  0.4848
   90MOL   H20927087   6.725   3.286   2.972 -3.5555 -2.0986  0.0910
   90MOL   H21027088   6.485   3.319   2.917  0.6776  1.5044  0.7390
   90MOL   H21127089   6.416   3.375   2.682 -0.1503  1.7798 -1.1394
   90MOL   C21227090   6.834   3.387   2.397 -0.0658 -0.3360  0.4817
   90MOL   C21327091   6.836   3.230   2.378 -0.3250  0.3543 -0.0068
   90MOL   C21427092   6.818   3.175   2.237  0.4824  0.1358 -0.6060
   90MOL   C21527093   6.710   3.090   2.207  0.0818 -0.0460 -0.0606
   90MOL   C21627094   6.711   3.023   2.083  0.5548  0.4923 -0.0133
   90MOL   C21727095   6.815   3.054   1.986 -0.0506  0.0499 -0.0368
   90MOL   C21827096   6.905   3.150   2.024 -0.6878  0.4161  0.4577
   90MOL   N21927097   6.908   3.211   2.143  0.0347  0.4890  0.0763
   90MOL   H22027098   6.905   3.435   2.329 -1.9485 -0.1525 -1.4045
   90MOL   H22127099   6.736   3.419   2.362 -0.3944  0.5397  2.1750
   90MOL   H22227100   6.758   3.186   2.441  0.4634 -0.6287  0.2960
   90MOL   H22327101   6.640   3.062   2.284  0.4778  1.8447  0.9939
   90MOL   H22427102   6.625   2.962   2.057  0.1680  0.9468  0.1983
   90MOL   H22527103   6.814   3.010   1.888 -0.1970 -3.2040  1.3656
   90MOL   H22627104   6.983   3.182   1.956  0.0051 -0.5153  0.8049
   90MOL   C22727105   6.961   3.168   2.448 -0.2710  0.1076 -0.2128
   90MOL   C22827106   7.002   3.028   2.406  0.2363  0.5139  0.5448
   90MOL   C22927107   7.149   3.006   2.438 -0.0707  0.6713  0.1549
   90MOL   C23027108   7.241   2.999   2.329 -0.0812 -0.5303 -0.3163
   90MOL   C23127109   7.382   2.993   2.360  0.0369  0.7482  0.6722
   90MOL   C23227110   7.416   2.987   2.498  0.4730 -0.2176  0.2174
   90MOL   C23327111   7.317   2.996   2.599 -0.1500 -0.1332  0.5092
   90MOL   N23427112   7.183   3.006   2.570 -0.1722  0.4250 -0.0249
   90MOL   H23527113   6.979   3.186   2.554  0.7982  2.0747 -0.7099
   90MOL   H23627114   7.040   3.217   2.391 -0.4661 -1.6121 -2.0237
   90MOL   H23727115   6.995   3.024   2.298  0.4080  1.8725  0.4860
   90MOL   H23827116   7.208   3.009   2.226 -1.5541 -0.2472  0.1770
   90MOL   H23927117   7.461   3.008   2.288 -2.2901  5.0897 -1.1832
   90MOL   H24027118   7.519   2.981   2.530  1.2565  3.1459 -1.4953
   90MOL   H24127119   7.349   2.998   2.702 -3.0499  0.2437  1.4460
   90MOL   C24227120   6.915   2.910   2.458  0.0198  0.6222 -0.8333
   90MOL   C24327121   6.940   2.768   2.408  0.2697  0.0532 -0.8175
   90MOL   C24427122   6.879   2.670   2.508 -0.7934 -0.5610  0.1442
   90MOL   C24527123   6.966   2.581   2.575 -0.1543 -0.4175  0.4073
   90MOL   C24627124   6.917   2.514   2.690  0.5718  0.9939  0.6402
   90MOL   C24727125   6.776   2.515   2.714 -0.3401 -0.1639  0.5885
   90MOL   C24827126   6.703   2.610   2.636  0.2757  0.7784  0.2712
   90MOL   N24927127   6.750   2.684   2.538 -0.2233  0.6292 -0.8070
   90MOL   H25027128   6.810   2.938   2.447  0.1610  1.4905 -0.0676
   90MOL   H25127129   6.924   2.910   2.567 -2.5697 -3.0243 -0.5272
   90MOL   H25227130   7.046   2.749   2.397  0.3599  0.5621 -0.8529
   90MOL   H25327131   7.074   2.576   2.564 -0.0212  2.8402 -0.3868
   90MOL   H25427132   6.981   2.450   2.748  0.0985 -0.6294 -0.5870
   90MOL   H25527133   6.726   2.460   2.792 -1.2229 -1.4199 -0.8381
   90MOL   H25627134   6.601   2.616   2.670  0.6669  2.2435  1.2422
   90MOL   C25727135   6.878   2.745   2.270  0.1577 -1.2013  0.2437
   90MOL   C25827136   6.898   2.608   2.199  0.0377  0.2047  0.0102
   90MOL   C25927137   6.783   2.593   2.101  0.7283  1.3057 -1.4171
   90MOL   C26027138   6.689   2.488   2.135  0.1871 -0.5924  0.0998
   90MOL   C26127139   6.571   2.472   2.064 -0.2436  0.0216 -0.2320
   90MOL   C26227140   6.549   2.570   1.963  0.0402 -0.6800 -0.3516
   90MOL   C26327141   6.644   2.675   1.939  0.2755  0.3330 -0.0087
   90MOL   N26427142   6.762   2.681   2.003  0.0177  0.8092 -0.2578
   90MOL   H26527143   6.920   2.821   2.204 -1.9313  0.4994  0.8423
   90MOL   H26627144   6.773   2.771   2.271 -0.2051 -2.6645  0.7990
   90MOL   H26727145   6.886   2.532   2.276  0.8564 -0.0401 -0.1048
   90MOL   H26827146   6.723   2.410   2.201  1.6342 -0.6365 -0.6508
   90MOL   H26927147   6.499   2.393   2.082  2.5225 -2.4191  0.3866
   90MOL   H27027148   6.457   2.563   1.906 -1.3308 -2.7828  2.0306
   90MOL   H27127149   6.615   2.759   1.878 -0.8093  0.1718  0.2881
   90MOL   C27227150   7.037   2.597   2.130  0.3107 -0.1665  0.7748
   90MOL   C27327151   7.060   2.447   2.092  0.3510 -0.2836 -0.7755
   90MOL   C27427152   7.191   2.434   2.010 -0.1375 -0.1846  0.6178
   90MOL   C27527153   7.198   2.367   1.878  0.2246  0.2760 -0.1071
   90MOL   C27627154   7.320   2.356   1.809 -0.1233  0.1132  0.0091
   90MOL   C27727155   7.436   2.421   1.859 -0.0711  0.4213  0.1546
   90MOL   C27827156   7.418   2.493   1.978 -1.0160  0.3566 -0.2084
   90MOL   N27927157   7.307   2.494   2.054 -0.0641 -0.5067  0.0629
   90MOL   H28027158   7.122   2.618   2.195  2.7151 -0.8856 -2.0158
   90MOL   H28127159   7.040   2.660   2.041 -0.4737  1.5090  1.9281
   90MOL   H28227160   6.980   2.401   2.034  0.9739 -0.9695 -1.1014
   90MOL   H28327161   7.110   2.325   1.832 -0.1583  0.8579  0.0845
   90MOL   H28427162   7.309   2.306   1.714  1.3765  2.7238 -1.6317
   90MOL   H28527163   7.534   2.420   1.814  1.1002 -0.8036  2.6915
   90MOL   H28627164   7.508   2.533   2.022 -0.5568 -0.3322 -0.5086
   90MOL   C28727165   7.071   2.352   2.218  0.1810  0.7577 -0.2516
   90MOL   C28827166   7.121   2.213   2.195  0.2622 -0.8693  0.3964
   90MOL   C28927167   7.138   2.124   2.314  0.7070  0.1394  0.0223
   90MOL   C29027168   7.225   2.165   2.423 -0.0110  0.0300  0.2286
   90MOL   C29127169   7.241   2.071   2.527  0.1468 -0.2817 -0.1724
   90MOL   C29227170   7.166   1.948   2.530 -0.8598  0.3851 -0.1344
   90MOL   C29327171   7.082   1.920   2.418 -0.4906 -0.1240  0.4068
   90MOL   N29427172   7.075   2.005   2.312  0.3547 -0.3183  1.0031
   90MOL   H29527173   6.974   2.337   2.265 -0.7021  2.5985 -1.4450
   90MOL   H29627174   7.138   2.401   2.289 -0.3046 -2.3214  2.4530
   90MOL   H29727175   7.221   2.199   2.154  0.2160  0.2021 -0.0970
   90MOL   H29827176   7.281   2.257   2.417  0.7210 -0.3113  1.5837
   90MOL   H29927177   7.306   2.098   2.609 -1.6589  1.7629  0.6320
   90MOL   H30027178   7.173   1.878   2.612  1.9606 -0.1371 -0.7804
   90MOL   H30127179   7.031   1.824   2.419  1.0464 -0.9998 -1.7323
   90MOL   H30227180   7.054   2.167   2.123  0.6781  0.9365 -1.1907
   91MOL     C127181   0.436   0.875   4.100  0.0108  0.4046  0.6752
   91MOL     C227182   0.349   0.888   3.981  0.4306 -0.7038 -0.1628
   91MOL     C327183   0.283   0.761   3.937  0.0658 -0.2042  0.1747
   91MOL     C427184   0.324   0.698   3.820 -0.4903 -0.0727  0.1196
   91MOL     C527185   0.258   0.580   3.781 -0.4220  0.3383 -0.4116
   91MOL     C627186   0.159   0.529   3.857  0.5991 -0.2729 -1.0686
   91MOL     C727187   0.133   0.592   3.981  0.3906  0.8666  0.2054
   91MOL     N827188   0.191   0.708   4.015 -0.5460 -1.1455 -0.6862
   91MOL     H927189   0.477   0.974   4.122  3.9392 -1.8425  4.0744
   91MOL    H1027190   0.380   0.838   4.186 -0.8880  3.1147  1.3063
   91MOL    H1127191   0.411   0.924   3.899 -1.4040  0.3599 -1.1267
   91MOL    H1227192   0.410   0.733   3.764 -0.1976 -0.3620  0.3854
   91MOL    H1327193   0.282   0.530   3.688  1.0562 -0.6301  0.4729
   91MOL    H1427194   0.118   0.434   3.825  0.2278  0.2676 -2.2072
   91MOL    H1527195   0.060   0.541   4.043  1.7595 -0.5184  0.7027
   91MOL    H1627196   0.518   0.806   4.081  0.6425  0.7859  2.0171
   91MOL    C1727197   0.243   1.009   3.987 -0.6647  0.2141  0.3603
   91MOL    C1827198   0.178   1.061   3.859  0.7943 -0.0821  0.1232
   91MOL    C1927199   0.027   1.036   3.856  0.0280  0.4700  0.1858
   91MOL    C2027200   8.118   0.943   3.767 -0.1958  0.4769  0.4863
   91MOL    C2127201   7.978   0.935   3.769 -0.1543 -0.1123  0.1327
   91MOL    C2227202   7.909   1.021   3.855 -0.4224  0.0268  0.3142
   91MOL    C2327203   7.982   1.100   3.946  0.6404  1.0379 -0.2520
   91MOL    N2427204   8.114   1.114   3.944 -0.1858  0.2069  0.6752
   91MOL    H2527205   0.288   1.094   4.038 -0.6308  0.6072 -0.3149
   91MOL    H2627206   0.168   0.967   4.054 -1.8796 -1.2988 -1.8712
   91MOL    H2727207   0.211   1.000   3.775 -0.4297 -1.6954  0.7798
   91MOL    H2827208   0.031   0.876   3.712 -2.0259 -0.2439 -0.8505
   91MOL    H2927209   7.922   0.879   3.696  1.0806  1.1802 -1.8814
   91MOL    H3027210   7.801   1.025   3.862 -0.3320  0.9398  1.2748
   91MOL    H3127211   7.933   1.161   4.020 -1.7602  0.5853 -1.4141
   91MOL    C3227212   0.224   1.201   3.834 -0.0840  0.1427 -0.4719
   91MOL    C3327213   0.181   1.262   3.692 -0.5792  0.4673  0.0436
   91MOL    C3427214   0.235   1.400   3.685  0.4196  0.8253  0.8097
   91MOL    C3527215   0.157   1.513   3.708  0.2640  0.0489 -0.9958
   91MOL    C3627216   0.218   1.644   3.703 -0.5201 -0.1722 -0.1804
   91MOL    C3727217   0.357   1.652   3.684 -0.2632 -0.1236 -0.5505
   91MOL    C3827218   0.430   1.530   3.651 -0.4330  0.7323 -0.4430
   91MOL    N3927219   0.373   1.408   3.664  0.7637  0.2576  1.0797
   91MOL    H4027220   0.331   1.198   3.852 -0.6237 -0.7295  2.8289
   91MOL    H4127221   0.186   1.265   3.914  2.4761 -1.0084  1.7389
   91MOL    H4227222   0.073   1.268   3.704 -0.5772 -2.4724  2.0179
   91MOL    H4327223   0.051   1.494   3.715  0.3415 -1.1016 -2.6728
   91MOL    H4427224   0.165   1.736   3.720  0.4907  0.6397 -1.3305
   91MOL    H4527225   0.414   1.743   3.689 -0.8307  0.3691 -2.7425
   91MOL    H4627226   0.535   1.528   3.625 -0.9625 -1.4948 -2.5591
   91MOL    C4727227   0.211   1.178   3.567 -0.8063  0.3367 -0.9120
   91MOL    C4827228   0.209   1.239   3.426  0.1359 -0.3768  0.4741
   91MOL    C4927229   0.238   1.120   3.330 -0.0733  0.1895 -0.8648
   91MOL    C5027230   0.139   1.025   3.305  0.0121  0.2207 -0.3916
   91MOL    C5127231   0.169   0.921   3.217 -0.0813  0.2210  0.3488
   91MOL    C5227232   0.290   0.915   3.150  0.1415  0.7228 -0.2446
   91MOL    C5327233   0.376   1.019   3.176  0.2892  0.1525 -0.1064
   91MOL    N5427234   0.360   1.114   3.272 -0.7956 -0.4181  0.3813
   91MOL    H5527235   0.146   1.090   3.571  0.7542 -0.7878  0.9226
   91MOL    H5627236   0.315   1.147   3.582 -0.7030  1.0286 -0.1668
   91MOL    H5727237   0.298   1.302   3.436 -0.9615  1.3501 -0.3684
   91MOL    H5827238   0.045   1.019   3.357  1.0958  0.8046  1.6663
   91MOL    H5927239   0.097   0.846   3.186 -0.0019  0.7217 -1.0868
   91MOL    H6027240   0.317   0.833   3.085 -1.9237 -0.5907  0.5113
   91MOL    H6127241   0.479   1.032   3.147  0.6868 -0.1613  1.1464
   91MOL    C6227242   0.086   1.332   3.399  0.1771  0.4644  0.5327
   91MOL    C6327243   0.055   1.361   3.248 -0.3965  0.8028  0.1809
   91MOL    C6427244   8.067   1.318   3.218 -0.4410  0.3298 -0.8227
   91MOL    C6527245   8.036   1.226   3.122 -0.9761  0.6892  0.6641
   91MOL    C6627246   7.910   1.177   3.111  0.1392 -0.5312  0.0521
   91MOL    C6727247   7.807   1.229   3.195  0.2147  0.8060 -0.0348
   91MOL    C6827248   7.841   1.335   3.280  0.1175 -0.4766 -0.2007
   91MOL    N6927249   7.969   1.378   3.288 -0.3173 -0.1386 -0.1339
   91MOL    H7027250   0.098   1.427   3.452  0.5415 -0.1920  1.6229
   91MOL    H7127251   0.001   1.283   3.447  0.5738  1.0559  1.8577
   91MOL    H7227252   0.123   1.294   3.196  0.2365  1.4424  0.1786
   91MOL    H7327253   8.112   1.180   3.061 -0.8023 -0.1926  1.5359
   91MOL    H7427254   7.883   1.098   3.042 -0.1655  0.8126 -1.4132
   91MOL    H7527255   7.706   1.193   3.189  0.1938  1.0567 -1.2878
   91MOL    H7627256   7.770   1.394   3.335 -0.1293  0.3397 -1.3894
   91MOL    C7727257   0.075   1.504   3.203  0.2798 -1.2043 -0.4049
   91MOL    C7827258   0.212   1.572   3.234  0.1943 -0.7188  0.3174
   91MOL    C7927259   0.338   1.508   3.175  0.8077  0.2722  0.4345
   91MOL    C8027260   0.453   1.488   3.248  0.1319 -0.2274 -0.3215
   91MOL    C8127261   0.557   1.419   3.185 -1.0984  0.4777  0.5671
   91MOL    C8227262   0.536   1.373   3.052  0.2799  0.0504 -0.3581
   91MOL    C8327263   0.417   1.408   2.982 -0.3043 -0.1748  0.0433
   91MOL    N8427264   0.319   1.480   3.048 -0.5991 -0.0421  0.8646
   91MOL    H8527265   8.149   1.565   3.250 -0.0033 -0.1470 -2.1939
   91MOL    H8627266   0.040   1.520   3.101 -1.6936 -1.5531  0.1942
   91MOL    H8727267   0.236   1.568   3.340  3.2268 -0.2333 -0.2822
   91MOL    H8827268   0.468   1.523   3.349 -1.8982 -0.1110 -0.0516
   91MOL    H8927269   0.656   1.403   3.224 -0.4729  2.5175 -0.1497
   91MOL    H9027270   0.602   1.303   3.003  0.7950  1.5375 -1.8345
   91MOL    H9127271   0.401   1.372   2.882  0.5039  1.5751 -0.7406
   91MOL    C9227272   0.208   1.727   3.208 -1.0612 -0.2273 -0.2831
   91MOL    C9327273   0.298   1.815   3.315  0.1995 -0.5759  0.4749
   91MOL    C9427274   0.446   1.801   3.290 -0.2347 -0.8941 -0.5358
   91MOL    C9527275   0.538   1.775   3.393 -0.1630  0.4497 -0.6098
   91MOL    C9627276   0.678   1.769   3.361  0.3649 -1.1792 -0.0264
   91MOL    C9727277   0.719   1.799   3.231  0.2674 -0.0081  0.4967
   91MOL    C9827278   0.616   1.819   3.131  0.1808 -0.1279  0.3840
   91MOL    N9927279   0.488   1.818   3.163  0.5676 -0.5088 -0.2020
   91MOL   H10027280   0.104   1.757   3.216 -1.3631 -0.8531 -1.6675
   91MOL   H10127281   0.236   1.755   3.106 -0.6083  0.5555  0.0526
   91MOL   H10227282   0.281   1.773   3.414 -1.7010  0.3410  0.5675
   91MOL   H10327283   0.499   1.744   3.489 -0.2633  0.8300 -0.5250
   91MOL   H10427284   0.743   1.749   3.445  1.8485  2.3691 -0.2150
   91MOL   H10527285   0.824   1.806   3.208 -0.0385 -2.0929 -1.7473
   91MOL   H10627286   0.647   1.848   3.031  0.0729 -3.2539 -0.6140
   91MOL   C10727287   0.252   1.966   3.321  0.0679 -0.4692 -0.3678
   91MOL   C10827288   0.342   2.055   3.420 -0.0291 -0.2494  0.6440
   91MOL   C10927289   0.345   2.202   3.383  0.2528 -0.3248 -0.3667
   91MOL   C11027290   0.471   2.260   3.354  0.3972 -0.3815  0.9662
   91MOL   C11127291   0.473   2.399   3.327 -0.7911 -0.3037 -0.5825
   91MOL   C11227292   0.350   2.475   3.347  0.2869 -0.0887  0.1680
   91MOL   C11327293   0.233   2.404   3.380  0.9277  0.1126  0.4997
   91MOL   N11427294   0.232   2.273   3.397 -0.9964  0.8366  0.8973
   91MOL   H11527295   0.146   1.985   3.338  0.0792 -1.0806  0.4077
   91MOL   H11627296   0.263   2.010   3.222 -2.0830 -1.0975 -0.9218
   91MOL   H11727297   0.445   2.023   3.407 -0.1346 -0.0024 -0.9080
   91MOL   H11827298   0.558   2.198   3.335  0.9299  0.7358 -0.3513
   91MOL   H11927299   0.561   2.450   3.293  1.1282 -1.3553  2.5885
   91MOL   H12027300   0.345   2.583   3.346  1.2693 -0.0222  1.3475
   91MOL   H12127301   0.140   2.458   3.390  1.8056  1.4310  1.7133
   91MOL   C12227302   0.316   2.036   3.572 -0.5443 -0.0004 -0.1073
   91MOL   C12327303   0.378   2.130   3.673  0.4850 -0.3916  0.0042
   91MOL   C12427304   0.303   2.114   3.801 -0.1845 -0.6688  0.7205
   91MOL   C12527305   0.230   2.217   3.864 -0.1894 -0.1374  0.0017
   91MOL   C12627306   0.154   2.179   3.983  0.1366  0.0188  0.3169
   91MOL   C12727307   0.167   2.048   4.031  0.6042 -1.4280 -0.2332
   91MOL   C12827308   0.244   1.956   3.957 -0.7978 -0.0297 -0.4613
   91MOL   N12927309   0.313   1.984   3.850  0.1693  0.0006  0.2160
   91MOL   H13027310   0.355   1.936   3.592  0.9917  0.5811 -0.2048
   91MOL   H13127311   0.207   2.034   3.583 -0.6012  2.6723  0.1311
   91MOL   H13227312   0.361   2.235   3.647 -2.3381 -0.0823  2.8432
   91MOL   H13327313   0.232   2.318   3.827  0.5843  0.1334  0.7555
   91MOL   H13427314   0.096   2.251   4.038  1.4329  3.0496 -2.0701
   91MOL   H13527315   0.117   2.008   4.119  0.1766  0.4728  0.4157
   91MOL   H13627316   0.257   1.854   3.991  1.1419 -0.0401 -1.1444
   91MOL   C13727317   0.538   2.119   3.673  0.1895 -0.3139  0.1684
   91MOL   C13827318   0.619   2.219   3.753 -0.0911  0.4812  0.0977
   91MOL   C13927319   0.763   2.164   3.754 -0.2943 -0.1015  1.3729
   91MOL   C14027320   0.831   2.115   3.871  0.3358  0.0752  0.0744
   91MOL   C14127321   0.963   2.063   3.858  0.1443 -0.8542 -0.2827
   91MOL   C14227322   1.022   2.057   3.730 -0.3784  0.0920 -0.0955
   91MOL   C14327323   0.943   2.105   3.623 -0.9398  0.2764  0.0529
   91MOL   N14427324   0.828   2.167   3.632  0.0213 -0.1615  0.1051
   91MOL   H14527325   0.578   2.089   3.576 -1.2287 -0.5931 -0.3598
   91MOL   H14627326   0.559   2.019   3.711 -1.3329 -1.1936 -1.2233
   91MOL   H14727327   0.586   2.208   3.857  1.3440  1.3983  0.6674
   91MOL   H14827328   0.773   2.093   3.959 -0.1491 -0.4409 -0.3740
   91MOL   H14927329   1.007   2.019   3.946 -3.3662 -1.2552  1.3727
   91MOL   H15027330   1.109   1.994   3.724 -0.2234  0.2300  0.6452
   91MOL   H15127331   0.992   2.099   3.527 -0.0090 -0.4393  0.5634
   91MOL   C15227332   0.609   2.361   3.697 -0.3882  0.5550 -0.0769
   91MOL   C15327333   0.698   2.474   3.767 -0.3832  0.0128 -0.4252
   91MOL   C15427334   0.771   2.559   3.668  0.2829  0.2587  0.2281
   91MOL   C15527335   0.903   2.531   3.643  0.2092  0.1173  0.4377
   91MOL   C15627336   0.965   2.605   3.538  0.7683  0.5544  0.0207
   91MOL   C15727337   0.889   2.684   3.455 -0.5491  0.3070 -0.5785
   91MOL   C15827338   0.751   2.700   3.491  0.2177 -0.6081  0.2612
   91MOL   N15927339   0.699   2.650   3.606 -0.4806 -0.3220  0.2125
   91MOL   H16027340   0.508   2.398   3.711 -0.4045  0.7255 -0.6111
   91MOL   H16127341   0.629   2.358   3.589  1.2533  1.9379  0.1585
   91MOL   H16227342   0.774   2.418   3.821 -0.4155 -1.1193 -1.5353
   91MOL   H16327343   0.962   2.455   3.691  1.6701  1.9525  1.6226
   91MOL   H16427344   1.064   2.585   3.500  1.4162  3.4621  0.1056
   91MOL   H16527345   0.938   2.735   3.373 -2.2673  0.7671 -1.3435
   91MOL   H16627346   0.688   2.762   3.428  1.2582 -0.4765 -0.6659
   91MOL   C16727347   0.624   2.571   3.870  0.0715 -0.2668  0.4555
   91MOL   C16827348   0.708   2.679   3.937 -0.4144 -0.8731 -0.1575
   91MOL   C16927349   0.639   2.814   3.929 -0.0897  0.2842  0.7400
   91MOL   C17027350   0.688   2.910   3.840  0.0034  0.4630 -0.0650
   91MOL   C17127351   0.615   3.027   3.820 -0.4314 -0.2267 -0.3634
   91MOL   C17227352   0.501   3.041   3.894 -0.1559  0.4221  0.8181
   91MOL   C17327353   0.449   2.940   3.982 -0.1614  0.7322 -0.4542
   91MOL   N17427354   0.521   2.826   3.995 -0.0479 -0.7543 -0.3943
   91MOL   H17527355   0.573   2.505   3.940 -0.8432  0.0476  0.0948
   91MOL   H17627356   0.544   2.603   3.803  1.1605 -0.8331 -1.1432
   91MOL   H17727357   0.802   2.688   3.882  0.4186  0.6317  1.4393
   91MOL   H17827358   0.784   2.908   3.790  0.3275  0.1287  0.5583
   91MOL   H17927359   0.644   3.110   3.757 -1.4478  0.2571 -0.1985
   91MOL   H18027360   0.453   3.137   3.889  0.8343  0.9492  1.2205
   91MOL   H18127361   0.361   2.954   4.044 -0.2457 -0.0690 -0.3847
   91MOL   C18227362   0.750   2.656   4.086 -0.6499 -0.7477  0.5148
   91MOL   C18327363   0.843   2.543   4.129 -0.0282 -0.0395  0.2361
   91MOL   C18427364   0.985   2.565   4.072 -0.7933 -0.5527  0.4230
   91MOL   C18527365   1.049   2.467   3.999 -0.1871  0.3002  0.5418
   91MOL   C18627366   1.190   2.476   3.987  0.4033  0.0499  0.1957
   91MOL   C18727367   1.256   2.586   4.040  0.1312 -0.1074  0.2861
   91MOL   C18827368   1.182   2.684   4.108  0.3790 -0.0663  0.3377
   91MOL   N18927369   1.048   2.673   4.121 -0.0965 -0.5266  0.4538
   91MOL   H19027370   0.667   2.655   4.156 -1.3124  1.6033 -0.1958
   91MOL   H19127371   0.792   2.752   4.116 -1.0178 -0.6405  0.6927
   91MOL   H19227372   0.814   2.450   4.081 -0.8751  0.8808 -1.0537
   91MOL   H19327373   0.997   2.378   3.968 -1.8229  0.0338  3.8540
   91MOL   H19427374   1.237   2.390   3.942  0.3242  0.5380 -0.8220
   91MOL   H19527375   1.362   2.599   4.027  0.4051 -2.9828 -0.6032
   91MOL   H19627376   1.232   2.763   4.162 -0.4458  2.3141 -2.2489
   91MOL   C19727377   0.854   2.503   4.282  0.0399 -0.1048  0.5445
   91MOL   C19827378   0.725   2.450   4.352  0.4704  0.0630  0.8705
   91MOL   C19927379   0.666   2.335   4.271 -0.2791 -0.7482  0.5143
   91MOL   C20027380   0.549   2.354   4.193 -0.3569  0.4023 -0.3497
   91MOL   C20127381   0.497   2.242   4.127  0.6307  0.3657 -0.7787
   91MOL   C20227382   0.570   2.120   4.126 -0.7997  0.0297 -0.0652
   91MOL   C20327383   0.690   2.110   4.203  0.0680  0.0332  0.3097
   91MOL   N20427384   0.739   2.220   4.264 -0.1421 -0.2829 -0.6204
   91MOL   H20527385   0.894   2.584   4.342 -0.1623  0.9649 -0.7444
   91MOL   H20627386   0.930   2.425   4.286  0.0126 -0.1605  0.0266
   91MOL   H20727387   0.641   2.520   4.353 -0.4280 -0.9020 -1.3544
   91MOL   H20827388   0.505   2.451   4.177  2.7885  1.9505  0.1087
   91MOL   H20927389   0.410   2.241   4.063 -0.5575  1.1166  0.8131
   91MOL   H21027390   0.535   2.031   4.076  0.6309 -1.3948  1.4519
   91MOL   H21127391   0.761   2.028   4.190 -0.1833 -0.4199  1.6553
   91MOL   C21227392   0.741   2.407   4.502  0.1468  0.2020 -0.4893
   91MOL   C21327393   0.819   2.513   4.586  0.8285 -0.8173 -1.0503
   91MOL   C21427394   0.755   2.653   4.590 -0.6241  0.3068  0.0314
   91MOL   C21527395   0.824   2.772   4.568 -0.4766 -0.2806  0.2610
   91MOL   C21627396   0.743   2.884   4.581  0.2934  0.6486  0.2294
   91MOL   C21727397   0.604   2.881   4.607 -0.4615 -0.3440 -0.4570
   91MOL   C21827398   0.551   2.752   4.619 -0.0897 -0.0893 -0.3617
   91MOL   N21927399   0.626   2.644   4.612  0.0976 -0.1563  0.3298
   91MOL   H22027400   0.803   2.318   4.508  0.1793  0.2753  0.3385
   91MOL   H22127401   0.639   2.395   4.538 -0.1213  2.7485 -0.3083
   91MOL   H22227402   0.923   2.518   4.553  1.2982 -0.3991  0.3944
   91MOL   H22327403   0.926   2.773   4.533 -0.3877 -0.4850  0.5128
   91MOL   H22427404   0.788   2.982   4.569  2.6774 -0.2502  1.5680
   91MOL   H22527405   0.548   2.971   4.623 -1.1012 -0.3972 -2.2855
   91MOL   H22627406   0.448   2.738   4.650 -0.7536  2.7358 -1.1652
   91MOL   C22727407   0.839   2.455   4.735 -0.4049 -0.4055  0.2118
   91MOL   C22827408   0.913   2.548   4.832 -0.0959  1.0947  0.4503
   91MOL   C22927409   0.905   2.493   4.973  0.5942  0.1225  0.8945
   91MOL   C23027410   0.847   2.574   5.071 -0.4802 -0.1196 -0.3767
   91MOL   C23127411   0.829   2.521   5.195 -0.0887  0.4545  0.5048
   91MOL   C23227412   0.880   2.393   5.219 -0.2736  0.1576  0.2089
   91MOL   C23327413   0.948   2.324   5.120  0.1587  0.2353 -0.2864
   91MOL   N23427414   0.953   2.364   4.992 -0.6090  0.0308 -1.0818
   91MOL   H23527415   0.888   2.358   4.724 -0.6008 -0.3758 -0.9825
   91MOL   H23627416   0.737   2.446   4.772 -0.1177  0.0029  1.1078
   91MOL   H23727417   0.851   2.638   4.836 -1.8757 -0.0924  0.2270
   91MOL   H23827418   0.822   2.678   5.058 -0.4968 -0.0380  0.2732
   91MOL   H23927419   0.789   2.579   5.276 -1.4356 -1.4050  1.2197
   91MOL   H24027420   0.880   2.350   5.318  1.6888 -1.0972 -0.3097
   91MOL   H24127421   0.983   2.223   5.135 -2.6514 -1.0009 -1.7792
   91MOL   C24227422   1.059   2.583   4.786 -0.3572 -0.1704  0.0889
   91MOL   C24327423   1.112   2.705   4.865 -0.3818 -1.0619 -0.8714
   91MOL   C24427424   1.262   2.718   4.858  0.5475  0.1493  0.1709
   91MOL   C24527425   1.332   2.729   4.981  0.1314 -0.2553 -0.7697
   91MOL   C24627426   1.469   2.737   4.976  0.5082 -0.8471  0.2283
   91MOL   C24727427   1.533   2.730   4.851  0.3671  0.2403 -0.2515
   91MOL   C24827428   1.452   2.717   4.733 -0.6704  0.0643 -0.2329
   91MOL   N24927429   1.319   2.722   4.739  0.3190 -0.3192  0.0954
   91MOL   H25027430   1.062   2.625   4.686 -0.1969  0.3795  0.3248
   91MOL   H25127431   1.126   2.499   4.802  3.3988  2.1342 -2.7590
   91MOL   H25227432   1.087   2.686   4.969 -0.8139  0.6911 -0.6415
   91MOL   H25327433   1.282   2.738   5.076  1.2820  1.4180 -0.2797
   91MOL   H25427434   1.525   2.748   5.068  0.0852 -2.7917  0.7483
   91MOL   H25527435   1.641   2.735   4.850  0.3005  2.8245 -1.5701
   91MOL   H25627436   1.494   2.734   4.635 -1.2443  0.9845 -0.3227
   91MOL   C25727437   1.040   2.839   4.823 -0.9458  0.1130  0.1178
   91MOL   C25827438   1.104   2.975   4.868  0.2259 -0.1921  0.7527
   91MOL   C25927439   1.063   3.094   4.776  0.5259  0.5302 -0.1881
   91MOL   C26027440   1.168   3.173   4.724  0.4569  0.1804 -0.5746
   91MOL   C26127441   1.140   3.290   4.652  0.5068  0.1660  0.0881
   91MOL   C26227442   1.007   3.326   4.647  0.4154  0.1514  0.4795
   91MOL   C26327443   0.908   3.252   4.711  0.1465 -0.1757  0.3474
   91MOL   N26427444   0.933   3.132   4.775 -0.1365  0.1179  0.5963
   91MOL   H26527445   0.935   2.825   4.850 -0.9835  0.1601 -0.0032
   91MOL   H26627446   1.057   2.842   4.715 -0.5722  0.8658  0.1971
   91MOL   H26727447   1.212   2.972   4.852 -0.0409 -1.5345 -0.9932
   91MOL   H26827448   1.270   3.141   4.740  0.4854 -0.7534 -2.4419
   91MOL   H26927449   1.216   3.351   4.607  1.7959 -1.8238 -0.4607
   91MOL   H27027450   0.978   3.416   4.594  0.1884  0.6635  1.4744
   91MOL   H27127451   0.806   3.287   4.707  0.8569  1.8791 -0.6107
   91MOL   C27227452   1.079   3.012   5.012 -0.3054  0.3817  0.2171
   91MOL   C27327453   1.164   3.130   5.068  0.2375  0.4833  0.2770
   91MOL   C27427454   1.112   3.174   5.204  0.2509 -0.1897 -0.1360
   91MOL   C27527455   1.094   3.309   5.239  0.2192  0.2146  0.0719
   91MOL   C27627456   1.055   3.336   5.369 -0.2429  0.6276 -0.2759
   91MOL   C27727457   1.040   3.230   5.459  0.5238 -0.0363  0.1102
   91MOL   C27827458   1.064   3.099   5.415  0.7744  0.2149  0.1168
   91MOL   N27927459   1.099   3.074   5.290  0.2943 -0.1477  0.6223
   91MOL   H28027460   1.088   2.921   5.072  2.3842  1.8596  2.1451
   91MOL   H28127461   0.975   3.038   5.030  0.1788  0.9472  2.2529
   91MOL   H28227462   1.145   3.213   5.000 -0.9052 -2.2603 -2.9021
   91MOL   H28327463   1.114   3.386   5.165  0.0880 -0.9790 -1.2228
   91MOL   H28427464   1.047   3.439   5.403  0.6823  0.6689 -0.1644
   91MOL   H28527465   1.030   3.246   5.565 -1.1432 -1.9292  0.2640
   91MOL   H28627466   1.047   3.014   5.480  0.7458  0.5480  0.5505
   91MOL   C28727467   1.318   3.096   5.072  0.0583  0.9160 -0.0339
   91MOL   C28827468   1.406   3.194   5.156 -0.5042 -0.0693  0.3013
   91MOL   C28927469   1.544   3.180   5.104 -0.2920 -0.3009  0.6098
   91MOL   C29027470   1.616   3.289   5.048 -0.1504  0.5082  0.6035
   91MOL   C29127471   1.751   3.265   5.008  0.7565 -0.0380 -0.4515
   91MOL   C29227472   1.804   3.133   5.024 -0.1043  0.4548  0.0593
   91MOL   C29327473   1.726   3.031   5.084 -0.9999 -1.1894  1.2828
   91MOL   N29427474   1.598   3.053   5.124 -0.0948  0.0827 -0.3824
   91MOL   H29527475   1.351   3.104   4.968 -0.1582 -1.8256 -0.3483
   91MOL   H29627476   1.349   2.995   5.099  1.6719  1.2420 -0.6320
   91MOL   H29727477   1.400   3.168   5.261 -2.3014 -0.6200  0.0779
   91MOL   H29827478   1.571   3.386   5.031 -0.9244  0.1865  0.7955
   91MOL   H29927479   1.803   3.339   4.949  2.0415  0.2137  0.9687
   91MOL   H30027480   1.900   3.095   4.991 -0.1133 -1.6778  2.3504
   91MOL   H30127481   1.769   2.933   5.094 -1.7377 -1.5171  1.3068
   91MOL   H30227482   1.364   3.293   5.141 -0.8648 -0.0492  1.4429
   92MOL     C127483   4.868   3.177   0.492  0.9055  0.3905 -0.1732
   92MOL     C227484   4.824   3.123   0.628  1.1036 -0.9325 -0.0094
   92MOL     C327485   4.680   3.080   0.626  0.1667  0.5874 -0.0881
   92MOL     C427486   4.572   3.164   0.666 -0.4662  0.0786  0.3250
   92MOL     C527487   4.443   3.113   0.655  0.7193  0.7101  0.1219
   92MOL     C627488   4.425   2.980   0.610  0.4171 -0.3758  0.4432
   92MOL     C727489   4.536   2.903   0.566  0.0753 -0.3205 -0.6466
   92MOL     N827490   4.657   2.957   0.578 -0.7186  0.2947 -0.1909
   92MOL     H927491   4.949   3.249   0.500  1.8327 -0.3415 -2.5111
   92MOL    H1027492   4.893   3.101   0.418 -1.5777  0.2779 -0.9729
   92MOL    H1127493   4.817   3.212   0.692  1.8305 -0.2657 -0.8400
   92MOL    H1227494   4.582   3.267   0.699 -2.6921  0.8202 -1.2229
   92MOL    H1327495   4.363   3.166   0.706 -1.4547 -3.1369  0.8853
   92MOL    H1427496   4.323   2.946   0.600  0.3277 -0.2720  1.0128
   92MOL    H1527497   4.529   2.806   0.519  0.0347  0.0624 -1.4576
   92MOL    H1627498   4.785   3.233   0.446 -1.6304 -1.3715  2.1207
   92MOL    C1727499   4.914   3.016   0.697  0.4415  0.4553 -0.3380
   92MOL    C1827500   5.056   3.057   0.725 -0.2715  0.0362 -0.3570
   92MOL    C1927501   5.060   3.162   0.831  0.3493 -0.0247 -0.6270
   92MOL    C2027502   5.092   3.296   0.806 -0.1155  0.6111  0.2460
   92MOL    C2127503   5.102   3.386   0.915 -0.0333  0.0241 -0.1295
   92MOL    C2227504   5.077   3.333   1.046 -1.1663 -0.9679  0.4484
   92MOL    C2327505   5.047   3.200   1.057  1.0158 -0.1961 -0.0933
   92MOL    N2427506   5.035   3.117   0.954 -0.3108  0.5975 -0.0020
   92MOL    H2527507   4.912   2.919   0.647 -1.9699 -2.0313  4.2075
   92MOL    H2627508   4.871   2.987   0.793  0.0489  0.7225 -0.4272
   92MOL    H2727509   5.089   3.109   0.635  0.2803  2.8435  1.4073
   92MOL    H2827510   5.119   3.320   0.704 -0.0201 -3.1779 -0.6823
   92MOL    H2927511   5.133   3.489   0.902  1.9075 -0.5922 -0.6868
   92MOL    H3027512   5.076   3.392   1.137 -0.0023  0.9271 -0.7363
   92MOL    H3127513   5.009   3.156   1.148 -0.4689 -0.4079 -0.8000
   92MOL    C3227514   5.157   2.945   0.766  0.2147  0.3105  0.4899
   92MOL    C3327515   5.193   2.857   0.651  0.0928 -0.0263  0.5924
   92MOL    C3427516   5.235   2.935   0.520 -0.0225 -0.3387 -0.6759
   92MOL    C3527517   5.354   3.004   0.515 -0.6940  0.7113  0.5150
   92MOL    C3627518   5.378   3.090   0.404 -0.3036  0.4083 -0.2843
   92MOL    C3727519   5.281   3.104   0.309 -0.1491  0.3353  0.2971
   92MOL    C3827520   5.159   3.028   0.321  0.4090  0.9330  0.3845
   92MOL    N3927521   5.139   2.946   0.425  0.9237  0.3177  0.2330
   92MOL    H4027522   5.122   2.894   0.856 -0.6296  0.3399  0.1755
   92MOL    H4127523   5.252   2.991   0.796 -0.1836  1.7052 -0.3554
   92MOL    H4227524   5.098   2.810   0.626  0.7054 -1.3848  0.7930
   92MOL    H4327525   5.420   2.993   0.599  0.1998  1.1202 -0.1319
   92MOL    H4427526   5.463   3.156   0.409 -0.5516  0.8175 -1.4612
   92MOL    H4527527   5.302   3.162   0.221  1.6424  0.0347  0.5037
   92MOL    H4627528   5.084   3.031   0.243  0.2057  1.1438  0.5843
   92MOL    C4727529   5.282   2.736   0.680  0.4922  0.1507  0.4309
   92MOL    C4827530   5.263   2.623   0.575  0.8846  0.2171  0.2702
   92MOL    C4927531   5.389   2.544   0.546  0.1995  0.8422  0.3661
   92MOL    C5027532   5.446   2.523   0.421  0.3393  1.0868 -0.6802
   92MOL    C5127533   5.556   2.437   0.410  0.5399  0.8006 -0.1963
   92MOL    C5227534   5.610   2.383   0.530  0.2938  0.9189 -0.2312
   92MOL    C5327535   5.552   2.420   0.649 -0.4702 -0.1171  0.3537
   92MOL    N5427536   5.438   2.496   0.659 -0.2657 -0.2038  0.3561
   92MOL    H5527537   5.261   2.705   0.782 -1.6395 -0.8926 -0.2858
   92MOL    H5627538   5.386   2.766   0.691  0.4618 -0.4818  2.6511
   92MOL    H5727539   5.259   2.688   0.487  2.5605  0.8206  0.6362
   92MOL    H5827540   5.401   2.560   0.330 -0.5502  2.7567  0.4286
   92MOL    H5927541   5.609   2.431   0.316  1.8473 -0.1253  0.5689
   92MOL    H6027542   5.701   2.324   0.526 -0.7551 -0.8167  0.9067
   92MOL    H6127543   5.592   2.380   0.741  2.0619 -0.4124 -0.8241
   92MOL    C6227544   5.138   2.544   0.578 -0.2142 -0.5747  0.0033
   92MOL    C6327545   5.100   2.482   0.715  0.6008 -1.0022 -0.2932
   92MOL    C6427546   4.990   2.570   0.778 -0.7068 -0.7581  0.7813
   92MOL    C6527547   5.009   2.636   0.897  1.0374  0.5279 -0.7815
   92MOL    C6627548   4.899   2.710   0.944  0.4738  0.7657 -0.9347
   92MOL    C6727549   4.778   2.718   0.872  0.4893 -0.1050 -0.8234
   92MOL    C6827550   4.773   2.653   0.751 -0.2877 -0.2053 -0.1305
   92MOL    N6927551   4.876   2.580   0.703  0.0844 -0.1741  0.1069
   92MOL    H7027552   5.149   2.474   0.496  0.1180  1.2124 -1.5002
   92MOL    H7127553   5.059   2.608   0.540  0.0060 -1.1880 -1.5044
   92MOL    H7227554   5.180   2.491   0.788  1.4133  1.7737 -1.4455
   92MOL    H7327555   5.098   2.624   0.957 -0.8860 -1.2573  1.8249
   92MOL    H7427556   4.916   2.762   1.038  0.8630 -0.2121 -0.4586
   92MOL    H7527557   4.694   2.768   0.917 -0.6541 -2.0284 -0.7744
   92MOL    H7627558   4.681   2.659   0.694 -0.2697 -0.6816 -0.2066
   92MOL    C7727559   5.046   2.342   0.698 -0.0561  0.2953 -0.4894
   92MOL    C7827560   5.151   2.235   0.675 -0.9165 -0.6996  0.1143
   92MOL    C7927561   5.247   2.227   0.793 -0.1223 -0.2958  0.1662
   92MOL    C8027562   5.377   2.186   0.775  0.0383 -0.1231 -0.2565
   92MOL    C8127563   5.454   2.171   0.892  0.7820 -0.0893 -0.0799
   92MOL    C8227564   5.399   2.195   1.016 -0.3601  0.3688 -0.1906
   92MOL    C8327565   5.262   2.232   1.031 -0.6879 -0.7592  0.2592
   92MOL    N8427566   5.188   2.236   0.913 -0.1558 -0.3628 -0.7001
   92MOL    H8527567   4.974   2.347   0.616 -0.3457 -1.9460 -0.4065
   92MOL    H8627568   4.990   2.322   0.790 -1.7181 -0.1957 -1.5924
   92MOL    H8727569   5.211   2.251   0.585 -0.5217 -1.1348  0.2995
   92MOL    H8827570   5.419   2.168   0.677 -0.3684 -3.3133  0.0929
   92MOL    H8927571   5.559   2.143   0.891  0.7170 -0.3224 -0.6105
   92MOL    H9027572   5.453   2.167   1.105 -1.0236 -1.1097 -0.2442
   92MOL    H9127573   5.217   2.233   1.129 -3.8520 -0.2781 -1.1442
   92MOL    C9227574   5.097   2.092   0.653 -0.4162 -0.2844  0.8094
   92MOL    C9327575   5.003   2.078   0.533 -0.3723 -0.6114  0.4815
   92MOL    C9427576   5.057   2.141   0.409  0.1316 -0.5372  0.1271
   92MOL    C9527577   4.985   2.239   0.344  0.6983  0.2514  0.9787
   92MOL    C9627578   5.043   2.316   0.241 -0.5633 -0.6714  0.2778
   92MOL    C9727579   5.174   2.280   0.203  0.6634  0.6806  0.2409
   92MOL    C9827580   5.238   2.172   0.273  0.0687 -0.5338  0.1522
   92MOL    N9927581   5.179   2.101   0.369 -0.4428  0.0282  0.4726
   92MOL   H10027582   5.055   2.065   0.750 -1.6421 -0.8525  0.1278
   92MOL   H10127583   5.179   2.021   0.640 -0.0551  0.3528 -0.5237
   92MOL   H10227584   4.916   2.137   0.561 -0.9209 -0.1155 -2.1726
   92MOL   H10327585   4.889   2.268   0.384 -0.7644 -2.1061 -0.6841
   92MOL   H10427586   4.985   2.396   0.196 -0.0642 -0.8715 -0.7465
   92MOL   H10527587   5.230   2.341   0.132  0.9977  1.7135  1.3652
   92MOL   H10627588   5.340   2.141   0.255  0.0606  0.1500 -1.1312
   92MOL   C10727589   4.959   1.929   0.508  0.4572  0.0734 -0.0686
   92MOL   C10827590   4.865   1.907   0.385 -0.4850  0.2014  0.8902
   92MOL   C10927591   4.829   1.764   0.352  0.3098 -0.5859  0.8652
   92MOL   C11027592   4.869   1.711   0.231  0.0515  0.6215 -0.8099
   92MOL   C11127593   4.839   1.575   0.203 -0.1059 -0.5762  0.4191
   92MOL   C11227594   4.764   1.502   0.301 -0.8811  0.0034  0.0460
   92MOL   C11327595   4.725   1.566   0.416  0.0335  0.1756 -0.4341
   92MOL   N11427596   4.753   1.697   0.440 -0.4170 -0.3718  0.0868
   92MOL   H11527597   4.904   1.893   0.594  0.9370 -0.2463  0.1042
   92MOL   H11627598   5.051   1.875   0.486  0.7411  0.6446 -0.2898
   92MOL   H11727599   4.922   1.951   0.303 -2.7196  1.4794 -0.0485
   92MOL   H11827600   4.928   1.768   0.160  3.1533 -1.2777  0.1025
   92MOL   H11927601   4.875   1.530   0.112 -0.1851  0.3441 -0.0748
   92MOL   H12027602   4.741   1.399   0.279  0.2400 -0.3432  0.4606
   92MOL   H12127603   4.672   1.508   0.490 -0.1238 -0.7801 -1.2767
   92MOL   C12227604   4.738   1.986   0.380  0.0764  0.3401 -0.2332
   92MOL   C12327605   4.646   1.975   0.513  0.0965 -0.3276 -0.2254
   92MOL   C12427606   4.662   2.089   0.606 -1.2819  0.7949  0.0543
   92MOL   C12527607   4.715   2.067   0.739  0.1077  0.0466 -0.6528
   92MOL   C12627608   4.730   2.181   0.824  0.3210  0.4749  0.0787
   92MOL   C12727609   4.699   2.309   0.763  0.1817  0.2784  0.2935
   92MOL   C12827610   4.652   2.315   0.633  0.0916 -0.3375 -0.3865
   92MOL   N12927611   4.649   2.210   0.554 -0.0006  0.3841  0.4573
   92MOL   H13027612   4.688   1.954   0.289 -0.2601 -3.7873  1.2918
   92MOL   H13127613   4.750   2.092   0.357 -0.2644  0.6145  0.8058
   92MOL   H13227614   4.682   1.887   0.566  3.5187  0.2183 -1.5015
   92MOL   H13327615   4.744   1.969   0.775  1.4101  0.4013 -0.7156
   92MOL   H13427616   4.767   2.175   0.925 -1.0429 -1.5195  0.4882
   92MOL   H13527617   4.714   2.395   0.826  1.3578 -0.0407  0.4659
   92MOL   H13627618   4.628   2.406   0.579 -2.0659 -0.3278  0.5511
   92MOL   C13727619   4.489   1.971   0.484  0.1406  0.5765 -0.6868
   92MOL   C13827620   4.388   1.978   0.599 -0.0546 -0.4538 -0.3858
   92MOL   C13927621   4.244   1.991   0.538 -0.2040 -0.2643 -0.1426
   92MOL   C14027622   4.198   1.885   0.462  0.2910 -0.8065  0.6089
   92MOL   C14127623   4.060   1.895   0.413  0.3915  0.2403 -0.1626
   92MOL   C14227624   3.989   2.007   0.447 -0.1980 -0.5435  0.3227
   92MOL   C14327625   4.052   2.113   0.508 -0.3486 -0.2419 -0.3176
   92MOL   N14427626   4.179   2.106   0.555 -0.4365  0.4168  0.3475
   92MOL   H14527627   4.460   1.886   0.422 -2.2587  2.3904 -2.0971
   92MOL   H14627628   4.465   2.058   0.424 -0.1271 -0.3914 -2.0126
   92MOL   H14727629   4.423   2.065   0.654  2.5445 -0.4205 -2.0119
   92MOL   H14827630   4.255   1.795   0.447  0.4986 -0.8452  1.5543
   92MOL   H14927631   4.014   1.818   0.354  0.1956  0.7058 -0.6182
   92MOL   H15027632   3.884   2.005   0.419 -0.8070  1.2147  2.3672
   92MOL   H15127633   4.001   2.205   0.533 -2.8586 -1.7176  0.2171
   92MOL   C15227634   4.408   1.855   0.688  0.5115 -0.4298 -0.1545
   92MOL   C15327635   4.335   1.869   0.824  0.4731  0.1996  0.7781
   92MOL   C15427636   4.356   1.737   0.898  0.1553 -0.4552 -0.2540
   92MOL   C15527637   4.245   1.645   0.914  0.3133  0.7724 -0.2926
   92MOL   C15627638   4.272   1.517   0.973  0.1200 -0.2975  0.9630
   92MOL   C15727639   4.402   1.495   1.022  0.2667 -0.3525  0.7573
   92MOL   C15827640   4.500   1.594   1.006 -0.0590 -0.2582 -0.0863
   92MOL   N15927641   4.479   1.708   0.937 -0.2230  0.3081 -0.2789
   92MOL   H16027642   4.511   1.827   0.711  1.4999  0.4840 -3.1924
   92MOL   H16127643   4.376   1.763   0.640 -1.2221 -0.5057  1.0953
   92MOL   H16227644   4.227   1.881   0.808  0.4809 -0.0546  0.5332
   92MOL   H16327645   4.141   1.663   0.890 -0.8336  1.8237  4.8042
   92MOL   H16427646   4.191   1.446   0.984 -0.9140  0.7698  0.3640
   92MOL   H16527647   4.439   1.402   1.060  1.4839  0.1683  0.8695
   92MOL   H16627648   4.601   1.587   1.045 -0.6371 -0.8854  1.3271
   92MOL   C16727649   4.388   1.987   0.909  0.5691  0.1021 -0.0773
   92MOL   C16827650   4.306   2.116   0.907  0.3644 -0.2905 -0.1089
   92MOL   C16927651   4.177   2.102   0.988 -0.3910  0.2356  0.6416
   92MOL   C17027652   4.048   2.107   0.927  0.1024 -0.2413 -0.7466
   92MOL   C17127653   3.934   2.088   1.005 -0.6928  0.3762  0.6345
   92MOL   C17227654   3.944   2.073   1.140  0.1609 -1.4527  0.3918
   92MOL   C17327655   4.072   2.074   1.202  0.0540  0.6156 -0.0126
   92MOL   N17427656   4.185   2.080   1.122 -0.0421 -0.1251 -0.2883
   92MOL   H17527657   4.494   1.990   0.884  0.3006 -0.0152 -1.2816
   92MOL   H17627658   4.386   1.961   1.015  0.9733  0.5945  0.0538
   92MOL   H17727659   4.280   2.131   0.802 -3.7458 -2.5438  0.4852
   92MOL   H17827660   4.052   2.115   0.820  0.5795  0.5538 -0.6696
   92MOL   H17927661   3.835   2.101   0.966 -0.7237 -1.0019  0.2650
   92MOL   H18027662   3.858   2.065   1.205  0.1493  1.5626  0.8627
   92MOL   H18127663   4.075   2.081   1.309  0.1695 -1.7668  0.1620
   92MOL   C18227664   4.386   2.237   0.936  0.5630  0.1845  0.0403
   92MOL   C18327665   4.333   2.389   0.942 -0.2010  0.2455  0.9104
   92MOL   C18427666   4.273   2.426   0.808 -0.2460  0.2764 -0.2810
   92MOL   C18527667   4.343   2.517   0.721  0.5420  0.2672  0.1245
   92MOL   C18627668   4.281   2.565   0.606  0.4218 -0.3814 -0.5760
   92MOL   C18727669   4.148   2.512   0.583 -0.2423 -1.1140 -0.0726
   92MOL   C18827670   4.092   2.421   0.674  0.8193 -0.7098 -0.4228
   92MOL   N18927671   4.154   2.375   0.785  0.0055 -0.2928  0.0498
   92MOL   H19027672   4.476   2.227   0.875 -0.3513 -5.0853 -0.7159
   92MOL   H19127673   4.430   2.219   1.034 -0.8391 -2.2811  0.2645
   92MOL   H19227674   4.414   2.461   0.955 -0.0619  0.0704  1.0171
   92MOL   H19327675   4.445   2.545   0.747  1.8497 -0.2827 -4.0809
   92MOL   H19427676   4.330   2.629   0.533 -0.7169  2.1142  0.7745
   92MOL   H19527677   4.107   2.535   0.485  1.4902 -0.1153 -0.5877
   92MOL   H19627678   3.994   2.378   0.659  0.8558 -0.0166 -2.7504
   92MOL   C19727679   4.243   2.419   1.060 -0.4672  0.5053 -0.3141
   92MOL   C19827680   4.313   2.398   1.194  0.2291 -0.7432  0.2088
   92MOL   C19927681   4.433   2.495   1.203  0.2445 -0.0325 -0.6726
   92MOL   C20027682   4.565   2.455   1.217  0.1656 -0.1254  0.4641
   92MOL   C20127683   4.668   2.544   1.232 -0.0508  0.0983  0.0869
   92MOL   C20227684   4.635   2.682   1.227  0.0603  0.4369  0.1150
   92MOL   C20327685   4.496   2.721   1.221  0.4046 -0.2722 -0.1499
   92MOL   N20427686   4.403   2.627   1.207  0.6229  0.0496  0.1667
   92MOL   H20527687   4.152   2.359   1.053 -0.8031  0.7987  1.3608
   92MOL   H20627688   4.209   2.522   1.058 -0.9083  0.4103  1.6807
   92MOL   H20727689   4.351   2.296   1.198  2.1448 -0.1240 -1.4699
   92MOL   H20827690   4.595   2.351   1.223  0.3745 -0.0431  0.8682
   92MOL   H20927691   4.768   2.504   1.238 -0.0550 -0.0835 -0.9124
   92MOL   H21027692   4.715   2.754   1.232  0.8854 -0.5560  1.4559
   92MOL   H21127693   4.459   2.822   1.232 -0.4318 -0.4195 -1.5372
   92MOL   C21227694   4.222   2.402   1.316 -0.1850  0.0238 -0.4181
   92MOL   C21327695   4.268   2.354   1.457  0.4990  0.2665  0.1109
   92MOL   C21427696   4.293   2.207   1.469 -0.2407  0.3518 -0.0662
   92MOL   C21527697   4.228   2.130   1.566  0.0949  0.8080  0.1946
   92MOL   C21627698   4.258   1.988   1.578  0.5784 -0.1369  0.3088
   92MOL   C21727699   4.359   1.940   1.490 -0.1337 -0.1719  0.0241
   92MOL   C21827700   4.403   2.020   1.387 -0.6848 -0.7702  0.3018
   92MOL   N21927701   4.387   2.156   1.384 -0.1229  1.0061 -0.6457
   92MOL   H22027702   4.123   2.361   1.299 -1.0673  1.3248  1.3941
   92MOL   H22127703   4.206   2.508   1.334 -1.8354 -0.5794  1.8200
   92MOL   H22227704   4.174   2.366   1.510 -0.6382 -1.9304 -1.3414
   92MOL   H22327705   4.146   2.167   1.626 -2.3325 -1.0437 -1.9083
   92MOL   H22427706   4.214   1.922   1.651  0.4596  1.0719  1.3455
   92MOL   H22527707   4.395   1.839   1.501 -1.5113 -0.7782 -0.9478
   92MOL   H22627708   4.450   1.980   1.298  0.5264  3.0770 -0.9319
   92MOL   C22727709   4.363   2.450   1.539 -0.5273 -0.3918 -0.0143
   92MOL   C22827710   4.340   2.607   1.550 -0.0666 -0.4310 -0.2210
   92MOL   C22927711   4.194   2.643   1.583 -0.5113  0.6573  0.0984
   92MOL   C23027712   4.139   2.750   1.509 -0.1427  0.0597 -0.3967
   92MOL   C23127713   4.002   2.794   1.542  0.0691 -0.0427  0.0697
   92MOL   C23227714   3.935   2.723   1.645 -0.6630 -0.9252  0.1862
   92MOL   C23327715   4.005   2.625   1.719  0.4135  0.0267 -0.9184
   92MOL   N23427716   4.136   2.584   1.694  0.2640  0.1252 -0.2368
   92MOL   H23527717   4.466   2.430   1.510 -0.4392 -0.8317  0.6154
   92MOL   H23627718   4.352   2.418   1.642 -1.9372  1.8699  0.5810
   92MOL   H23727719   4.368   2.655   1.456  0.2280 -1.6772 -0.7760
   92MOL   H23827720   4.193   2.812   1.438  0.6539  0.1024  0.2415
   92MOL   H23927721   3.966   2.886   1.497 -0.2333  1.0281  2.4529
   92MOL   H24027722   3.833   2.743   1.676 -0.1451  3.2528 -0.4969
   92MOL   H24127723   3.973   2.606   1.821  1.0903  0.5508 -0.6052
   92MOL   C24227724   4.438   2.677   1.660 -0.7123 -0.9436  0.2988
   92MOL   C24327725   4.595   2.666   1.632  0.0705 -0.6123  0.2375
   92MOL   C24427726   4.672   2.794   1.670  0.0728 -0.1015  0.2417
   92MOL   C24527727   4.644   2.860   1.789  0.4995  0.1826  0.7281
   92MOL   C24627728   4.729   2.968   1.831  0.6048  1.0705  0.4453
   92MOL   C24727729   4.842   2.996   1.752  0.0210  0.2303 -0.0704
   92MOL   C24827730   4.861   2.921   1.636  0.4524  0.0045 -0.7163
   92MOL   N24927731   4.776   2.831   1.591  0.2990  0.0838  0.1058
   92MOL   H25027732   4.421   2.628   1.757 -0.1434  0.1472  0.9566
   92MOL   H25127733   4.405   2.780   1.663  1.6855 -0.1778  2.0755
   92MOL   H25227734   4.604   2.652   1.524 -1.6419  0.1595 -0.0252
   92MOL   H25327735   4.572   2.824   1.860  1.0899 -0.3307  1.0766
   92MOL   H25427736   4.715   3.005   1.931 -1.5154 -1.5225  1.1694
   92MOL   H25527737   4.922   3.063   1.779 -1.1426  1.2628  0.8116
   92MOL   H25627738   4.945   2.929   1.569  0.1895 -1.3596 -1.2197
   92MOL   C25727739   4.646   2.548   1.709  0.5690  0.0717  1.1254
   92MOL   C25827740   4.797   2.499   1.675 -0.2991  0.3656 -0.1462
   92MOL   C25927741   4.844   2.418   1.802 -0.2784  0.4556 -0.6948
   92MOL   C26027742   4.939   2.480   1.886 -0.6259 -0.3442  0.3719
   92MOL   C26127743   4.967   2.426   2.014  0.1175  0.6987  0.6087
   92MOL   C26227744   4.907   2.303   2.047 -0.1494 -0.3365 -1.1268
   92MOL   C26327745   4.823   2.241   1.951  0.1748  0.1098 -0.1118
   92MOL   N26427746   4.784   2.300   1.838 -0.9395  0.4368  0.0573
   92MOL   H26527747   4.574   2.468   1.690  0.1938  0.6738 -0.0355
   92MOL   H26627748   4.650   2.574   1.815  1.1379 -1.0792  1.3925
   92MOL   H26727749   4.867   2.581   1.670  0.6623 -0.5347 -1.8588
   92MOL   H26827750   4.971   2.583   1.874 -1.0503 -0.3042 -0.4513
   92MOL   H26927751   5.031   2.475   2.085 -1.4234  2.2466  0.9563
   92MOL   H27027752   4.945   2.254   2.135 -1.3408 -0.3940 -0.6272
   92MOL   H27127753   4.780   2.146   1.980 -0.4048  0.7506  1.2151
   92MOL   C27227754   4.817   2.416   1.549  0.0560 -0.1656  0.3511
   92MOL   C27327755   4.961   2.392   1.498 -0.0910  0.1189  0.4631
   92MOL   C27427756   4.964   2.286   1.386 -0.6189 -0.2119  0.0366
   92MOL   C27527757   4.996   2.157   1.418  0.0758 -0.4808  0.5893
   92MOL   C27627758   4.986   2.049   1.327 -0.2594 -0.1830 -0.6919
   92MOL   C27727759   4.952   2.084   1.197  0.9662  0.2223  0.1855
   92MOL   C27827760   4.920   2.213   1.166 -0.0276 -0.2274  0.1783
   92MOL   N27927761   4.925   2.310   1.260  0.1782 -0.4027 -0.6368
   92MOL   H28027762   4.762   2.471   1.472 -0.7753 -1.1195  0.2367
   92MOL   H28127763   4.766   2.320   1.558 -0.1122  0.0115  1.3928
   92MOL   H28227764   5.023   2.375   1.585 -0.7934 -0.0757  0.9300
   92MOL   H28327765   5.035   2.137   1.517  0.1722 -1.1009  0.4309
   92MOL   H28427766   5.014   1.946   1.345  1.4091  0.7732  2.5369
   92MOL   H28527767   4.928   2.012   1.121  1.7872  1.4632 -1.2768
   92MOL   H28627768   4.898   2.243   1.064  0.7079 -0.2869 -0.0004
   92MOL   C28727769   5.027   2.521   1.447  0.6424  0.1180  0.4546
   92MOL   C28827770   5.145   2.514   1.343  0.1412  0.0049 -0.1170
   92MOL   C28927771   5.284   2.494   1.402  0.1120 -0.2795 -1.5856
   92MOL   C29027772   5.342   2.366   1.394 -0.5639  0.1250  0.1692
   92MOL   C29127773   5.467   2.351   1.456 -0.0691 -0.0108 -0.1014
   92MOL   C29227774   5.521   2.462   1.525 -0.9870 -0.0888 -0.1269
   92MOL   C29327775   5.454   2.584   1.525  0.8870  0.2129  0.4890
   92MOL   N29427776   5.332   2.602   1.467  0.5083  0.2221 -0.5516
   92MOL   H29527777   5.057   2.584   1.532  3.2379 -0.7782  0.2298
   92MOL   H29627778   4.955   2.569   1.381  1.9207  0.9940 -0.3326
   92MOL   H29727779   5.150   2.615   1.303 -0.3602  0.6763  1.5010
   92MOL   H29827780   5.292   2.281   1.349  1.2706  0.0037 -1.7358
   92MOL   H29927781   5.516   2.257   1.475 -0.8736 -0.3546  0.3447
   92MOL   H30027782   5.617   2.455   1.573 -1.5316  0.6526  1.1032
   92MOL   H30127783   5.502   2.671   1.567 -1.0583  0.3251  2.5309
   92MOL   H30227784   5.140   2.434   1.268 -0.1445 -1.3880  1.3519
   93MOL     C127785   4.548   5.678   3.086  0.1958 -0.3868  0.5917
   93MOL     C227786   4.597   5.785   3.177 -0.1354 -0.4521  0.3608
   93MOL     C327787   4.714   5.737   3.260  0.1153 -0.1797 -0.7536
   93MOL     C427788   4.833   5.692   3.204 -1.1521  0.6075 -0.2739
   93MOL     C527789   4.934   5.655   3.296  0.0553 -0.2665 -0.1989
   93MOL     C627790   4.914   5.670   3.436 -0.1064 -0.5930  0.1573
   93MOL     C727791   4.792   5.720   3.475  0.0700  0.0077 -0.0564
   93MOL     N827792   4.693   5.750   3.391 -0.5014  1.0635 -0.3531
   93MOL     H927793   4.518   5.587   3.138  0.6604  0.3704  2.2163
   93MOL    H1027794   4.460   5.721   3.038  0.2430  0.8612  1.5952
   93MOL    H1127795   4.510   5.813   3.237 -2.1701 -2.2882 -1.6161
   93MOL    H1227796   4.849   5.683   3.098 -1.3387  0.3360 -0.2794
   93MOL    H1327797   5.024   5.608   3.257  0.0995 -1.3708  1.2276
   93MOL    H1427798   4.989   5.631   3.504 -0.0717  0.7792  0.9277
   93MOL    H1527799   4.771   5.728   3.580 -2.1109 -0.0802 -0.4579
   93MOL    H1627800   4.625   5.668   3.010 -1.4792  1.0785 -1.3500
   93MOL    C1727801   4.639   5.908   3.093 -0.1272  0.4090 -0.1900
   93MOL    C1827802   4.680   6.039   3.162  0.4083 -0.4266  0.4110
   93MOL    C1927803   4.740   6.129   3.055 -0.1049 -0.4811 -0.0144
   93MOL    C2027804   4.877   6.168   3.052  0.5384  0.3176 -0.7027
   93MOL    C2127805   4.921   6.265   2.959 -1.1208  0.7068  0.2574
   93MOL    C2227806   4.834   6.317   2.864  0.0574 -0.6698 -0.0164
   93MOL    C2327807   4.705   6.265   2.868 -0.5569 -0.0440 -0.2218
   93MOL    N2427808   4.658   6.180   2.959  0.7184  0.6417  0.2368
   93MOL    H2527809   4.559   5.924   3.022  0.8876 -2.8883 -2.1587
   93MOL    H2627810   4.721   5.879   3.028  1.2117  0.3058  1.4895
   93MOL    H2727811   4.754   6.016   3.239  0.0179  1.6510  1.4525
   93MOL    H2827812   4.937   6.148   3.139  1.0560  0.6634 -0.9803
   93MOL    H2927813   5.023   6.300   2.961 -0.4632 -1.2119  2.1967
   93MOL    H3027814   4.867   6.396   2.798 -0.1619 -0.2492  0.3697
   93MOL    H3127815   4.645   6.301   2.786  0.1419 -2.6429 -1.9657
   93MOL    C3227816   4.571   6.112   3.238 -0.0374  0.2745 -0.2503
   93MOL    C3327817   4.595   6.240   3.310  0.0801 -0.0552  0.9371
   93MOL    C3427818   4.463   6.315   3.336 -0.3073 -0.3033  0.4791
   93MOL    C3527819   4.442   6.449   3.298  0.3865  0.0435  0.0560
   93MOL    C3627820   4.323   6.517   3.327  0.7434 -0.0244 -0.2917
   93MOL    C3727821   4.227   6.453   3.392 -0.2133 -0.0842  0.2079
   93MOL    C3827822   4.250   6.319   3.427  0.1122  0.2233  0.8600
   93MOL    N3927823   4.368   6.253   3.404  0.2378  0.5297 -0.1514
   93MOL    H4027824   4.529   6.043   3.311  1.8981 -0.6250  0.0650
   93MOL    H4127825   4.494   6.138   3.165  0.0572 -0.0605 -0.4724
   93MOL    H4227826   4.661   6.297   3.246 -0.6001  0.7537  0.9556
   93MOL    H4327827   4.525   6.500   3.251  0.2416  1.0930  0.9249
   93MOL    H4427828   4.312   6.624   3.312  2.4633  0.2427  0.2984
   93MOL    H4527829   4.135   6.502   3.419  1.9613  3.1930  2.1618
   93MOL    H4627830   4.167   6.266   3.472 -0.9472  1.7904  0.7684
   93MOL    C4727831   4.664   6.228   3.446  0.2395 -0.1344  0.7181
   93MOL    C4827832   4.710   6.359   3.520  0.0082 -0.2374 -0.1194
   93MOL    C4927833   4.680   6.350   3.665  0.3620 -0.3937  0.3754
   93MOL    C5027834   4.582   6.432   3.723 -0.0841 -0.6280 -1.1144
   93MOL    C5127835   4.564   6.425   3.862  0.1650 -0.7191  1.1537
   93MOL    C5227836   4.643   6.338   3.934  0.7688 -0.3047 -0.0480
   93MOL    C5327837   4.730   6.254   3.866  0.7576 -0.3215 -0.5090
   93MOL    N5427838   4.743   6.255   3.731 -0.6089  0.7086 -0.2633
   93MOL    H5527839   4.747   6.161   3.423 -0.2912  0.0273 -1.8501
   93MOL    H5627840   4.603   6.166   3.511 -1.5655  0.2773 -0.5480
   93MOL    H5727841   4.650   6.443   3.488 -1.5750 -0.7958  1.3254
   93MOL    H5827842   4.535   6.512   3.668  1.8186  3.0118  2.2690
   93MOL    H5927843   4.505   6.498   3.917  2.0738  1.0221  0.9386
   93MOL    H6027844   4.640   6.335   4.042  0.9325 -0.2542 -0.0425
   93MOL    H6127845   4.792   6.187   3.924 -1.7507 -1.5757  0.8277
   93MOL    C6227846   4.862   6.389   3.500  0.4660 -0.4869 -0.2039
   93MOL    C6327847   4.911   6.422   3.352 -0.3325  0.3276  0.0868
   93MOL    C6427848   4.838   6.545   3.291 -0.3522  0.2740 -0.5025
   93MOL    C6527849   4.791   6.546   3.159 -0.2775  0.5021 -0.5682
   93MOL    C6627850   4.724   6.656   3.110  0.3525 -0.7134 -0.5677
   93MOL    C6727851   4.724   6.772   3.191  0.0353  0.0925  0.3214
   93MOL    C6827852   4.793   6.770   3.311  0.8122 -0.1115  0.5269
   93MOL    N6927853   4.846   6.661   3.363 -0.5708  0.3950  0.1198
   93MOL    H7027854   4.918   6.301   3.531 -0.5446 -1.5651 -1.3710
   93MOL    H7127855   4.886   6.479   3.557  1.0342 -0.3012 -0.7401
   93MOL    H7227856   4.898   6.328   3.298  1.8832  0.5216 -0.8358
   93MOL    H7327857   4.782   6.457   3.099 -2.0870  0.8108 -0.7708
   93MOL    H7427858   4.669   6.649   3.017 -1.2036 -0.5274  0.3248
   93MOL    H7527859   4.677   6.861   3.151  0.5906  1.1027  1.8461
   93MOL    H7627860   4.794   6.857   3.375  1.0224 -0.1414  0.5655
   93MOL    C7727861   5.055   6.456   3.358  1.0715  0.5967  0.0547
   93MOL    C7827862   5.150   6.355   3.431  0.2836  0.1766 -0.4267
   93MOL    C7927863   5.147   6.217   3.367 -0.4134  0.7125  1.0385
   93MOL    C8027864   5.098   6.105   3.433 -0.4030  0.7634  0.4359
   93MOL    C8127865   5.103   5.983   3.364 -0.5163  0.5716  0.4902
   93MOL    C8227866   5.141   5.980   3.231  0.1962 -0.1636  0.7774
   93MOL    C8327867   5.199   6.095   3.178 -0.2274  0.1241 -0.4149
   93MOL    N8427868   5.199   6.210   3.246  0.0831 -0.1666  0.8022
   93MOL    H8527869   5.069   6.542   3.423 -0.1363  0.3778  0.6079
   93MOL    H8627870   5.094   6.478   3.258  1.6368 -0.1024  0.1131
   93MOL    H8727871   5.117   6.350   3.535  0.5874 -4.0398 -0.4548
   93MOL    H8827872   5.066   6.116   3.535 -0.8272  1.1964  0.2604
   93MOL    H8927873   5.068   5.888   3.403 -0.8484  0.5128  0.0592
   93MOL    H9027874   5.132   5.889   3.173  0.6297  1.3283 -1.7225
   93MOL    H9127875   5.230   6.100   3.074  1.6829  2.8790  0.2135
   93MOL    C9227876   5.300   6.401   3.443 -0.8016  0.2459 -0.8240
   93MOL    C9327877   5.313   6.542   3.518  0.3468 -0.5767 -0.5547
   93MOL    C9427878   5.249   6.540   3.657 -0.3751 -0.2446 -0.5852
   93MOL    C9527879   5.131   6.622   3.692 -0.1373 -0.6662  0.0054
   93MOL    C9627880   5.082   6.616   3.818  0.8955  0.0564  0.2293
   93MOL    C9727881   5.145   6.529   3.909  0.0655  0.1518 -0.5027
   93MOL    C9827882   5.251   6.449   3.864 -0.1508  0.3802  0.0271
   93MOL    N9927883   5.307   6.457   3.745 -0.2721  0.1616  0.3502
   93MOL   H10027884   5.337   6.392   3.341 -0.9978 -0.1912 -0.8585
   93MOL   H10127885   5.349   6.325   3.504 -1.5536 -0.1478 -0.7056
   93MOL   H10227886   5.259   6.621   3.465  0.5661  0.2101  0.3695
   93MOL   H10327887   5.097   6.691   3.617  0.6275  2.1076  2.1434
   93MOL   H10427888   4.996   6.674   3.847  0.5010 -0.3099 -0.2079
   93MOL   H10527889   5.106   6.533   4.010 -1.9054 -0.0554 -1.2417
   93MOL   H10627890   5.306   6.395   3.939 -0.8021  0.9424  0.9191
   93MOL   C10727891   5.462   6.587   3.525 -0.5674  0.5019  0.4006
   93MOL   C10827892   5.533   6.608   3.386 -0.3404  0.1494  0.6292
   93MOL   C10927893   5.496   6.737   3.309  0.0004 -0.4022 -0.6290
   93MOL   C11027894   5.575   6.853   3.298 -0.1358  0.2126  0.6098
   93MOL   C11127895   5.518   6.970   3.244 -0.2548 -0.0333  0.1844
   93MOL   C11227896   5.389   6.968   3.201  0.1325 -1.0123 -0.3940
   93MOL   C11327897   5.318   6.848   3.214  1.1640 -0.5478  0.2029
   93MOL   N11427898   5.371   6.736   3.265  0.3043  0.0666 -0.0749
   93MOL   H11527899   5.516   6.521   3.592  2.0454  0.0653 -2.0471
   93MOL   H11627900   5.483   6.688   3.560 -0.4286  1.1769 -1.5646
   93MOL   H11727901   5.496   6.529   3.320  2.1925 -1.1662  0.7599
   93MOL   H11827902   5.676   6.859   3.335 -1.0266  0.6404  3.0169
   93MOL   H11927903   5.582   7.057   3.251 -0.2673 -0.1001  1.2239
   93MOL   H12027904   5.338   7.059   3.170  0.2404 -1.5603 -2.2544
   93MOL   H12127905   5.214   6.853   3.185  0.9435  0.7091  1.1453
   93MOL   C12227906   5.686   6.571   3.396 -0.5869 -0.1531 -0.4812
   93MOL   C12327907   5.711   6.419   3.414  0.2240 -1.0287  0.3070
   93MOL   C12427908   5.683   6.337   3.282  0.1391  0.6343 -0.5029
   93MOL   C12527909   5.571   6.251   3.255 -0.1717  0.5034  0.0334
   93MOL   C12627910   5.554   6.198   3.124 -0.4170 -0.0044 -0.1277
   93MOL   C12727911   5.662   6.209   3.034 -0.7672 -0.0954  0.1796
   93MOL   C12827912   5.766   6.297   3.068  0.8219  0.4464 -0.0449
   93MOL   N12927913   5.774   6.362   3.191  0.2131 -0.1049  0.1148
   93MOL   H13027914   5.747   6.626   3.467 -0.8798 -2.0745  1.3016
   93MOL   H13127915   5.728   6.591   3.297  0.6199  0.9910  0.2461
   93MOL   H13227916   5.645   6.380   3.491  1.8120 -1.8591  1.2828
   93MOL   H13327917   5.506   6.220   3.336  0.4076 -1.2647 -0.1721
   93MOL   H13427918   5.462   6.146   3.103 -0.7103  0.0614  1.0085
   93MOL   H13527919   5.656   6.169   2.934 -0.4481 -0.6395  0.3766
   93MOL   H13627920   5.835   6.319   2.988 -0.2757  2.4717 -0.4715
   93MOL   C13727921   5.841   6.377   3.485 -0.1599  0.3130 -0.6443
   93MOL   C13827922   5.986   6.412   3.425  0.7363 -0.2200 -0.1462
   93MOL   C13927923   6.007   6.557   3.421 -0.4660 -0.2647 -0.0320
   93MOL   C14027924   6.012   6.632   3.301 -0.1262  0.2040 -0.1538
   93MOL   C14127925   6.033   6.768   3.305 -0.4756  0.5378  0.2453
   93MOL   C14227926   6.030   6.829   3.430 -0.2744  0.4303 -0.6337
   93MOL   C14327927   6.018   6.749   3.547 -0.1345  0.0339  0.5319
   93MOL   N14427928   6.002   6.615   3.544  0.5597 -0.7313 -0.0530
   93MOL   H14527929   5.825   6.270   3.485  0.2789  0.1846 -4.3910
   93MOL   H14627930   5.833   6.408   3.589  0.0173  0.0544 -0.5546
   93MOL   H14727931   5.982   6.379   3.321 -0.7598  0.0532 -0.1992
   93MOL   H14827932   6.003   6.586   3.204 -3.4868  0.2348  0.1036
   93MOL   H14927933   6.047   6.824   3.213 -0.1903  0.2592  0.1187
   93MOL   H15027934   6.049   6.935   3.444  0.7309  0.1580  0.1272
   93MOL   H15127935   6.027   6.797   3.644 -0.9711  1.7752 -0.2298
   93MOL   C15227936   6.097   6.337   3.497 -0.7994  0.2778 -0.9324
   93MOL   C15327937   6.243   6.353   3.433 -0.2254 -0.0264 -0.8852
   93MOL   C15427938   6.353   6.290   3.524  0.6490  0.2570  0.4358
   93MOL   C15527939   6.462   6.367   3.577 -0.2142  0.2900  0.0296
   93MOL   C15627940   6.563   6.297   3.648  0.0118 -0.1426  0.1076
   93MOL   C15727941   6.548   6.160   3.661 -0.2442  0.5846 -0.3977
   93MOL   C15827942   6.439   6.089   3.613 -0.2665 -0.2424 -0.2557
   93MOL   N15927943   6.343   6.152   3.540  0.0817 -0.1534 -0.7838
   93MOL   H16027944   6.066   6.232   3.505  0.7252 -0.2776 -1.8783
   93MOL   H16127945   6.104   6.373   3.599 -0.7853 -0.7002 -0.5840
   93MOL   H16227946   6.251   6.462   3.425 -2.0295 -0.1087 -4.5006
   93MOL   H16327947   6.467   6.474   3.561 -2.2997  0.2601 -1.0560
   93MOL   H16427948   6.654   6.348   3.676 -0.2918 -0.4459  1.6640
   93MOL   H16527949   6.618   6.105   3.722 -0.4618 -0.0236 -0.6963
   93MOL   H16627950   6.433   5.981   3.620  4.9201 -0.5506  1.5832
   93MOL   C16727951   6.252   6.307   3.283  0.3879 -0.1520 -0.9940
   93MOL   C16827952   6.392   6.321   3.209 -0.1180 -0.1125 -0.1115
   93MOL   C16927953   6.428   6.469   3.204 -0.8625  0.4586  0.5947
   93MOL   C17027954   6.377   6.551   3.102 -0.2935  0.5747  0.2139
   93MOL   C17127955   6.414   6.683   3.095  0.7910  0.9295  0.0155
   93MOL   C17227956   6.514   6.734   3.177 -0.5661 -0.2754 -0.5454
   93MOL   C17327957   6.554   6.645   3.282 -0.2774 -0.0216  0.5791
   93MOL   N17427958   6.508   6.518   3.303 -0.4759  0.3167  0.1194
   93MOL   H17527959   6.178   6.365   3.227 -1.3659 -2.0511 -0.6947
   93MOL   H17627960   6.214   6.206   3.290 -0.2010  0.0844 -0.7287
   93MOL   H17727961   6.375   6.287   3.107  0.8862  0.8401 -0.5963
   93MOL   H17827962   6.309   6.504   3.032 -0.7626  1.9905 -0.2946
   93MOL   H17927963   6.376   6.739   3.011  1.6699  0.2705 -0.8359
   93MOL   H18027964   6.568   6.828   3.171 -1.3254  0.4151  2.4190
   93MOL   H18127965   6.633   6.676   3.349  0.1766 -0.8252  0.4165
   93MOL   C18227966   6.511   6.221   3.257  0.0749 -0.2548  0.0623
   93MOL   C18327967   6.468   6.073   3.251  0.2711  0.2156  0.0845
   93MOL   C18427968   6.415   6.033   3.116  0.7541  0.0785 -0.2591
   93MOL   C18527969   6.282   6.001   3.094  0.3382 -0.0445 -0.1277
   93MOL   C18627970   6.239   5.977   2.968 -0.0023  0.9384 -0.4509
   93MOL   C18727971   6.328   5.983   2.862 -0.5270  0.0392  0.5440
   93MOL   C18827972   6.457   6.009   2.891  0.1571 -0.0053  0.5322
   93MOL   N18927973   6.502   6.033   3.015  0.0524 -0.3223  0.5718
   93MOL   H19027974   6.562   6.254   3.348 -1.4836 -0.9676  1.2064
   93MOL   H19127975   6.581   6.236   3.174 -0.3711 -1.4751 -0.5356
   93MOL   H19227976   6.384   6.054   3.317  0.1914  0.6266  0.0984
   93MOL   H19327977   6.223   5.992   3.184  0.3472  1.1519  0.0029
   93MOL   H19427978   6.134   5.958   2.951  0.3853 -1.5203 -0.3313
   93MOL   H19527979   6.287   5.962   2.764 -0.4082 -1.0769  0.7257
   93MOL   H19627980   6.523   5.996   2.806  0.4313  1.7554  0.4532
   93MOL   C19727981   6.572   5.969   3.304  0.4452 -0.2867  0.0350
   93MOL   C19827982   6.553   5.817   3.271  0.0402 -0.2644 -0.1804
   93MOL   C19927983   6.685   5.739   3.268 -0.4884 -0.5155 -0.4377
   93MOL   C20027984   6.726   5.659   3.155 -0.2392 -0.8351 -0.2163
   93MOL   C20127985   6.851   5.595   3.160 -0.1956  0.8680 -0.8193
   93MOL   C20227986   6.925   5.604   3.277  0.2208  0.3127  0.3768
   93MOL   C20327987   6.877   5.687   3.380  0.4777 -0.0683 -0.9682
   93MOL   N20427988   6.764   5.760   3.374 -0.6755 -0.0025 -0.0724
   93MOL   H20527989   6.594   5.990   3.408 -0.2573 -0.6955  0.2709
   93MOL   H20627990   6.659   6.003   3.248  0.4022  0.8683  0.6543
   93MOL   H20727991   6.515   5.806   3.170 -0.6116  0.6621 -0.0377
   93MOL   H20827992   6.670   5.635   3.066  1.4796  1.5198 -1.9845
   93MOL   H20927993   6.894   5.537   3.080  0.1684 -2.0330  1.3915
   93MOL   H21027994   7.020   5.554   3.285 -0.1700 -0.3033  1.2809
   93MOL   H21127995   6.929   5.711   3.472 -2.0613  0.0319  0.4990
   93MOL   C21227996   6.454   5.756   3.375 -0.5649 -0.3184  0.7847
   93MOL   C21327997   6.421   5.606   3.373 -0.2710 -0.1338 -0.4330
   93MOL   C21427998   6.418   5.549   3.511  0.2412  0.2579  0.0707
   93MOL   C21527999   6.521   5.462   3.554 -0.4724 -0.6466 -0.4288
   93MOL   C21628000   6.519   5.416   3.683  0.2953  0.2982  0.1166
   93MOL   C21728001   6.423   5.465   3.768  0.4202 -0.7329  0.3419
   93MOL   C21828002   6.324   5.552   3.723  0.6525 -0.1113 -0.7100
   93MOL   N21928003   6.329   5.602   3.596  0.3828  1.2272  0.0474
   93MOL   H22028004   6.361   5.812   3.363 -1.0650 -1.5223 -1.2443
   93MOL   H22128005   6.482   5.797   3.472 -1.1923 -0.2194  0.9273
   93MOL   H22228006   6.489   5.548   3.312 -2.2583 -0.9849 -1.9044
   93MOL   H22328007   6.602   5.435   3.489 -0.8296  2.7241 -2.3842
   93MOL   H22428008   6.594   5.345   3.715 -0.5890 -0.5403  0.3481
   93MOL   H22528009   6.421   5.432   3.871 -0.1367  0.4504  0.7245
   93MOL   H22628010   6.243   5.584   3.787  1.8146  2.1751 -0.3114
   93MOL   C22728011   6.284   5.574   3.311 -0.5829 -0.1770 -0.2359
   93MOL   C22828012   6.259   5.621   3.166 -0.5164 -0.5436 -0.2977
   93MOL   C22928013   6.363   5.552   3.076  0.4865 -0.6224 -0.2484
   93MOL   C23028014   6.410   5.626   2.968  0.2716 -0.1060 -0.0876
   93MOL   C23128015   6.483   5.558   2.873 -0.3896  0.2119 -0.3053
   93MOL   C23228016   6.517   5.425   2.894  0.8256 -0.1219 -0.2912
   93MOL   C23328017   6.467   5.362   3.008  0.4287  0.9426 -0.0169
   93MOL   N23428018   6.389   5.422   3.092  0.3223 -0.3650  0.4214
   93MOL   H23528019   6.198   5.605   3.369 -0.2836 -1.2221  0.7947
   93MOL   H23628020   6.274   5.465   3.313 -2.7290 -0.1019 -3.2976
   93MOL   H23728021   6.258   5.730   3.163  0.4354 -0.5595 -1.6451
   93MOL   H23828022   6.396   5.733   2.967 -1.9693 -0.3722  0.5951
   93MOL   H23928023   6.537   5.620   2.803  0.3653  0.5149  0.5393
   93MOL   H24028024   6.578   5.362   2.830 -0.9741 -1.0979 -1.0741
   93MOL   H24128025   6.497   5.261   3.033  2.6398  1.2635 -1.2705
   93MOL   C24228026   6.116   5.585   3.123 -0.8830  0.0581 -0.7455
   93MOL   C24328027   5.990   5.627   3.203 -0.0647 -0.2115  0.5833
   93MOL   C24428028   5.980   5.774   3.225  0.4932 -0.7181  0.1015
   93MOL   C24528029   6.015   5.837   3.348 -0.5308  0.1231  0.9472
   93MOL   C24628030   5.986   5.969   3.364 -0.0848  0.5664  0.3634
   93MOL   C24728031   5.948   6.050   3.257 -0.0186 -0.0280  0.3054
   93MOL   C24828032   5.941   5.985   3.128  0.3502  0.0564 -0.5624
   93MOL   N24928033   5.962   5.850   3.114  0.0123  0.2267 -0.1658
   93MOL   H25028034   6.107   5.478   3.103  1.2130 -0.3586  0.3972
   93MOL   H25128035   6.114   5.626   3.023  4.1022  0.8214 -0.6452
   93MOL   H25228036   5.989   5.592   3.307 -1.6924  0.1635  0.7164
   93MOL   H25328037   6.041   5.775   3.432 -0.8664  0.8940  1.6269
   93MOL   H25428038   6.005   6.015   3.461 -1.3657  0.2591  0.7771
   93MOL   H25528039   5.942   6.157   3.270  2.1809 -0.0612  1.7373
   93MOL   H25628040   5.919   6.043   3.040  0.2622 -1.8751 -1.8311
   93MOL   C25728041   5.860   5.568   3.149 -0.0174 -0.5784  0.0549
   93MOL   C25828042   5.754   5.530   3.258  0.2188  0.6940  0.1944
   93MOL   C25928043   5.796   5.401   3.326 -0.7311  0.4277  0.6083
   93MOL   C26028044   5.757   5.277   3.281  0.0449 -0.0213 -0.7363
   93MOL   C26128045   5.802   5.161   3.352 -1.2333  0.0970 -0.1286
   93MOL   C26228046   5.875   5.181   3.473 -0.2558 -0.4502  0.2460
   93MOL   C26328047   5.914   5.309   3.504  0.1246  0.3368 -0.1053
   93MOL   N26428048   5.881   5.419   3.431 -0.2392  0.3522 -0.4214
   93MOL   H26528049   5.889   5.476   3.098  2.4155  0.5342 -0.6337
   93MOL   H26628050   5.822   5.637   3.073 -1.6291 -2.9944 -1.4313
   93MOL   H26728051   5.670   5.508   3.192 -0.3446  0.7680  0.8819
   93MOL   H26828052   5.702   5.258   3.191  1.4042 -2.1551 -1.1529
   93MOL   H26928053   5.787   5.062   3.311  0.5788  0.4818 -1.7971
   93MOL   H27028054   5.898   5.096   3.535  1.7391 -0.0876  0.0504
   93MOL   H27128055   5.978   5.328   3.590  0.9670  2.0438 -1.0750
   93MOL   C27228056   5.709   5.632   3.363  1.1869 -0.2402  0.1181
   93MOL   C27328057   5.647   5.766   3.320  1.1857 -0.3882  0.7898
   93MOL   C27428058   5.548   5.760   3.204 -0.0662  0.0512  0.8786
   93MOL   C27528059   5.575   5.818   3.078 -0.2463  0.0808 -0.1834
   93MOL   C27628060   5.492   5.796   2.969  0.5334  0.1091  0.8052
   93MOL   C27728061   5.373   5.735   2.990  0.3720  0.1552  0.3958
   93MOL   C27828062   5.349   5.680   3.119  0.8528 -0.1150 -0.2137
   93MOL   N27928063   5.434   5.691   3.225 -0.6955 -0.6067 -0.0404
   93MOL   H28028064   5.787   5.643   3.438  2.9893  2.5740 -2.0718
   93MOL   H28128065   5.626   5.586   3.417  0.1776  1.6668  0.2143
   93MOL   H28228066   5.733   5.830   3.301  0.8022 -0.2464 -0.5135
   93MOL   H28328067   5.664   5.878   3.069  0.8761 -1.1958  1.9115
   93MOL   H28428068   5.515   5.838   2.872 -0.7263  0.6680  0.7453
   93MOL   H28528069   5.313   5.715   2.903  0.5530  1.4958 -0.0487
   93MOL   H28628070   5.252   5.634   3.132  0.6164  0.6275  0.7291
   93MOL   C28728071   5.578   5.830   3.438  0.0936  0.4526  0.2670
   93MOL   C28828072   5.535   5.978   3.410 -0.5604 -0.1633 -0.3817
   93MOL   C28928073   5.517   6.060   3.535 -0.0004  0.0804  0.3751
   93MOL   C29028074   5.393   6.040   3.605  0.4350  0.2395  0.3820
   93MOL   C29128075   5.379   6.097   3.734  0.0612 -0.0779 -0.1885
   93MOL   C29228076   5.491   6.157   3.796 -0.1442 -0.9462 -0.3845
   93MOL   C29328077   5.609   6.162   3.720 -0.2148 -0.0425 -0.4503
   93MOL   N29428078   5.625   6.105   3.602  0.0555  0.5963  0.7558
   93MOL   H29528079   5.647   5.838   3.521  0.5823  0.8867 -0.1795
   93MOL   H29628080   5.502   5.764   3.479  0.3063 -0.0507 -0.1347
   93MOL   H29728081   5.439   5.978   3.358 -1.4923 -0.5115  1.2733
   93MOL   H29828082   5.314   5.987   3.555  0.1822 -0.3755  1.4081
   93MOL   H29928083   5.280   6.098   3.777 -0.9735  1.5285 -2.5113
   93MOL   H30028084   5.485   6.200   3.895  0.9000  1.3061 -1.2661
   93MOL   H30128085   5.702   6.197   3.764 -0.0160 -1.2372  0.0911
   93MOL   H30228086   5.613   6.021   3.347 -1.3095  1.3782 -0.2908
   94MOL     C128087   1.096   4.966   3.703  0.1863 -0.1977  0.1792
   94MOL     C228088   1.135   4.950   3.853 -0.3078 -0.3674  0.2558
   94MOL     C328089   1.013   4.955   3.951  0.2752  0.4502  0.2977
   94MOL     C428090   1.013   5.061   4.049 -0.3538 -0.2549 -0.0115
   94MOL     C528091   0.900   5.064   4.132 -0.1994 -0.8916 -0.1416
   94MOL     C628092   0.795   4.975   4.112  0.0057  0.6745 -0.0509
   94MOL     C728093   0.815   4.868   4.025  0.7078 -0.5346 -0.7690
   94MOL     N828094   0.914   4.855   3.942  0.3376  0.4431 -0.6655
   94MOL     H928095   1.027   5.049   3.688  1.1307  0.5112 -0.3458
   94MOL    H1028096   1.182   4.978   3.637 -1.0830  2.3677 -1.0931
   94MOL    H1128097   1.200   5.036   3.870  2.8059 -2.4710 -0.5828
   94MOL    H1228098   1.101   5.123   4.048 -0.3104 -0.3321 -1.5769
   94MOL    H1328099   0.894   5.143   4.205 -0.5217 -1.6059  0.6141
   94MOL    H1428100   0.697   4.975   4.157  0.2480 -2.3889  0.5459
   94MOL    H1528101   0.733   4.800   4.012  1.2960 -0.9864 -2.1773
   94MOL    H1628102   1.043   4.876   3.673  1.6221 -1.1322  0.4123
   94MOL    C1728103   1.226   4.826   3.871 -0.0981 -0.3554  0.3333
   94MOL    C1828104   1.375   4.844   3.846  0.0597 -0.0152 -0.1388
   94MOL    C1928105   1.431   4.970   3.908  0.4012  0.0989  0.0502
   94MOL    C2028106   1.391   5.010   4.038 -0.6477  0.3940  1.0530
   94MOL    C2128107   1.415   5.147   4.076  0.4769  0.0845 -0.2796
   94MOL    C2228108   1.485   5.226   3.984 -0.2058 -0.3462  0.5039
   94MOL    C2328109   1.525   5.169   3.861  0.3324 -0.0967 -0.5464
   94MOL    N2428110   1.501   5.049   3.825  0.7808 -0.2914  0.4772
   94MOL    H2528111   1.180   4.751   3.806  0.2843 -0.5734  0.3112
   94MOL    H2628112   1.210   4.777   3.967  0.4461 -1.2824 -0.0389
   94MOL    H2728113   1.385   4.839   3.738 -1.7544  2.3631 -0.4408
   94MOL    H2828114   1.342   4.942   4.106 -2.1078  0.9355  0.5712
   94MOL    H2928115   1.386   5.193   4.169  0.7258  0.9882 -0.6518
   94MOL    H3028116   1.502   5.332   3.995  0.9127 -0.2908 -1.4810
   94MOL    H3128117   1.564   5.220   3.775  0.8538  0.2122 -0.1318
   94MOL    C3228118   1.453   4.711   3.889 -0.6008  0.3027  0.7729
   94MOL    C3328119   1.444   4.596   3.790 -0.0146 -0.8380  0.1099
   94MOL    C3428120   1.499   4.642   3.651 -0.5218 -0.1845  0.0245
   94MOL    C3528121   1.415   4.670   3.538 -0.7401  0.1198 -0.1782
   94MOL    C3628122   1.475   4.712   3.418 -0.0817  0.1640 -0.2489
   94MOL    C3728123   1.611   4.726   3.423  0.7986 -0.3953 -0.0301
   94MOL    C3828124   1.688   4.693   3.529  0.1094 -0.5546  0.0270
   94MOL    N3928125   1.634   4.654   3.648 -0.3898  0.0052  0.2274
   94MOL    H4028126   1.422   4.683   3.990 -1.4750  1.3969  0.8227
   94MOL    H4128127   1.555   4.748   3.898 -0.7316  0.3462  2.2905
   94MOL    H4228128   1.337   4.578   3.772 -0.3444 -0.4886  1.7000
   94MOL    H4328129   1.307   4.670   3.548 -0.5214  1.9042  2.7322
   94MOL    H4428130   1.407   4.728   3.335 -1.7932 -0.1421  1.0637
   94MOL    H4528131   1.661   4.760   3.334  0.7153  0.9427  0.4270
   94MOL    H4628132   1.795   4.705   3.530 -0.0177  0.6306  0.7646
   94MOL    C4728133   1.513   4.463   3.836  0.2757  0.8809 -0.1632
   94MOL    C4828134   1.446   4.366   3.945  0.4121  0.1915  0.3758
   94MOL    C4928135   1.302   4.352   3.918  0.1839 -1.2782  0.4548
   94MOL    C5028136   1.205   4.422   3.992 -0.1917  0.9846  0.7699
   94MOL    C5128137   1.067   4.423   3.950  0.1558  0.2835 -0.3016
   94MOL    C5228138   1.050   4.379   3.817  0.0545 -0.4940 -0.5696
   94MOL    C5328139   1.155   4.319   3.739  1.3821 -0.4817  0.1637
   94MOL    N5428140   1.272   4.296   3.794 -0.1577 -0.3080  0.0747
   94MOL    H5528141   1.616   4.495   3.848  0.1595  1.2710 -0.1677
   94MOL    H5628142   1.507   4.401   3.747 -0.1449  0.4591  0.1556
   94MOL    H5728143   1.452   4.409   4.045  0.7250  3.6688 -1.0544
   94MOL    H5828144   1.237   4.474   4.082  0.4458  1.0379  0.5160
   94MOL    H5928145   0.990   4.476   4.003 -2.0494 -2.2734 -0.8535
   94MOL    H6028146   0.952   4.386   3.772 -0.1114  2.0635  0.0866
   94MOL    H6128147   1.146   4.288   3.636  1.4270 -0.5707  0.1865
   94MOL    C6228148   1.526   4.235   3.947  0.3337  0.7148  0.4691
   94MOL    C6328149   1.662   4.243   4.028 -0.0739  0.4138  0.1780
   94MOL    C6428150   1.645   4.262   4.182 -0.3794 -0.5229 -0.2514
   94MOL    C6528151   1.705   4.378   4.246 -0.0781  0.6516  0.3238
   94MOL    C6628152   1.677   4.402   4.382 -0.3506  0.4043  0.1154
   94MOL    C6728153   1.603   4.303   4.452 -0.1060 -0.5744  0.0537
   94MOL    C6828154   1.557   4.186   4.388 -0.1631  0.9118  0.6640
   94MOL    N6928155   1.570   4.174   4.253  0.4841  0.3583 -0.0664
   94MOL    H7028156   1.551   4.215   3.843 -0.8163  2.1261 -0.0923
   94MOL    H7128157   1.464   4.152   3.982 -1.2861  0.4716 -2.8251
   94MOL    H7228158   1.716   4.332   3.996 -1.9567  0.9773 -1.5654
   94MOL    H7328159   1.767   4.445   4.188 -0.7606 -0.0081 -1.2088
   94MOL    H7428160   1.700   4.493   4.436  0.6306 -0.5943  1.3967
   94MOL    H7528161   1.560   4.321   4.550 -2.1145 -2.3778 -0.4375
   94MOL    H7628162   1.494   4.112   4.435 -0.2946  0.7392  0.2247
   94MOL    C7728163   1.736   4.113   3.996  0.0416  0.6670  0.3069
   94MOL    C7828164   1.800   4.099   3.855  0.4191 -0.1763  0.5851
   94MOL    C7928165   1.867   4.228   3.803  0.0714  0.0223 -0.6836
   94MOL    C8028166   1.802   4.313   3.718  0.0282 -1.0095  0.2835
   94MOL    C8128167   1.873   4.428   3.667  0.9101  0.0159 -0.1671
   94MOL    C8228168   2.003   4.448   3.717  0.1588 -0.1591  0.6323
   94MOL    C8328169   2.058   4.359   3.808  0.4243  0.2440  1.0637
   94MOL    N8428170   1.994   4.255   3.850 -0.4902  0.5437 -0.3813
   94MOL    H8528171   1.681   4.026   4.030  1.4753 -0.3470  0.0678
   94MOL    H8628172   1.829   4.115   4.053 -0.8275  3.4068  1.7309
   94MOL    H8728173   1.708   4.087   3.797 -0.0249  2.4968  0.6747
   94MOL    H8828174   1.710   4.283   3.671  0.7990 -1.0845 -1.2395
   94MOL    H8928175   1.825   4.482   3.587 -1.5062 -1.8201  0.0025
   94MOL    H9028176   2.068   4.519   3.669  1.3715 -1.8238 -0.2687
   94MOL    H9128177   2.160   4.363   3.843  0.5042  1.8662  0.6752
   94MOL    C9228178   1.890   3.977   3.829 -0.4388 -0.2853 -0.3273
   94MOL    C9328179   1.954   3.960   3.689  0.2749 -0.1968 -0.0923
   94MOL    C9428180   2.072   3.865   3.695 -0.2995 -0.3122 -0.5116
   94MOL    C9528181   2.205   3.903   3.662  0.2932 -0.3654 -0.2002
   94MOL    C9628182   2.305   3.803   3.668 -0.4304 -0.3065  0.2908
   94MOL    C9728183   2.276   3.672   3.701  0.0094 -0.7117  0.3214
   94MOL    C9828184   2.141   3.643   3.716  0.0426 -0.4100  0.0052
   94MOL    N9928185   2.040   3.737   3.718 -0.0043 -0.3271  0.8729
   94MOL   H10028186   1.837   3.888   3.865 -1.0790 -0.1533 -0.9294
   94MOL   H10128187   1.972   3.988   3.901 -1.2833  1.3761  0.3906
   94MOL   H10228188   2.001   4.057   3.670  1.6553 -1.1379 -1.6214
   94MOL   H10328189   2.231   3.998   3.619 -0.8352  0.1629  0.2438
   94MOL   H10428190   2.404   3.835   3.639 -0.5804  0.1480  0.2776
   94MOL   H10528191   2.354   3.598   3.697 -0.5726 -1.3019 -0.1568
   94MOL   H10628192   2.111   3.542   3.739 -1.9463  0.0854 -0.3486
   94MOL   C10728193   1.861   3.950   3.561 -0.1425 -0.0940  0.2487
   94MOL   C10828194   1.753   3.839   3.548 -0.0385 -1.3539 -0.3086
   94MOL   C10928195   1.644   3.857   3.655 -0.1255  0.3630  0.3151
   94MOL   C11028196   1.626   3.758   3.755 -0.0292 -0.2494  0.1582
   94MOL   C11128197   1.528   3.775   3.851 -0.6238 -1.0650 -0.2936
   94MOL   C11228198   1.440   3.881   3.839  1.3468 -0.3577 -0.2702
   94MOL   C11328199   1.455   3.967   3.733 -0.6177 -0.6744 -0.0455
   94MOL   N11428200   1.560   3.964   3.644  0.3819 -0.3218 -0.1714
   94MOL   H11528201   1.937   3.932   3.485 -2.1517 -0.0379 -1.8236
   94MOL   H11628202   1.814   4.046   3.538  0.2621  0.1299  0.3602
   94MOL   H11728203   1.802   3.745   3.574  1.7950 -0.1948  0.5031
   94MOL   H11828204   1.687   3.669   3.761 -0.2644 -0.4819 -0.7823
   94MOL   H11928205   1.517   3.701   3.929 -0.0953 -3.4522 -2.4222
   94MOL   H12028206   1.366   3.899   3.916  0.6918 -0.8995 -0.7689
   94MOL   H12128207   1.395   4.057   3.732  0.0630 -0.2155 -0.2695
   94MOL   C12228208   1.700   3.820   3.404 -0.0726 -0.1763  0.7120
   94MOL   C12328209   1.717   3.682   3.340 -0.0677  0.4215 -0.1758
   94MOL   C12428210   1.618   3.584   3.404  0.9545 -0.8184  0.0528
   94MOL   C12528211   1.658   3.479   3.479 -1.0950 -0.2153 -0.0397
   94MOL   C12628212   1.564   3.383   3.517  0.3741 -0.2449  0.4775
   94MOL   C12728213   1.422   3.410   3.493 -0.2416 -0.1526 -0.1434
   94MOL   C12828214   1.390   3.531   3.435  0.8462 -0.5562  0.6245
   94MOL   N12928215   1.485   3.616   3.387 -0.3284 -0.5253 -0.5716
   94MOL   H13028216   1.755   3.883   3.335 -2.7081 -0.4251 -1.6683
   94MOL   H13128217   1.605   3.870   3.388  1.5027  2.1190 -1.8327
   94MOL   H13228218   1.819   3.656   3.369 -0.8764 -0.3485  2.1009
   94MOL   H13328219   1.765   3.463   3.486 -1.2761 -1.7237 -0.4156
   94MOL   H13428220   1.591   3.292   3.568 -1.6562 -0.5222  1.1231
   94MOL   H13528221   1.347   3.336   3.516 -1.1214  1.3186  1.7950
   94MOL   H13628222   1.286   3.547   3.412  1.2588 -0.1055 -0.9855
   94MOL   C13728223   1.704   3.671   3.186  0.6891  0.1561  0.1895
   94MOL   C13828224   1.811   3.744   3.102 -0.2420 -0.5903  0.4142
   94MOL   C13928225   1.948   3.712   3.158  0.4168 -0.3557 -0.0957
   94MOL   C14028226   2.013   3.818   3.223  0.3677  0.0502 -0.3499
   94MOL   C14128227   2.136   3.787   3.284  0.0340  0.1637  0.0434
   94MOL   C14228228   2.172   3.649   3.286 -0.0611  0.3542  0.8911
   94MOL   C14328229   2.091   3.553   3.222 -0.3400 -0.3407  0.3403
   94MOL   N14428230   1.981   3.580   3.156  0.7722  0.4480 -0.1227
   94MOL   H14528231   1.611   3.722   3.159  2.0762  0.9279 -3.3445
   94MOL   H14628232   1.669   3.576   3.145  3.2109 -0.9757  0.5866
   94MOL   H14728233   1.806   3.849   3.130 -0.4481 -0.1664 -1.1608
   94MOL   H14828234   1.971   3.917   3.234 -2.3864 -0.7637 -2.9878
   94MOL   H14928235   2.197   3.856   3.340  0.6400  0.6160 -1.1560
   94MOL   H15028236   2.256   3.609   3.342  1.3840 -0.1259 -1.5400
   94MOL   H15128237   2.116   3.448   3.222  0.8548 -0.0863  2.7234
   94MOL   C15228238   1.798   3.720   2.953 -0.4139 -0.6323 -0.7298
   94MOL   C15328239   1.680   3.793   2.883 -0.3102  0.0013  0.1832
   94MOL   C15428240   1.671   3.946   2.905  0.1651 -0.2648 -0.1939
   94MOL   C15528241   1.789   4.023   2.914  0.4143  0.2111 -0.4146
   94MOL   C15628242   1.788   4.162   2.937  0.1707  0.2888 -0.7427
   94MOL   C15728243   1.662   4.220   2.924 -0.2555  0.2214 -0.5407
   94MOL   C15828244   1.552   4.140   2.900  0.7743  0.1758 -0.4359
   94MOL   N15928245   1.553   4.003   2.899 -0.1828  0.0994  0.2870
   94MOL   H16028246   1.794   3.612   2.935  1.4230 -0.6446 -1.1487
   94MOL   H16128247   1.888   3.754   2.901 -1.0525  0.7932 -0.9076
   94MOL   H16228248   1.583   3.763   2.921 -0.9329  2.0999  0.2780
   94MOL   H16328249   1.885   3.974   2.913  0.5381  0.4007  1.0441
   94MOL   H16428250   1.883   4.211   2.949  0.5604 -0.3784 -1.0929
   94MOL   H16528251   1.638   4.325   2.932 -1.8141 -0.0463 -1.4168
   94MOL   H16628252   1.452   4.179   2.908  1.8524  2.9378  0.1430
   94MOL   C16728253   1.676   3.773   2.727  0.0512  0.2600  0.2800
   94MOL   C16828254   1.647   3.633   2.670 -0.6292 -0.6302 -0.7258
   94MOL   C16928255   1.514   3.580   2.723 -0.1060 -0.0443 -0.5396
   94MOL   C17028256   1.499   3.449   2.772 -0.3289  0.3134  0.6621
   94MOL   C17128257   1.375   3.411   2.816  0.3762 -0.9648 -0.0872
   94MOL   C17228258   1.266   3.501   2.803  0.2724  0.0674  0.5616
   94MOL   C17328259   1.294   3.631   2.748 -0.4772  0.0936 -0.4832
   94MOL   N17428260   1.413   3.660   2.705  0.6993 -0.1651  0.4592
   94MOL   H17528261   1.766   3.818   2.686 -0.0372  1.9341  1.8329
   94MOL   H17628262   1.594   3.840   2.699 -0.0942  0.1536  0.4449
   94MOL   H17728263   1.733   3.571   2.692 -0.3167 -0.2645 -0.9159
   94MOL   H17828264   1.587   3.387   2.769 -0.1394  0.5924  0.4081
   94MOL   H17928265   1.350   3.313   2.853 -0.7601 -0.8166 -0.4333
   94MOL   H18028266   1.166   3.472   2.831  0.7352 -1.5983  0.5386
   94MOL   H18128267   1.213   3.698   2.724 -2.1045 -1.4925  0.5156
   94MOL   C18228268   1.645   3.639   2.520  0.5783 -0.4479 -0.2004
   94MOL   C18328269   1.604   3.522   2.436 -0.4420 -0.1406  0.5465
   94MOL   C18428270   1.463   3.565   2.382 -0.0891 -0.2298  0.2407
   94MOL   C18528271   1.344   3.494   2.425 -1.1512 -0.4138 -0.6113
   94MOL   C18628272   1.219   3.546   2.384  0.4121  0.4863 -0.5583
   94MOL   C18728273   1.218   3.651   2.293 -0.4414  0.2948  0.2495
   94MOL   C18828274   1.341   3.707   2.250 -0.3195 -0.4452  0.3087
   94MOL   N18928275   1.462   3.666   2.289 -0.0110  0.1676 -0.2266
   94MOL   H19028276   1.743   3.670   2.482  0.6333  1.9889  1.7835
   94MOL   H19128277   1.579   3.721   2.492  0.1224 -1.4125 -1.9970
   94MOL   H19228278   1.601   3.436   2.503  2.0370 -1.1520 -0.6017
   94MOL   H19328279   1.343   3.410   2.493 -0.9230 -0.3652 -0.5463
   94MOL   H19428280   1.125   3.502   2.414 -0.3324  2.9578  0.9178
   94MOL   H19528281   1.125   3.691   2.256 -1.0440 -0.6598  0.7209
   94MOL   H19628282   1.348   3.784   2.176  0.1589 -0.0699  0.7418
   94MOL   C19728283   1.693   3.469   2.324  0.5923 -0.1267 -0.9986
   94MOL   C19828284   1.835   3.423   2.368 -0.5399 -0.1148 -0.5313
   94MOL   C19928285   1.843   3.329   2.485 -0.0339  0.1914 -0.2009
   94MOL   C20028286   1.787   3.198   2.487 -0.0352 -0.3033  0.4071
   94MOL   C20128287   1.787   3.128   2.612 -0.8065 -0.0075  0.6008
   94MOL   C20228288   1.844   3.182   2.725 -0.1049  0.2217 -0.5174
   94MOL   C20328289   1.904   3.311   2.711 -0.3295  0.1091 -0.0130
   94MOL   N20428290   1.909   3.374   2.594 -0.2500 -0.4336 -0.0358
   94MOL   H20528291   1.693   3.531   2.234  0.0169  1.3760  0.0274
   94MOL   H20628292   1.644   3.387   2.272  0.0383 -2.2497  2.6863
   94MOL   H20728293   1.895   3.510   2.396  0.2208 -0.5713 -0.7130
   94MOL   H20828294   1.735   3.163   2.399  0.9380  0.0961 -0.3363
   94MOL   H20928295   1.740   3.030   2.614 -1.2673  0.1501 -1.5191
   94MOL   H21028296   1.842   3.136   2.823  0.2293 -0.0066 -0.6177
   94MOL   H21128297   1.959   3.368   2.784 -0.8390  1.9106 -0.9990
   94MOL   C21228298   1.923   3.367   2.252 -0.5494 -0.2807  0.5266
   94MOL   C21328299   2.074   3.344   2.287  0.0845  0.5398  1.0408
   94MOL   C21428300   2.144   3.260   2.179  0.2483  0.4489 -0.4531
   94MOL   C21528301   2.166   3.307   2.051  0.4611  0.3391  0.5553
   94MOL   C21628302   2.236   3.228   1.960 -0.0660 -0.1912  0.3327
   94MOL   C21728303   2.262   3.095   1.992  0.0530  0.1301 -0.2298
   94MOL   C21828304   2.225   3.050   2.118 -0.2259 -0.1222  0.4051
   94MOL   N21928305   2.161   3.131   2.207  0.0114 -0.4159 -0.0138
   94MOL   H22028306   1.907   3.437   2.171 -0.8605 -2.0785 -1.0067
   94MOL   H22128307   1.883   3.272   2.216 -2.8332  0.1681  1.8089
   94MOL   H22228308   2.065   3.274   2.370 -0.0022  0.7697  1.2242
   94MOL   H22328309   2.156   3.411   2.023 -0.6662 -0.0682 -0.5977
   94MOL   H22428310   2.252   3.277   1.865 -5.0661  1.7070  0.3202
   94MOL   H22528311   2.297   3.031   1.912 -0.3303 -0.2245 -0.1162
   94MOL   H22628312   2.245   2.948   2.149 -0.8202  0.4782  2.9004
   94MOL   C22728313   2.147   3.469   2.328  0.0634 -0.7822  0.1666
   94MOL   C22828314   2.304   3.463   2.347  0.0644  0.5212 -0.6827
   94MOL   C22928315   2.374   3.584   2.295  0.4163  0.7810  0.3560
   94MOL   C23028316   2.469   3.580   2.192  0.0038 -0.0956  0.2678
   94MOL   C23128317   2.531   3.695   2.146  0.2931 -0.1319 -0.2931
   94MOL   C23228318   2.504   3.819   2.202 -0.2607  0.2531 -0.7083
   94MOL   C23328319   2.394   3.824   2.291 -0.8573 -0.1157  0.1419
   94MOL   N23428320   2.337   3.706   2.346  0.2919 -0.3077  0.1733
   94MOL   H23528321   2.097   3.528   2.404 -1.3402  0.9072 -1.9950
   94MOL   H23628322   2.131   3.535   2.243  0.2693 -1.1179 -0.1387
   94MOL   H23728323   2.344   3.379   2.291 -1.0802  0.2641 -1.1354
   94MOL   H23828324   2.479   3.488   2.137  1.7675  0.0635  0.3046
   94MOL   H23928325   2.601   3.691   2.063 -0.5467  1.3701 -1.1039
   94MOL   H24028326   2.548   3.908   2.161 -3.6250  2.2559 -0.2131
   94MOL   H24128327   2.350   3.914   2.332  3.2820  2.2651 -0.4174
   94MOL   C24228328   2.340   3.447   2.493  0.2043  0.0643 -0.6139
   94MOL   C24328329   2.331   3.298   2.546  0.0391 -0.2834 -0.3805
   94MOL   C24428330   2.459   3.231   2.501  0.1395 -0.1467 -0.9796
   94MOL   C24528331   2.465   3.131   2.396 -0.1581 -0.4726 -0.4661
   94MOL   C24628332   2.590   3.078   2.364  1.1438  0.4236  0.1984
   94MOL   C24728333   2.703   3.127   2.427  0.2483 -0.3111  0.4628
   94MOL   C24828334   2.690   3.231   2.517 -0.2229 -0.7034  0.6458
   94MOL   N24928335   2.573   3.285   2.549  0.3494 -0.2910 -0.6958
   94MOL   H25028336   2.266   3.513   2.539  1.9804  2.8932 -1.6980
   94MOL   H25128337   2.435   3.485   2.530 -0.9306  2.2959  0.0615
   94MOL   H25228338   2.245   3.249   2.500 -1.4879  0.6723  1.3784
   94MOL   H25328339   2.376   3.091   2.350 -0.5754 -0.8860  0.6701
   94MOL   H25428340   2.601   3.008   2.283 -1.4313 -0.3338  0.4732
   94MOL   H25528341   2.802   3.094   2.398  0.8636 -0.3901  2.5924
   94MOL   H25628342   2.777   3.268   2.570 -0.1899 -0.4879  0.4473
   94MOL   C25728343   2.310   3.297   2.699 -0.1631  0.4850 -0.0498
   94MOL   C25828344   2.303   3.168   2.770  0.0062  0.3587 -0.0966
   94MOL   C25928345   2.295   3.191   2.922 -0.0013 -0.2070  0.5598
   94MOL   C26028346   2.413   3.217   2.996 -0.4319 -0.1970  0.0591
   94MOL   C26128347   2.403   3.239   3.134  0.7757  0.4655  0.3986
   94MOL   C26228348   2.274   3.239   3.192  0.0999  0.2974 -0.1888
   94MOL   C26328349   2.163   3.212   3.106  0.3124 -1.0808  0.1599
   94MOL   N26428350   2.172   3.188   2.978  0.1277 -0.3509  0.2641
   94MOL   H26528351   2.223   3.359   2.723 -0.6368 -0.7350  1.4655
   94MOL   H26628352   2.389   3.352   2.750  0.7959 -2.0061  1.2533
   94MOL   H26728353   2.404   3.132   2.754 -0.0686  0.8050 -1.6760
   94MOL   H26828354   2.515   3.219   2.961  0.6439 -1.5033  2.9814
   94MOL   H26928355   2.488   3.258   3.198  0.9373  0.2392  0.2515
   94MOL   H27028356   2.255   3.268   3.295 -1.5048  2.1080 -0.9590
   94MOL   H27128357   2.067   3.209   3.155  0.3361  1.1295  0.4288
   94MOL   C27228358   2.187   3.079   2.721  0.5286 -0.1512 -0.0840
   94MOL   C27328359   2.193   2.936   2.791 -0.0100  0.0728 -0.8281
   94MOL   C27428360   2.064   2.851   2.773 -0.6273  0.2894 -0.5348
   94MOL   C27528361   1.990   2.809   2.882  0.3082  0.9827 -0.2179
   94MOL   C27628362   1.869   2.742   2.860  0.7853 -0.0945  0.4098
   94MOL   C27728363   1.828   2.714   2.732  0.0439  0.8852 -0.0313
   94MOL   C27828364   1.917   2.756   2.630 -0.2523 -0.8957  0.8978
   94MOL   N27928365   2.034   2.818   2.646 -0.0417 -0.5465 -0.5811
   94MOL   H28028366   2.158   3.062   2.618 -0.0358  0.8458 -0.0980
   94MOL   H28128367   2.099   3.136   2.751  1.2176  0.5786  0.6012
   94MOL   H28228368   2.205   2.946   2.899 -0.1292 -2.3387 -0.5508
   94MOL   H28328369   2.024   2.838   2.981  0.8301  3.5690 -1.1182
   94MOL   H28428370   1.813   2.713   2.948 -1.6710  0.8072 -0.8224
   94MOL   H28528371   1.731   2.670   2.715  0.5115 -1.2319  2.4768
   94MOL   H28628372   1.900   2.722   2.529  1.9528 -1.2966  0.6418
   94MOL   C28728373   2.315   2.861   2.736 -0.2235 -0.0824  0.1784
   94MOL   C28828374   2.337   2.729   2.803  0.2332 -0.6347 -0.0088
   94MOL   C28928375   2.467   2.665   2.765  0.2912 -0.3730 -0.3933
   94MOL   C29028376   2.473   2.537   2.706 -0.2907 -0.4250  0.0471
   94MOL   C29128377   2.596   2.469   2.706  0.7794  0.7839  0.7106
   94MOL   C29228378   2.707   2.530   2.757  0.5285 -0.1258  0.4128
   94MOL   C29328379   2.691   2.661   2.802 -0.0185  0.2768 -0.5109
   94MOL   N29428380   2.572   2.731   2.808 -0.2390 -0.2067  0.2624
   94MOL   H29528381   2.401   2.925   2.754  0.0803 -0.3047 -0.4498
   94MOL   H29628382   2.295   2.838   2.631  1.6929  0.2193 -0.2729
   94MOL   H29728383   2.258   2.657   2.782  0.2948 -0.0109 -2.4838
   94MOL   H29828384   2.380   2.488   2.678  0.1765  0.1802 -2.7617
   94MOL   H29928385   2.594   2.368   2.669 -0.8666  0.4152  1.7760
   94MOL   H30028386   2.800   2.476   2.760  0.4403 -0.3417 -0.4283
   94MOL   H30128387   2.777   2.711   2.842  0.5582 -0.6522 -0.5764
   94MOL   H30228388   2.335   2.741   2.912  1.3592  0.1554 -0.0589
   95MOL     C128389   1.687   3.722   0.579 -0.0001 -0.2168 -0.4223
   95MOL     C228390   1.829   3.664   0.581  0.1780 -0.0913 -0.1978
   95MOL     C328391   1.845   3.555   0.683 -0.1327 -0.1193 -0.0332
   95MOL     C428392   1.938   3.571   0.785 -0.3601  0.6956  0.1138
   95MOL     C528393   1.961   3.460   0.867 -0.5173  0.2310 -0.8265
   95MOL     C628394   1.884   3.344   0.852  0.8312 -0.0913  0.8128
   95MOL     C728395   1.797   3.339   0.741 -0.4685  0.2866  0.3988
   95MOL     N828396   1.778   3.441   0.654 -0.3208  1.0425  0.1653
   95MOL     H928397   1.662   3.762   0.677 -0.7009  1.6301 -1.3475
   95MOL    H1028398   1.662   3.799   0.507 -1.1962 -0.3658 -0.1658
   95MOL    H1128399   1.892   3.747   0.611 -0.3923  0.2767 -0.0150
   95MOL    H1228400   1.989   3.664   0.807  2.3402 -0.9208  0.9742
   95MOL    H1328401   2.027   3.473   0.951 -1.0101  0.8161 -0.5236
   95MOL    H1428402   1.899   3.249   0.903 -1.9790 -0.5865  0.7976
   95MOL    H1528403   1.746   3.246   0.722 -0.0724 -0.0655  1.0537
   95MOL    H1628404   1.611   3.645   0.567  2.0706 -2.6177  1.1582
   95MOL    C1728405   1.868   3.608   0.437 -0.4273  0.1486 -0.5433
   95MOL    C1828406   1.987   3.675   0.368 -0.1567 -0.5813  0.4406
   95MOL    C1928407   2.106   3.695   0.466  0.9887 -0.2911  0.5119
   95MOL    C2028408   2.157   3.825   0.487  0.0528 -0.0932 -0.3134
   95MOL    C2128409   2.270   3.842   0.571  0.4729 -0.4539  0.4717
   95MOL    C2228410   2.330   3.729   0.623  0.2042  0.1703  0.8012
   95MOL    C2328411   2.278   3.602   0.589 -0.1446 -0.1912 -0.5168
   95MOL    N2428412   2.168   3.587   0.513  0.2247 -0.8016  0.1435
   95MOL    H2528413   1.780   3.610   0.373  0.1872 -0.3961 -1.4173
   95MOL    H2628414   1.899   3.504   0.449 -1.6448 -0.1769 -0.1627
   95MOL    H2728415   1.953   3.775   0.338  0.9567 -0.3758 -0.1482
   95MOL    H2828416   2.113   3.914   0.445  1.7172  2.2024  2.6556
   95MOL    H2928417   2.305   3.944   0.579 -1.4149  0.2262  0.3972
   95MOL    H3028418   2.416   3.728   0.689  0.7557  0.1722  0.0960
   95MOL    H3128419   2.322   3.515   0.636 -1.0841 -0.3148  0.1376
   95MOL    C3228420   2.031   3.608   0.239  0.1570  0.1026 -0.3204
   95MOL    C3328421   2.132   3.690   0.154 -0.0371  0.0227 -0.8573
   95MOL    C3428422   2.261   3.615   0.113 -0.8099  0.7258 -0.2511
   95MOL    C3528423   2.381   3.641   0.184 -0.2652 -0.2584 -0.0192
   95MOL    C3628424   2.491   3.557   0.160 -0.1075  0.1385 -0.2800
   95MOL    C3728425   2.474   3.458   0.066  0.7025  0.0923  0.6108
   95MOL    C3828426   2.351   3.448   8.149 -0.1939  0.5174 -0.9051
   95MOL    N3928427   2.246   3.518   0.021 -0.3205 -0.1621  0.5074
   95MOL    H4028428   1.941   3.568   0.191 -0.0182 -0.7162  0.6768
   95MOL    H4128429   2.080   3.518   0.276  2.2077  1.7680  1.1334
   95MOL    H4228430   2.178   3.768   0.214 -1.6790  0.3503 -0.0042
   95MOL    H4328431   2.381   3.715   0.262  1.6673  1.1546 -1.3208
   95MOL    H4428432   2.574   3.570   0.227 -1.9062  0.1985  2.0184
   95MOL    H4528433   2.554   3.389   0.044  0.0051 -0.2437 -0.9531
   95MOL    H4628434   2.325   3.372   8.077  2.8529  0.5583 -2.1177
   95MOL    C4728435   2.060   3.754   0.026 -0.1029  0.6274  0.3805
   95MOL    C4828436   1.991   3.892   0.055  0.3781  0.1453 -0.1182
   95MOL    C4928437   2.079   3.998   0.126 -0.4948 -0.4529 -0.3153
   95MOL    C5028438   2.042   4.066   0.241  0.2992  0.4655  0.0296
   95MOL    C5128439   2.117   4.173   0.290 -0.0191 -0.0349 -0.0163
   95MOL    C5228440   2.234   4.201   0.223  0.0119 -0.3819 -0.0819
   95MOL    C5328441   2.266   4.133   0.106  0.0383 -0.0883 -0.5982
   95MOL    N5428442   2.198   4.032   0.058  0.4261  0.1721  0.4053
   95MOL    H5528443   1.996   3.681   8.128 -1.8033  1.8662  0.7246
   95MOL    H5628444   2.134   3.774   8.100  1.8127  1.5504  2.3745
   95MOL    H5728445   1.916   3.863   0.129 -0.3541 -1.8474 -1.5801
   95MOL    H5828446   1.950   4.040   0.292  1.3330 -1.0483  1.1606
   95MOL    H5928447   2.090   4.232   0.376  0.5019 -0.0657  0.1731
   95MOL    H6028448   2.297   4.280   0.261 -0.9371  0.3014  0.1072
   95MOL    H6128449   2.360   4.154   0.056 -0.0105  0.1967 -0.5717
   95MOL    C6228450   1.918   3.947   8.083  0.3030 -0.0528 -0.1938
   95MOL    C6328451   1.772   3.910   8.059  0.0380 -0.5632  0.2751
   95MOL    C6428452   1.680   3.917   0.031  0.6789  0.0075  0.4670
   95MOL    C6528453   1.637   3.798   0.093  0.1692  0.3137  0.1362
   95MOL    C6628454   1.591   3.799   0.225 -0.2234 -0.6891  0.2004
   95MOL    C6728455   1.565   3.926   0.284  0.3022  0.2943 -0.7725
   95MOL    C6828456   1.593   4.040   0.205 -0.8779 -0.1610 -0.2769
   95MOL    N6928457   1.651   4.036   0.083 -0.3392  0.9251  0.0788
   95MOL    H7028458   1.984   3.934   7.997 -0.2667 -0.5388 -0.5589
   95MOL    H7128459   1.921   4.053   8.109 -1.2213 -0.3027  1.0645
   95MOL    H7228460   1.777   3.805   8.032  1.5424 -0.1946 -0.9388
   95MOL    H7328461   1.660   3.701   0.052  0.7135  0.1814  0.7412
   95MOL    H7428462   1.557   3.709   0.273 -0.7858 -0.6943 -0.2045
   95MOL    H7528463   1.524   3.923   0.384  1.6219 -1.7892 -0.2605
   95MOL    H7628464   1.564   4.139   0.236  0.3524 -0.0943  0.6880
   95MOL    C7728465   1.718   3.975   7.927 -0.1319  0.0080  0.1814
   95MOL    C7828466   1.575   3.948   7.906  0.0914 -0.6376  0.3218
   95MOL    C7928467   1.529   4.041   7.796  0.2584 -0.2112 -0.0278
   95MOL    C8028468   1.423   4.135   7.811 -0.5215 -1.0273  0.1892
   95MOL    C8128469   1.384   4.220   7.710 -0.1260 -0.9254 -0.3742
   95MOL    C8228470   1.454   4.198   7.583  0.2122  0.3008  0.1359
   95MOL    C8328471   1.558   4.104   7.576  0.0664 -0.1343  0.5135
   95MOL    N8428472   1.600   4.030   7.681 -0.9688 -0.3491  0.2177
   95MOL    H8528473   1.777   3.942   7.842 -0.4656  0.4167 -0.2162
   95MOL    H8628474   1.731   4.083   7.933 -0.2419  0.1263 -1.5533
   95MOL    H8728475   1.523   3.977   7.998 -0.9678 -1.4363 -0.0123
   95MOL    H8828476   1.379   4.145   7.910  0.4458  0.7466  0.4640
   95MOL    H8928477   1.301   4.287   7.721  0.4080 -0.7096  2.8835
   95MOL    H9028478   1.425   4.254   7.495 -2.2936 -0.1568  0.6295
   95MOL    H9128479   1.616   4.092   7.486  0.9509 -0.9530  1.1852
   95MOL    C9228480   1.538   3.807   7.866  0.6998 -0.0810 -0.4483
   95MOL    C9328481   1.387   3.765   7.837 -0.5194  0.3929 -0.3024
   95MOL    C9428482   1.344   3.790   7.692 -0.1852  0.6595  0.0763
   95MOL    C9528483   1.234   3.864   7.661  0.7168 -0.8329 -0.4838
   95MOL    C9628484   1.198   3.889   7.530 -0.1340 -0.3150  0.1272
   95MOL    C9728485   1.273   3.820   7.434 -0.2874 -0.8296  0.5913
   95MOL    C9828486   1.382   3.735   7.475 -0.0177 -0.1043 -0.7777
   95MOL    N9928487   1.424   3.724   7.601  0.7193 -0.5748 -0.5268
   95MOL   H10028488   1.577   3.738   7.941 -3.8550  0.3297  2.5244
   95MOL   H10128489   1.587   3.781   7.773 -1.4090 -0.0295 -1.6101
   95MOL   H10228490   1.323   3.824   7.903  0.0276  0.6151  0.0389
   95MOL   H10328491   1.174   3.907   7.741  4.3030 -1.0539  2.4304
   95MOL   H10428492   1.108   3.942   7.505 -0.1793 -0.8201 -0.7762
   95MOL   H10528493   1.249   3.845   7.331 -0.2898 -0.0369  0.7792
   95MOL   H10628494   1.431   3.681   7.395 -0.7793 -3.3250  0.8471
   95MOL   C10728495   1.366   3.618   7.881  0.5103 -0.2331  0.3879
   95MOL   C10828496   1.227   3.557   7.873  0.9681 -0.0775 -0.3253
   95MOL   C10928497   1.237   3.413   7.849  0.1342 -0.5853 -0.2388
   95MOL   C11028498   1.225   3.357   7.721  0.3398  0.0981  0.0065
   95MOL   C11128499   1.239   3.214   7.705 -0.0314 -0.2659 -0.2287
   95MOL   C11228500   1.267   3.143   7.822  0.3780 -0.5397  0.2974
   95MOL   C11328501   1.273   3.212   7.946 -0.2101 -0.6295 -0.7104
   95MOL   N11428502   1.261   3.343   7.961  0.3470 -0.3557 -0.6470
   95MOL   H11528503   1.403   3.608   7.983  0.8517  0.7779  0.3701
   95MOL   H11628504   1.430   3.566   7.809 -2.4653 -2.0175 -1.0212
   95MOL   H11728505   1.177   3.604   7.789 -1.0560 -2.9005 -0.7866
   95MOL   H11828506   1.221   3.416   7.630  2.8841 -1.4812 -1.1938
   95MOL   H11928507   1.234   3.167   7.608 -1.8535  1.6065 -1.0838
   95MOL   H12028508   1.286   3.037   7.820 -1.1841 -0.8131  0.0057
   95MOL   H12128509   1.284   3.149   8.033 -0.5453  1.4889  0.8978
   95MOL   C12228510   1.130   3.598   7.995  0.2254  0.0869 -0.5789
   95MOL   C12328511   0.984   3.557   7.955 -0.5180 -0.1310 -0.5277
   95MOL   C12428512   0.894   3.560   8.079  1.0921 -0.5753  0.5873
   95MOL   C12528513   0.840   3.446   8.142  0.9003 -0.5749 -0.2601
   95MOL   C12628514   0.752   3.460   0.102  0.2464  0.2326 -0.6066
   95MOL   C12728515   0.740   3.594   0.157  0.4135  0.5720  0.4848
   95MOL   C12828516   0.807   3.703   0.097  0.0610  0.1182  0.1022
   95MOL   N12928517   0.878   3.688   8.137 -0.0197  1.2871 -0.8042
   95MOL   H13028518   1.143   3.701   8.026  1.7389  0.2698 -1.8002
   95MOL   H13128519   1.161   3.538   8.081  0.8316 -1.7061 -2.0194
   95MOL   H13228520   0.982   3.450   7.937  0.1269 -0.0828 -0.8805
   95MOL   H13328521   0.850   3.347   8.100  1.1815 -0.7633  0.2393
   95MOL   H13428522   0.710   3.375   0.154  0.4661 -0.1293 -1.0115
   95MOL   H13528523   0.678   3.609   0.244 -2.6477 -3.2850 -0.9003
   95MOL   H13628524   0.804   3.800   0.144 -0.1295  0.2927 -0.2658
   95MOL   C13728525   0.925   3.629   7.838  0.0269 -0.0319 -0.2738
   95MOL   C13828526   0.773   3.658   7.832  0.4097 -0.1034  0.7836
   95MOL   C13928527   0.739   3.749   7.717 -0.0529 -0.6791 -0.3086
   95MOL   C14028528   0.656   3.862   7.736  0.2816  0.1218 -0.5165
   95MOL   C14128529   0.624   3.946   7.625 -0.2584  0.5650  0.4372
   95MOL   C14228530   0.691   3.913   7.502 -0.1721 -0.6575 -0.3509
   95MOL   C14328531   0.784   3.808   7.499  0.5976 -0.2882  0.1166
   95MOL   N14428532   0.803   3.721   7.599 -1.2059  0.7470 -0.7326
   95MOL   H14528533   0.957   3.576   7.749 -0.7058  0.8837 -1.0984
   95MOL   H14628534   0.971   3.728   7.832  0.6238 -0.4041 -2.1682
   95MOL   H14728535   0.754   3.721   7.919  1.1400  1.0807  0.1032
   95MOL   H14828536   0.617   3.870   7.837  1.0679  2.4324 -0.3686
   95MOL   H14928537   0.556   4.029   7.636  0.1071  0.8009  0.9613
   95MOL   H15028538   0.692   3.974   7.413  1.0783  1.1371  0.8450
   95MOL   H15128539   0.834   3.790   7.405 -0.8982  1.6058 -1.0760
   95MOL   C15228540   0.676   3.540   7.843  0.7660 -0.2060  0.7768
   95MOL   C15328541   0.677   3.436   7.728  0.2490  0.0300  0.1828
   95MOL   C15428542   0.733   3.303   7.770 -0.6735 -0.2267  0.6656
   95MOL   C15528543   0.857   3.254   7.724  0.9762 -0.1921  0.7659
   95MOL   C15628544   0.900   3.131   7.774  0.8723  0.4057 -0.1958
   95MOL   C15728545   0.821   3.060   7.864  0.1642  0.0938  0.6962
   95MOL   C15828546   0.705   3.118   7.906 -0.4759 -0.0003 -0.0371
   95MOL   N15928547   0.660   3.237   7.868 -0.4813 -0.9743  1.0721
   95MOL   H16028548   0.576   3.578   7.864  1.2103  1.1169  0.5469
   95MOL   H16128549   0.686   3.483   7.936 -0.9973 -1.7506  0.0667
   95MOL   H16228550   0.745   3.478   7.654 -0.2650 -2.6593 -1.9313
   95MOL   H16328551   0.913   3.321   7.660  0.6764  0.3665  1.0839
   95MOL   H16428552   0.992   3.082   7.744  0.5048  0.6008 -1.6692
   95MOL   H16528553   0.842   2.963   7.906  0.2360  0.7521  2.2152
   95MOL   H16628554   0.643   3.066   7.978 -1.4534  1.6085  0.3156
   95MOL   C16728555   0.546   3.413   7.652  0.1832 -0.6244  0.5384
   95MOL   C16828556   0.564   3.384   7.498  0.0729 -0.1309 -0.2785
   95MOL   C16928557   0.462   3.272   7.469  0.4485 -0.5031 -0.1756
   95MOL   C17028558   0.513   3.143   7.443 -0.8833 -0.1868  0.1407
   95MOL   C17128559   0.430   3.040   7.397  0.2121 -0.2292  0.8541
   95MOL   C17228560   0.289   3.067   7.397  0.7016 -0.6885 -0.1259
   95MOL   C17328561   0.249   3.196   7.436  0.0781 -0.9585  0.4069
   95MOL   N17428562   0.331   3.292   7.476  0.6442 -0.4535  0.0290
   95MOL   H17528563   0.491   3.506   7.666  0.7957  0.2827 -2.5506
   95MOL   H17628564   0.479   3.346   7.705  0.1173 -0.1464  1.0659
   95MOL   H17728565   0.664   3.347   7.479  0.0882  0.9695 -2.5381
   95MOL   H17828566   0.616   3.109   7.446  0.3961  3.3631 -1.4551
   95MOL   H17928567   0.476   2.950   7.358  1.9782  2.3093 -3.3270
   95MOL   H18028568   0.220   2.992   7.361  0.0074  0.3560 -1.0111
   95MOL   H18128569   0.145   3.226   7.440 -0.1158 -1.5047 -0.3966
   95MOL   C18228570   0.547   3.518   7.412 -1.2409  0.5555 -0.6445
   95MOL   C18328571   0.544   3.512   7.255 -0.2748 -0.2085  0.1728
   95MOL   C18428572   0.484   3.642   7.199 -0.2357  0.1376 -0.1759
   95MOL   C18528573   0.364   3.632   7.122 -0.1926  0.6299 -0.7146
   95MOL   C18628574   0.308   3.746   7.064 -0.0019  0.4773  0.3529
   95MOL   C18728575   0.370   3.872   7.077 -0.1698 -0.1734 -0.5785
   95MOL   C18828576   0.488   3.873   7.158  1.0315 -0.0043  0.5767
   95MOL   N18928577   0.545   3.761   7.217  0.1011  0.5209  0.1277
   95MOL   H19028578   0.618   3.593   7.446 -0.1227 -0.9720  0.4182
   95MOL   H19128579   0.450   3.554   7.448 -1.8927 -0.5465 -1.2909
   95MOL   H19228580   0.475   3.431   7.231  1.7163 -1.0646 -3.0718
   95MOL   H19328581   0.330   3.530   7.115 -1.8723  1.0007  1.6127
   95MOL   H19428582   0.229   3.729   6.993  0.3745  0.3649 -0.0421
   95MOL   H19528583   0.333   3.962   7.031  1.8264  1.8952  1.7781
   95MOL   H19628584   0.536   3.967   7.181 -0.0235  0.6074  0.3393
   95MOL   C19728585   0.679   3.452   7.189  0.0659  0.7915  0.1089
   95MOL   C19828586   0.783   3.553   7.146  0.0462 -0.5535 -0.2140
   95MOL   C19928587   0.925   3.498   7.167 -0.6247 -0.3172  0.2099
   95MOL   C20028588   1.013   3.558   7.259 -0.2300 -0.8353 -0.3232
   95MOL   C20128589   1.140   3.500   7.278 -0.8077  1.2126  0.1196
   95MOL   C20228590   1.175   3.389   7.204 -0.2170  0.1160 -0.4605
   95MOL   C20328591   1.079   3.341   7.108 -0.1465 -0.1630 -0.8123
   95MOL   N20428592   0.960   3.396   7.084 -0.6965 -0.8922 -0.8771
   95MOL   H20528593   0.640   3.390   7.108 -0.1183  1.7111 -0.5212
   95MOL   H20628594   0.725   3.383   7.260  0.4844 -0.4780 -1.3605
   95MOL   H20728595   0.770   3.632   7.220 -0.2590  1.0667 -1.9605
   95MOL   H20828596   0.992   3.635   7.332  0.5148 -0.3585 -0.6042
   95MOL   H20928597   1.209   3.547   7.347 -1.2671  2.9974 -0.6111
   95MOL   H21028598   1.273   3.345   7.207 -0.6726 -0.9178 -0.2662
   95MOL   H21128599   1.094   3.255   7.045  0.0670 -0.1670 -0.7592
   95MOL   C21228600   0.757   3.603   7.005  0.6544 -0.2565  0.3108
   95MOL   C21328601   0.841   3.721   6.951  0.1449  0.3625  0.4334
   95MOL   C21428602   0.791   3.774   6.821  1.2408  0.5015  1.3150
   95MOL   C21528603   0.879   3.796   6.711 -0.2409  0.1445  0.1255
   95MOL   C21628604   0.829   3.871   6.603 -0.0412 -0.0103 -0.0101
   95MOL   C21728605   0.697   3.911   6.589  0.3243  0.1328  0.2367
   95MOL   C21828606   0.619   3.886   6.702  0.6363  0.3347  0.5272
   95MOL   N21928607   0.665   3.827   6.816  0.2771 -1.0440  0.3747
   95MOL   H22028608   0.652   3.631   6.996  0.3159 -1.3547  0.8449
   95MOL   H22128609   0.763   3.521   6.933  2.0079 -0.1136  0.2420
   95MOL   H22228610   0.944   3.685   6.950 -0.0289 -0.1388  0.7212
   95MOL   H22328611   0.981   3.761   6.714  0.4150  2.1290  1.7703
   95MOL   H22428612   0.895   3.906   6.524 -1.9031  1.4449 -0.9611
   95MOL   H22528613   0.658   3.975   6.511 -0.3772  1.5191  1.6719
   95MOL   H22628614   0.518   3.924   6.703 -0.1758 -1.7602  2.3957
   95MOL   C22728615   0.853   3.841   7.048 -0.5103  0.1902  0.7420
   95MOL   C22828616   0.966   3.945   7.030 -0.3683 -0.0016  0.3184
   95MOL   C22928617   0.934   4.086   7.092  0.0448 -0.1040 -0.2571
   95MOL   C23028618   0.976   4.211   7.033 -0.0038  0.2818  0.3612
   95MOL   C23128619   0.941   4.329   7.099 -0.1547  0.1982 -0.6685
   95MOL   C23228620   0.853   4.331   7.214  0.0830 -0.0889 -0.2682
   95MOL   C23328621   0.829   4.202   7.264  0.0076 -0.2431  0.4864
   95MOL   N23428622   0.871   4.085   7.212 -0.1069  0.7770 -0.0890
   95MOL   H23528623   0.867   3.802   7.149  1.2246 -1.6863 -0.1673
   95MOL   H23628624   0.751   3.877   7.049 -0.9785 -0.9641 -1.5244
   95MOL   H23728625   0.969   3.962   6.922  1.5075  0.1294  0.3684
   95MOL   H23828626   1.018   4.213   6.933 -1.6595 -1.3329 -0.3966
   95MOL   H23928627   0.962   4.425   7.055  1.7527 -0.2393 -0.7765
   95MOL   H24028628   0.811   4.422   7.253 -3.6788 -0.9473 -2.0400
   95MOL   H24128629   0.766   4.193   7.351 -1.6053  1.4792 -0.4562
   95MOL   C24228630   1.089   3.879   7.084  0.0070 -1.1713  0.8738
   95MOL   C24328631   1.223   3.893   7.004 -1.0931 -0.2841  0.2237
   95MOL   C24428632   1.274   4.026   6.967 -0.7654 -0.6132  0.4227
   95MOL   C24528633   1.293   4.064   6.830  0.4546  1.2493 -0.5345
   95MOL   C24628634   1.330   4.194   6.803  0.3804  0.3789  0.0219
   95MOL   C24728635   1.359   4.279   6.911 -0.2547 -0.1379  0.0031
   95MOL   C24828636   1.334   4.237   7.041 -0.1241  0.2773 -0.0363
   95MOL   N24928637   1.291   4.111   7.070 -0.2572  0.0854 -0.3689
   95MOL   H25028638   1.084   3.770   7.083 -0.2829 -1.1551  0.0592
   95MOL   H25128639   1.102   3.921   7.183  1.7822 -1.1064  0.6342
   95MOL   H25228640   1.209   3.839   6.910  0.7516 -0.0917 -0.1739
   95MOL   H25328641   1.281   3.990   6.753  0.0540  2.5774 -1.7700
   95MOL   H25428642   1.358   4.229   6.704 -0.0261 -2.8556 -1.2926
   95MOL   H25528643   1.399   4.378   6.892  1.1871 -0.9403 -1.3120
   95MOL   H25628644   1.337   4.304   7.126 -0.4784 -1.0323  1.0205
   95MOL   C25728645   1.337   3.801   7.073 -0.0112  0.3640  0.4259
   95MOL   C25828646   1.432   3.724   6.973  0.1514 -0.4720 -0.0777
   95MOL   C25928647   1.577   3.710   7.023  0.6082 -0.2226 -0.6097
   95MOL   C26028648   1.683   3.762   6.946  0.4386  0.1502 -0.0614
   95MOL   C26128649   1.817   3.740   6.996  0.0578  0.1399  0.3158
   95MOL   C26228650   1.830   3.656   7.112 -0.2429 -0.4383 -0.1984
   95MOL   C26328651   1.721   3.599   7.172  0.9102 -0.1211 -0.1216
   95MOL   N26428652   1.596   3.631   7.129  0.0702 -0.2531 -0.0132
   95MOL   H26528653   1.292   3.725   7.137  0.6001  0.9132  1.5163
   95MOL   H26628654   1.406   3.855   7.138  1.1252 -1.6065  0.8809
   95MOL   H26728655   1.432   3.787   6.884 -0.9794 -0.6147 -0.1834
   95MOL   H26828656   1.658   3.827   6.863 -2.1921  1.5660  1.7513
   95MOL   H26928657   1.909   3.767   6.946  0.1014  2.6597  1.6573
   95MOL   H27028658   1.928   3.625   7.146  0.1914  2.4338  1.3513
   95MOL   H27128659   1.722   3.520   7.246  1.7437  0.3268  0.3468
   95MOL   C27228660   1.381   3.587   6.920  0.3327 -0.0259 -0.2649
   95MOL   C27328661   1.273   3.571   6.813  0.2015  0.5061 -0.1009
   95MOL   C27428662   1.314   3.639   6.682  0.5605 -0.3609  0.0354
   95MOL   C27528663   1.445   3.649   6.640  0.1119 -0.1924 -0.6659
   95MOL   C27628664   1.467   3.735   6.526 -0.3163 -0.2131 -0.7375
   95MOL   C27728665   1.358   3.807   6.475  0.0255 -0.0818 -0.3736
   95MOL   C27828666   1.228   3.776   6.512  0.8852  0.2824 -0.1932
   95MOL   N27928667   1.208   3.696   6.622  0.4191 -0.0275  0.1430
   95MOL   H28028668   1.345   3.535   7.009  0.6395  0.7195  0.2953
   95MOL   H28128669   1.471   3.534   6.889  0.2768  0.2559 -0.9053
   95MOL   H28228670   1.192   3.624   6.863 -1.1883 -0.1068 -1.6656
   95MOL   H28328671   1.527   3.597   6.688 -0.2083 -0.2306 -0.1571
   95MOL   H28428672   1.567   3.760   6.495 -0.6492  0.3721 -1.3312
   95MOL   H28528673   1.363   3.875   6.391  0.4008  0.8315  0.3779
   95MOL   H28628674   1.137   3.828   6.488  1.2327  0.1136 -1.9905
   95MOL   C28728675   1.231   3.422   6.797 -0.6994  0.5877  0.5319
   95MOL   C28828676   1.096   3.396   6.739  0.0268  0.2204 -0.5036
   95MOL   C28928677   1.064   3.249   6.712  0.0748 -0.5079  0.0792
   95MOL   C29028678   0.995   3.168   6.797 -0.7973  0.7879  0.1478
   95MOL   C29128679   0.961   3.040   6.760  0.1380  0.0018  0.4715
   95MOL   C29228680   1.002   2.990   6.633  0.2653  0.5071  0.4413
   95MOL   C29328681   1.074   3.072   6.551  0.3728 -0.5743 -0.0598
   95MOL   N29428682   1.102   3.202   6.588 -0.3621  0.4275 -0.0631
   95MOL   H29528683   1.238   3.374   6.895 -1.6717  0.6083  0.6137
   95MOL   H29628684   1.317   3.385   6.741 -0.2786  1.2428  0.7403
   95MOL   H29728685   1.080   3.455   6.649 -2.9290  0.0727 -0.1370
   95MOL   H29828686   0.951   3.203   6.890  0.1167 -0.9562  1.2790
   95MOL   H29928687   0.888   2.984   6.817  0.8751 -1.8336 -0.3596
   95MOL   H30028688   0.977   2.893   6.594  1.3302 -0.4505  2.1042
   95MOL   H30128689   1.106   3.036   6.454  2.8208 -0.6656  0.7272
   95MOL   H30228690   1.022   3.430   6.812 -0.7542 -1.7121 -0.3767
   96MOL     C128691   6.684   1.431   8.083  0.8945  0.5532  0.1510
   96MOL     C228692   6.667   1.324   0.042 -0.7165 -0.2948  0.1510
   96MOL     C328693   6.795   1.326   0.127  0.0865  0.6598  0.6296
   96MOL     C428694   6.894   1.224   0.113  0.6170 -0.1040 -0.1873
   96MOL     C528695   7.023   1.249   0.165 -0.6357  0.7209  0.2805
   96MOL     C628696   7.049   1.370   0.232 -0.0233 -0.7610 -0.3064
   96MOL     C728697   6.939   1.465   0.245 -0.7708  0.0703 -0.0397
   96MOL     N828698   6.821   1.439   0.193  0.5154 -0.7249  0.0919
   96MOL     H928699   6.609   1.435   8.004  1.5455  1.3747 -0.4414
   96MOL    H1028700   6.685   1.531   8.126  2.0892  1.8778 -2.7983
   96MOL    H1128701   6.659   1.223   0.002 -0.4681 -0.8189  1.3813
   96MOL    H1228702   6.880   1.136   0.051  4.3367 -1.0226  0.1979
   96MOL    H1328703   7.094   1.172   0.139 -0.9481  0.6503 -0.3845
   96MOL    H1428704   7.141   1.401   0.277  0.1825 -0.0979 -1.1626
   96MOL    H1528705   6.953   1.555   0.305  0.8422 -1.3176  1.7231
   96MOL    H1628706   6.785   1.417   8.046  1.8068  2.6052  1.7642
   96MOL    C1728707   6.538   1.349   0.120 -0.3161 -0.1846 -0.2069
   96MOL    C1828708   6.522   1.267   0.254 -0.6968 -0.1570 -0.1888
   96MOL    C1928709   6.417   1.328   0.347  0.4541  0.3589 -0.4859
   96MOL    C2028710   6.450   1.360   0.485 -0.1669 -0.8045  0.9495
   96MOL    C2128711   6.347   1.389   0.572  0.1284  0.2775  0.6999
   96MOL    C2228712   6.219   1.420   0.520  0.2495 -0.1826 -0.5570
   96MOL    C2328713   6.196   1.402   0.380 -0.0726 -0.0306 -0.5415
   96MOL    N2428714   6.290   1.347   0.299 -0.6210 -0.1977 -1.4385
   96MOL    H2528715   6.450   1.342   0.056 -1.1659 -0.6814  1.0106
   96MOL    H2628716   6.534   1.453   0.151  0.8888 -0.0032 -0.6440
   96MOL    H2728717   6.612   1.280   0.314  0.0828 -1.5641 -1.0025
   96MOL    H2828718   6.549   1.339   0.522  0.6154 -0.3421 -0.8399
   96MOL    H2928719   6.359   1.397   0.679 -1.2490  0.8484  0.8192
   96MOL    H3028720   6.137   1.442   0.587  0.1369  2.8333 -1.6090
   96MOL    H3128721   6.097   1.427   0.344 -0.7677  0.6169  1.7082
   96MOL    C3228722   6.510   1.120   0.243 -0.2299  0.4743 -0.3657
   96MOL    C3328723   6.388   1.057   0.174  0.2191  0.2305  0.3415
   96MOL    C3428724   6.353   1.110   0.030 -0.6652 -0.6049  0.4582
   96MOL    C3528725   6.224   1.151   8.145 -0.7265 -0.4437  0.0815
   96MOL    C3628726   6.199   1.184   8.009 -0.7592  0.8362  0.7089
   96MOL    C3728727   6.306   1.181   7.919  0.1995  1.0815 -0.0994
   96MOL    C3828728   6.426   1.125   7.959 -0.3604  0.5694 -1.0566
   96MOL    N3928729   6.451   1.096   8.088 -0.4500 -0.1792  0.3037
   96MOL    H4028730   6.523   1.084   0.345  1.8009 -0.7258 -1.0152
   96MOL    H4128731   6.596   1.075   0.192  0.2285  0.1806  0.6624
   96MOL    H4228732   6.298   1.083   0.229 -0.4855  0.3524 -0.8632
   96MOL    H4328733   6.141   1.157   0.062  0.0612 -0.2605  1.0123
   96MOL    H4428734   6.105   1.202   7.959 -1.7131 -1.8277  1.4631
   96MOL    H4528735   6.291   1.189   7.813  2.3797 -0.2347 -0.5381
   96MOL    H4628736   6.494   1.092   7.882 -0.0277 -0.7799 -0.2063
   96MOL    C4728737   6.388   0.905   0.170 -0.1522  0.5399  0.1573
   96MOL    C4828738   6.409   0.832   0.302  0.2092 -0.0641  0.1741
   96MOL    C4928739   6.276   0.834   0.370 -0.4832 -0.0159 -0.2710
   96MOL    C5028740   6.261   0.923   0.476  0.7704  0.4558 -0.0079
   96MOL    C5128741   6.145   0.912   0.555  0.0412  0.1946  0.6573
   96MOL    C5228742   6.057   0.805   0.518  0.3120 -0.5459 -0.1400
   96MOL    C5328743   6.080   0.728   0.406 -0.1723  0.3914 -0.3295
   96MOL    N5428744   6.189   0.738   0.327 -0.3157  0.2832 -0.6526
   96MOL    H5528745   6.462   0.878   0.094  0.1244  0.0970  0.5802
   96MOL    H5628746   6.293   0.864   0.135  0.6329 -2.1481  1.0487
   96MOL    H5728747   6.470   0.896   0.365  3.0401 -0.1516 -2.3931
   96MOL    H5828748   6.333   0.995   0.513  1.4401 -1.2784  2.2077
   96MOL    H5928749   6.119   0.974   0.639 -2.1443 -0.7259  0.6991
   96MOL    H6028750   5.972   0.775   0.578  0.4156 -1.1436 -0.2856
   96MOL    H6128751   6.016   0.643   0.391 -1.3897  1.5348 -1.6809
   96MOL    C6228752   6.471   0.691   0.288 -0.5532  0.1936  0.0466
   96MOL    C6328753   6.603   0.670   0.201 -0.0950 -0.9024 -0.1185
   96MOL    C6428754   6.723   0.761   0.236 -0.3918 -0.1188 -0.5641
   96MOL    C6528755   6.753   0.800   0.368 -0.2931 -0.4074 -0.4610
   96MOL    C6628756   6.854   0.889   0.390 -0.5386 -0.7439 -0.2003
   96MOL    C6728757   6.930   0.939   0.281  0.6467  0.6104 -0.2107
   96MOL    C6828758   6.904   0.885   0.157 -0.2920 -0.1876  0.4948
   96MOL    N6928759   6.797   0.807   0.134 -0.1079  0.0789  0.7445
   96MOL    H7028760   6.402   0.615   0.251 -0.9073 -0.5083  2.0926
   96MOL    H7128761   6.491   0.652   0.388 -1.7790  2.5584  1.2796
   96MOL    H7228762   6.569   0.681   0.098 -1.1376  0.9826  0.4139
   96MOL    H7328763   6.699   0.767   0.455  3.8840  0.9609  2.8447
   96MOL    H7428764   6.872   0.935   0.486  0.2196  2.1156 -1.6616
   96MOL    H7528765   7.013   1.005   0.301  0.7110 -0.3272  2.8342
   96MOL    H7628766   6.954   0.929   0.071  0.2158  0.8901  1.3315
   96MOL    C7728767   6.638   0.520   0.224  0.9452 -0.1009  0.0943
   96MOL    C7828768   6.733   0.449   0.130  0.5086  0.0904  0.9770
   96MOL    C7928769   6.826   0.344   0.204 -0.1165  0.1521 -0.7584
   96MOL    C8028770   6.962   0.344   0.171 -0.0521  0.9161 -0.2931
   96MOL    C8128771   7.055   0.252   0.233 -0.2634 -0.2274  0.1679
   96MOL    C8228772   6.995   0.153   0.316 -0.6264  0.0069 -0.5945
   96MOL    C8328773   6.853   0.156   0.332  0.2716 -0.4677 -0.0045
   96MOL    N8428774   6.771   0.250   0.289  0.3826 -0.5020  0.5064
   96MOL    H8528775   6.549   0.456   0.229  0.3337  0.6330 -1.1408
   96MOL    H8628776   6.680   0.507   0.323 -1.9326  1.8774  1.6544
   96MOL    H8728777   6.806   0.520   0.091 -0.3451  0.2446 -0.3705
   96MOL    H8828778   7.006   0.422   0.110 -2.6165  2.0976 -0.6713
   96MOL    H8928779   7.160   0.253   0.205  0.1586 -1.1888  1.6571
   96MOL    H9028780   7.039   0.063   0.356 -0.6325  0.2975  0.0744
   96MOL    H9128781   6.807   0.077   0.390 -0.9403  0.1677 -0.0878
   96MOL    C9228782   6.658   0.378   0.019 -0.6176  0.2009  0.9596
   96MOL    C9328783   6.583   0.476   8.071 -0.1409 -0.3040 -0.6773
   96MOL    C9428784   6.666   0.577   7.998  0.5218 -0.3999 -0.4396
   96MOL    C9528785   6.618   0.712   7.979 -0.7959  0.7299  0.4578
   96MOL    C9628786   6.695   0.797   7.900 -0.1535 -0.8218  0.0580
   96MOL    C9728787   6.814   0.749   7.846  0.1963 -0.0338  0.4210
   96MOL    C9828788   6.854   0.615   7.870  1.1617  0.0363  0.1212
   96MOL    N9928789   6.777   0.530   7.943  0.0432 -0.1628  0.3253
   96MOL   H10028790   6.586   0.315   0.070 -1.1754  2.2317  2.7622
   96MOL   H10128791   6.728   0.321   8.110 -0.1364  0.7833  0.9617
   96MOL   H10228792   6.504   0.522   8.131  0.4259  0.0434 -0.1947
   96MOL   H10328793   6.517   0.741   8.003 -0.5551 -0.2521  2.7955
   96MOL   H10428794   6.679   0.902   7.881  3.3187  0.6991  4.7642
   96MOL   H10528795   6.875   0.805   7.777  2.2984 -1.9191  0.6956
   96MOL   H10628796   6.942   0.577   7.821  1.2796 -0.3023  0.5923
   96MOL   C10728797   6.501   0.387   7.968  0.0141 -0.1883 -0.8500
   96MOL   C10828798   6.397   0.287   8.032  0.0908  0.5710 -0.0461
   96MOL   C10928799   6.286   0.367   8.107 -0.0878  0.4297  0.7696
   96MOL   C11028800   6.263   0.346   0.091 -0.6506 -0.2045 -0.0403
   96MOL   C11128801   6.151   0.413   0.148 -0.3517  0.3936  0.3063
   96MOL   C11228802   6.071   0.498   0.065 -0.5219  0.1461 -0.2135
   96MOL   C11328803   6.107   0.518   8.087 -0.0736 -0.6162 -0.4195
   96MOL   N11428804   6.209   0.446   8.031 -0.7892 -0.1653  0.5328
   96MOL   H11528805   6.565   0.321   7.909 -0.4363 -0.0507 -1.5035
   96MOL   H11628806   6.444   0.461   7.912 -0.0305  0.9516  0.6752
   96MOL   H11728807   6.448   0.222   8.103 -0.6754  0.4171  0.3711
   96MOL   H11828808   6.315   0.277   0.156  0.1468  0.7563  0.3540
   96MOL   H11928809   6.123   0.384   0.249 -1.0040  1.2114  0.3698
   96MOL   H12028810   5.986   0.548   0.110 -0.8524  0.0780 -0.7608
   96MOL   H12128811   6.066   0.583   8.011  0.3560 -1.8551 -1.7537
   96MOL   C12228812   6.329   0.193   7.921  0.0926  0.3493 -0.5293
   96MOL   C12328813   6.393   0.054   7.924 -0.5088 -0.2466  0.5567
   96MOL   C12428814   6.356   8.140   8.055 -0.0296 -0.2038  0.1100
   96MOL   C12528815   6.224   8.098   8.090 -0.1899  0.2540  0.1735
   96MOL   C12628816   6.200   8.049   0.067  0.0848 -1.0358 -0.3615
   96MOL   C12728817   6.310   8.030   0.154  0.6748  0.3841 -0.4549
   96MOL   C12828818   6.438   8.071   0.116  0.2402  0.4177 -0.0488
   96MOL   N12928819   6.457   8.117   8.139  0.2473  0.6640 -0.3277
   96MOL   H13028820   6.334   0.237   7.821 -3.3164  1.6061 -0.2210
   96MOL   H13128821   6.223   0.175   7.939 -0.1640  1.7195 -0.6030
   96MOL   H13228822   6.501   0.069   7.921 -0.4391 -0.9343 -1.0868
   96MOL   H13328823   6.132   8.103   8.033 -0.3053 -2.8932 -0.0113
   96MOL   H13428824   6.101   8.022   0.099 -0.5981  3.4020  1.6686
   96MOL   H13528825   6.297   7.999   0.257  3.6021 -0.9720 -0.4269
   96MOL   H13628826   6.525   8.058   0.177  0.4009  0.7480 -0.2064
   96MOL   C13728827   6.358   8.120   7.806 -0.1890 -0.1601  0.1052
   96MOL   C13828828   6.466   8.109   7.696 -0.4510 -0.0640 -0.1504
   96MOL   C13928829   6.483   0.092   7.620 -0.2922  0.0936 -0.0829
   96MOL   C14028830   6.430   0.104   7.497 -0.6416 -0.8580  0.2647
   96MOL   C14128831   6.445   0.224   7.420 -0.2869 -0.0252  0.1345
   96MOL   C14228832   6.526   0.327   7.475 -0.5630  0.5496  0.1901
   96MOL   C14328833   6.581   0.300   7.605  0.2439  0.8211  0.7915
   96MOL   N14428834   6.558   0.187   7.678  0.1707 -0.1424  0.2574
   96MOL   H14528835   6.264   0.004   7.765 -0.3451  0.6971  1.2134
   96MOL   H14628836   6.338   8.016   7.832 -0.0093 -0.2891 -0.2744
   96MOL   H14728837   6.409   8.039   7.635 -2.3088  1.0972  0.1966
   96MOL   H14828838   6.370   0.023   7.459 -3.2984  0.4472  1.5041
   96MOL   H14928839   6.408   0.244   7.321  1.1821 -0.5063 -0.5238
   96MOL   H15028840   6.543   0.419   7.422  1.1315  0.1448  0.0161
   96MOL   H15128841   6.642   0.374   7.653  2.8186 -0.6394 -0.1092
   96MOL   C15228842   6.601   8.035   7.727 -0.5512  0.6993 -0.8293
   96MOL   C15328843   6.590   7.887   7.775 -0.5477  0.0860  0.2332
   96MOL   C15428844   6.518   7.792   7.674 -0.0324 -0.0569 -0.2061
   96MOL   C15528845   6.584   7.765   7.553  0.4851  0.1788 -0.0658
   96MOL   C15628846   6.511   7.682   7.460  0.5059 -0.4639 -0.4533
   96MOL   C15728847   6.376   7.648   7.492  0.0194  0.3502 -0.2074
   96MOL   C15828848   6.319   7.699   7.608 -0.4486  0.5174  0.1308
   96MOL   N15928849   6.388   7.769   7.704 -0.0872 -0.2646 -0.2114
   96MOL   H16028850   6.648   8.095   7.805 -2.0036  3.3718 -1.9690
   96MOL   H16128851   6.667   8.028   7.641 -0.6483  0.8955 -0.9196
   96MOL   H16228852   6.522   7.901   7.859 -1.6442  0.4285 -0.7005
   96MOL   H16328853   6.688   7.793   7.548  0.4431  0.7719  2.1926
   96MOL   H16428854   6.559   7.659   7.367 -1.1873  0.8418 -1.6848
   96MOL   H16528855   6.319   7.604   7.412  0.2639 -0.9532  0.3177
   96MOL   H16628856   6.212   7.693   7.615 -0.4466  0.3073 -0.0427
   96MOL   C16728857   6.729   7.832   7.820 -0.1002 -0.1326 -0.3669
   96MOL   C16828858   6.728   7.694   7.882  0.3373 -0.1287 -0.4335
   96MOL   C16928859   6.869   7.633   7.881  0.2300  0.6299 -0.9188
   96MOL   C17028860   6.890   7.509   7.816 -0.1031 -0.0949  0.1823
   96MOL   C17128861   7.019   7.455   7.824 -0.2714  0.2082  0.1647
   96MOL   C17228862   7.120   7.522   7.898  0.5089 -0.7177  0.1287
   96MOL   C17328863   7.084   7.637   7.969 -0.2211 -0.1266  0.0545
   96MOL   N17428864   6.964   7.699   7.960 -0.5955  0.5991 -0.3592
   96MOL   H17528865   6.776   7.909   7.881  1.1960 -1.4399  0.3222
   96MOL   H17628866   6.797   7.834   7.735  0.7218  0.6958  0.3021
   96MOL   H17728867   6.679   7.622   7.816 -0.8467  0.9650 -0.7706
   96MOL   H17828868   6.813   7.457   7.761 -0.4817 -1.6153  2.0695
   96MOL   H17928869   7.050   7.369   7.767 -2.2174 -0.2614 -0.2144
   96MOL   H18028870   7.222   7.492   7.880  0.4930 -0.7130  0.0325
   96MOL   H18128871   7.157   7.686   8.032 -2.0821  1.7174  0.8342
   96MOL   C18228872   6.648   7.693   8.021 -0.6358 -0.0793  0.3012
   96MOL   C18328873   6.679   7.581   8.128  0.3280  1.0162 -0.0135
   96MOL   C18428874   6.607   7.611   0.107 -0.1897  0.3208 -0.3024
   96MOL   C18528875   6.461   7.595   0.113 -0.0700  0.1014  0.2559
   96MOL   C18628876   6.390   7.648   0.224  0.2067 -0.1284  0.3832
   96MOL   C18728877   6.468   7.705   0.317 -0.1772 -0.1469  0.3538
   96MOL   C18828878   6.610   7.708   0.317  0.4344  0.3563 -0.0245
   96MOL   N18928879   6.677   7.670   0.205 -0.4745  1.1428 -0.3962
   96MOL   H19028880   6.541   7.682   8.002 -0.0635 -3.2473 -1.3465
   96MOL   H19128881   6.671   7.784   8.078 -0.2319  0.4862 -0.7570
   96MOL   H19228882   6.785   7.594   8.151  0.9050  1.0937 -2.6037
   96MOL   H19328883   6.396   7.564   0.033 -1.2996  1.9698  0.4975
   96MOL   H19428884   6.282   7.656   0.231  0.1267 -1.6012  1.0184
   96MOL   H19528885   6.419   7.766   0.392 -1.1244 -0.2496 -0.1834
   96MOL   H19628886   6.663   7.751   0.400 -1.4150  1.7111  0.4887
   96MOL   C19728887   6.663   7.432   8.086  0.3853  0.0959  0.6687
   96MOL   C19828888   6.712   7.340   0.049 -0.3175 -0.0410  0.0150
   96MOL   C19928889   6.682   7.195   0.009  0.0200  0.1016 -0.1314
   96MOL   C20028890   6.596   7.125   0.091  0.0305  0.6805 -0.6151
   96MOL   C20128891   6.542   6.999   0.053  0.3057  0.8931  0.0631
   96MOL   C20228892   6.600   6.942   8.090 -0.1088 -0.1263  0.5484
   96MOL   C20328893   6.705   7.014   8.023 -0.1784 -0.6181  0.6370
   96MOL   N20428894   6.743   7.136   8.055 -0.3395  0.2219 -0.4100
   96MOL   H20528895   6.720   7.406   7.997 -0.0326  0.1332  0.3873
   96MOL   H20628896   6.560   7.405   8.060  0.5021 -0.6469  0.9832
   96MOL   H20728897   6.640   7.354   0.130 -1.6355 -0.8972 -0.9841
   96MOL   H20828898   6.555   7.175   0.178  0.3414  0.0671 -0.1198
   96MOL   H20928899   6.468   6.953   0.116  0.1340  0.5799 -0.3617
   96MOL   H21028900   6.572   6.844   8.055 -0.7849 -0.5270  2.1369
   96MOL   H21128901   6.760   6.988   7.934 -1.4319  0.4261 -0.4606
   96MOL   C21228902   6.859   7.345   0.095  0.0921 -0.0069 -0.3371
   96MOL   C21328903   6.874   7.365   0.252  0.8323 -0.2858  0.7998
   96MOL   C21428904   6.771   7.284   0.334 -0.2929 -0.3358 -0.0058
   96MOL   C21528905   6.662   7.338   0.395  0.5510  0.1158  0.4391
   96MOL   C21628906   6.576   7.265   0.479  0.0724  0.3867 -0.2310
   96MOL   C21728907   6.606   7.128   0.474 -0.0185  0.0324 -0.0016
   96MOL   C21828908   6.715   7.076   0.404  0.0436 -0.0139  0.1277
   96MOL   N21928909   6.798   7.152   0.335  0.2323  0.6622 -0.7264
   96MOL   H22028910   6.908   7.431   0.049 -0.2329  1.0448  1.2189
   96MOL   H22128911   6.914   7.255   0.069  2.0831  0.8547  0.8067
   96MOL   H22228912   6.851   7.470   0.270  0.7352 -0.1069 -0.3113
   96MOL   H22328913   6.659   7.446   0.403  1.0761  0.1782 -0.0936
   96MOL   H22428914   6.485   7.298   0.526 -1.2347 -0.5568 -2.0537
   96MOL   H22528915   6.538   7.053   0.514 -0.1776 -0.8576 -1.8907
   96MOL   H22628916   6.730   6.970   0.398  0.7974  0.1974 -2.0836
   96MOL   C22728917   7.024   7.334   0.304  0.1406  0.5539  0.6542
   96MOL   C22828918   7.141   7.418   0.234  0.7610 -0.2193  0.3683
   96MOL   C22928919   7.116   7.564   0.271 -0.8162 -0.2223 -0.5909
   96MOL   C23028920   7.059   7.647   0.174 -1.0573 -0.0031 -0.3845
   96MOL   C23128921   7.034   7.780   0.216 -0.1201 -0.5074 -0.5638
   96MOL   C23228922   7.074   7.821   0.342 -0.4976 -0.6771 -0.1557
   96MOL   C23328923   7.105   7.723   0.441  0.3604  0.5777  0.2404
   96MOL   N23428924   7.132   7.600   0.396  0.3167  0.3285  0.2381
   96MOL   H23528925   7.041   7.227   0.296  1.6018  0.9661 -2.5522
   96MOL   H23628926   7.019   7.340   0.413 -1.1635 -1.2359  0.7194
   96MOL   H23728927   7.130   7.412   0.126  1.5066 -0.1143  0.2857
   96MOL   H23828928   7.030   7.604   0.079  1.7442 -0.7181 -0.9564
   96MOL   H23928929   7.001   7.860   0.150  1.0384  0.6682  0.2541
   96MOL   H24028930   7.069   7.926   0.367 -1.4865 -0.7476 -0.0249
   96MOL   H24128931   7.128   7.750   0.543  1.7735 -2.1338  0.6764
   96MOL   C24228932   7.272   7.363   0.292 -0.3752  0.2517 -0.8769
   96MOL   C24328933   7.309   7.220   0.254  0.0961 -0.8618 -0.8225
   96MOL   C24428934   7.357   7.223   0.108 -0.0783 -0.1195  0.1954
   96MOL   C24528935   7.267   7.184   0.002  0.1134  0.3044 -0.3549
   96MOL   C24628936   7.315   7.197   8.018 -0.6483  0.0780  0.2901
   96MOL   C24728937   7.447   7.226   7.997 -0.2916  0.4167 -0.6228
   96MOL   C24828938   7.529   7.273   8.104 -0.9063 -0.2674  0.0009
   96MOL   N24928939   7.473   7.284   0.077 -0.2278  0.2787 -0.2963
   96MOL   H25028940   7.268   7.364   0.401  1.4779  1.3610 -0.7927
   96MOL   H25128941   7.355   7.427   0.262  1.4501 -0.7695  1.7800
   96MOL   H25228942   7.221   7.157   0.267  0.5949 -1.1949  1.1201
   96MOL   H25328943   7.164   7.156   0.018  0.3349 -0.9444 -1.0726
   96MOL   H25428944   7.248   7.157   7.944  1.0248 -0.7218 -0.8346
   96MOL   H25528945   7.487   7.203   7.900  1.7428 -0.8321  0.4777
   96MOL   H25628946   7.628   7.313   8.089 -0.2927 -0.3552  3.2926
   96MOL   C25728947   7.422   7.162   0.341  0.1017 -1.3197  1.0035
   96MOL   C25828948   7.397   7.138   0.494 -0.2996  0.3274  0.0321
   96MOL   C25928949   7.294   7.030   0.509  0.7347 -0.6048 -0.3671
   96MOL   C26028950   7.323   6.892   0.533 -0.5501  0.3510  0.5405
   96MOL   C26128951   7.219   6.798   0.548  0.0042  0.7660 -0.0369
   96MOL   C26228952   7.087   6.837   0.523 -0.0978 -0.3025 -0.8681
   96MOL   C26328953   7.064   6.976   0.492 -1.0323 -0.2009 -0.5758
   96MOL   N26428954   7.166   7.070   0.485 -0.1036 -0.8106 -0.6778
   96MOL   H26528955   7.511   7.220   0.316 -1.2399 -0.1554 -1.2055
   96MOL   H26628956   7.444   7.068   0.290  0.0981  0.2869 -2.0569
   96MOL   H26728957   7.348   7.231   0.527 -2.3874 -1.1013  1.0998
   96MOL   H26828958   7.420   6.847   0.521 -0.1247  1.4903 -0.4225
   96MOL   H26928959   7.249   6.696   0.564  0.9845  1.0629  0.0656
   96MOL   H27028960   7.010   6.767   0.549 -0.0896  0.5984  1.6963
   96MOL   H27128961   6.968   7.016   0.464 -0.4960 -0.4465 -2.8927
   96MOL   C27228962   7.521   7.115   0.578 -0.3077 -0.0508  0.2306
   96MOL   C27328963   7.631   7.235   0.567 -0.1185 -0.0383 -0.3558
   96MOL   C27428964   7.573   7.372   0.584 -0.4800 -0.2215  0.3519
   96MOL   C27528965   7.595   7.470   0.488 -0.1150 -0.1125  0.4833
   96MOL   C27628966   7.529   7.595   0.500 -0.0977  1.2598  0.1369
   96MOL   C27728967   7.451   7.616   0.611  0.1249 -0.0384  1.2193
   96MOL   C27828968   7.440   7.514   0.709  0.2257 -0.3186 -0.1962
   96MOL   N27928969   7.497   7.395   0.694  0.3288  0.1089 -0.1943
   96MOL   H28028970   7.575   7.023   0.556  0.7617  0.8499 -1.0050
   96MOL   H28128971   7.494   7.101   0.682 -2.2229 -1.5131 -0.4321
   96MOL   H28228972   7.672   7.234   0.466 -1.2487  0.0068 -0.8308
   96MOL   H28328973   7.648   7.441   0.398  0.1990 -1.3023  1.0466
   96MOL   H28428974   7.525   7.672   0.425 -0.8179  2.3885  1.3147
   96MOL   H28528975   7.399   7.711   0.621 -2.4803 -1.3450  0.6692
   96MOL   H28628976   7.387   7.525   0.803 -0.3642 -1.1399 -0.4329
   96MOL   C28728977   7.741   7.205   0.674  0.6000  0.1907  0.3665
   96MOL   C28828978   7.849   7.310   0.703  0.8801 -1.0852 -0.0525
   96MOL   C28928979   7.950   7.253   0.800 -0.1605  0.0756 -0.0073
   96MOL   C29028980   7.945   7.280   0.936 -0.0010  0.2192  0.4264
   96MOL   C29128981   8.055   7.227   1.015 -0.6740 -0.2435 -0.0100
   96MOL   C29228982   8.149   7.138   0.960  0.0283 -0.0994  0.7493
   96MOL   C29328983   8.148   7.126   0.822  0.0848  0.1443  0.4942
   96MOL   N29428984   8.045   7.172   0.744  0.1075 -0.5738  1.1870
   96MOL   H29528985   7.779   7.105   0.652  2.1069  0.3492  2.1040
   96MOL   H29628986   7.695   7.187   0.772  1.7154  1.1248  1.0720
   96MOL   H29728987   7.809   7.410   0.719  0.1787 -1.5444  1.0578
   96MOL   H29828988   7.882   7.357   0.978 -1.1403 -0.2336 -0.4166
   96MOL   H29928989   8.066   7.254   1.119  1.5480  2.6958 -0.9191
   96MOL   H30028990   0.071   7.085   1.017  1.5753  0.1405 -0.9973
   96MOL   H30128991   0.061   7.065   0.761  1.4097  0.7134  1.3348
   96MOL   H30228992   7.902   7.338   0.611  0.5463 -0.0042  0.0714
   97MOL     C128993   3.014   3.922   2.651 -0.6824  0.1337  0.2795
   97MOL     C228994   3.152   3.874   2.613 -0.7613 -0.0726 -0.0278
   97MOL     C328995   3.168   3.809   2.479 -0.5880  0.4262  0.0650
   97MOL     C428996   3.236   3.692   2.471 -0.0880 -0.1578  0.6527
   97MOL     C528997   3.270   3.653   2.340 -0.0986  0.2783  0.5583
   97MOL     C628998   3.226   3.725   2.231 -0.3616  0.7312 -0.2766
   97MOL     C728999   3.154   3.847   2.257  0.3149  0.2122 -0.1648
   97MOL     N829000   3.124   3.889   2.385  0.1717  0.1444 -0.0089
   97MOL     H929001   2.995   3.967   2.748  0.3676 -0.0856  0.5986
   97MOL    H1029002   2.982   4.001   2.583  1.5221  0.5979 -0.2616
   97MOL    H1129003   3.181   3.795   2.682 -3.2921 -0.4139  0.7191
   97MOL    H1229004   3.271   3.633   2.554 -1.4557 -3.7611 -1.2044
   97MOL    H1329005   3.322   3.559   2.324  0.2040  0.5168  0.1477
   97MOL    H1429006   3.243   3.681   2.134 -1.6317 -2.6261  0.9590
   97MOL    H1529007   3.113   3.912   2.181  0.4525  1.6601  0.9570
   97MOL    H1629008   2.947   3.836   2.646 -1.9872  1.2006 -1.0991
   97MOL    C1729009   3.270   3.966   2.645 -0.5592  0.1907 -0.3911
   97MOL    C1829010   3.310   3.972   2.795  1.5606  0.5768 -0.1123
   97MOL    C1929011   3.345   3.835   2.864  0.4609 -0.0130  0.3669
   97MOL    C2029012   3.279   3.788   2.980  0.6395 -0.5044 -0.2647
   97MOL    C2129013   3.314   3.667   3.038 -0.0746  0.1562 -0.3196
   97MOL    C2229014   3.411   3.589   2.976 -0.4117  0.2565  0.3745
   97MOL    C2329015   3.479   3.637   2.860  0.2085 -0.3837  0.8782
   97MOL    N2429016   3.444   3.760   2.808 -0.3676  0.4743 -0.1036
   97MOL    H2529017   3.252   4.065   2.603 -0.9823  0.6448  0.8559
   97MOL    H2629018   3.357   3.921   2.597  0.3212 -1.5134  2.6437
   97MOL    H2729019   3.217   3.994   2.847  0.3549  0.3262 -2.1029
   97MOL    H2829020   3.203   3.848   3.027 -0.5441 -2.4514  0.3468
   97MOL    H2929021   3.272   3.613   3.122  0.3801 -1.5715 -1.1761
   97MOL    H3029022   3.431   3.493   3.021  0.1029  0.8637  1.4435
   97MOL    H3129023   3.550   3.574   2.809 -0.6826 -0.5158 -0.2246
   97MOL    C3229024   3.421   4.078   2.821  0.0023  0.4078  0.1473
   97MOL    C3329025   3.381   4.231   2.793 -0.7105 -0.1164 -0.0130
   97MOL    C3429026   3.240   4.258   2.851 -0.6663 -0.3658  0.0560
   97MOL    C3529027   3.124   4.255   2.774  0.2240 -0.3054 -0.0609
   97MOL    C3629028   3.001   4.291   2.825  0.1554 -0.5345 -0.3397
   97MOL    C3729029   2.991   4.321   2.964 -0.2390  0.9837 -0.2950
   97MOL    C3829030   3.110   4.306   3.042  0.4647 -0.5139  0.8533
   97MOL    N3929031   3.230   4.277   2.983  0.1145 -0.0526 -0.0362
   97MOL    H4029032   3.517   4.045   2.780  0.1722  1.1699 -0.0704
   97MOL    H4129033   3.433   4.075   2.929 -1.0721 -3.6458  0.2468
   97MOL    H4229034   3.362   4.242   2.687  1.4978  2.1636 -0.2226
   97MOL    H4329035   3.139   4.242   2.667  0.4340  0.2563 -0.1060
   97MOL    H4429036   2.914   4.304   2.763 -2.0040 -0.7896  2.5337
   97MOL    H4529037   2.897   4.354   3.006  0.1245  0.8111  0.6618
   97MOL    H4629038   3.116   4.313   3.150  1.5923 -1.4130  0.8595
   97MOL    C4729039   3.490   4.339   2.850  0.2403 -0.1528  0.2101
   97MOL    C4829040   3.604   4.356   2.751 -0.5502 -0.0950 -0.0032
   97MOL    C4929041   3.575   4.349   2.600 -0.2091  0.2071  0.8455
   97MOL    C5029042   3.488   4.440   2.546 -0.1213  0.3779 -0.0717
   97MOL    C5129043   3.445   4.430   2.412 -0.0445 -0.0420  0.0570
   97MOL    C5229044   3.493   4.316   2.347 -0.5954  0.1964  0.8789
   97MOL    C5329045   3.583   4.230   2.417 -0.4862  0.3972 -0.2228
   97MOL    N5429046   3.623   4.238   2.543  0.1719  0.2400  0.2330
   97MOL    H5529047   3.525   4.312   2.949  0.2674  0.7522  0.4467
   97MOL    H5629048   3.431   4.429   2.866 -2.8673 -2.1224  0.4652
   97MOL    H5729049   3.666   4.267   2.766 -0.5143 -0.0259  0.2614
   97MOL    H5829050   3.456   4.529   2.599 -2.1018 -1.6087  2.1955
   97MOL    H5929051   3.394   4.512   2.364 -1.2223 -0.0303  1.3025
   97MOL    H6029052   3.486   4.306   2.240 -0.4188 -1.5415  1.0041
   97MOL    H6129053   3.622   4.141   2.370 -1.3268  0.1925 -0.5397
   97MOL    C6229054   3.695   4.477   2.798 -0.7932 -0.4000 -0.2604
   97MOL    C6329055   3.781   4.551   2.689  0.5906  0.2538  0.4114
   97MOL    C6429056   3.699   4.665   2.621 -0.1635 -1.3774  0.0013
   97MOL    C6529057   3.683   4.665   2.477 -0.0066  0.4507 -0.2754
   97MOL    C6629058   3.614   4.769   2.417  0.4018  0.3689  0.3895
   97MOL    C6729059   3.572   4.871   2.503 -0.3623  0.0016 -0.7809
   97MOL    C6829060   3.598   4.867   2.643 -0.1647 -0.1501  0.6694
   97MOL    N6929061   3.665   4.767   2.699  0.1601 -0.1528  0.8890
   97MOL    H7029062   3.757   4.442   2.881 -0.2513 -1.7504 -1.2234
   97MOL    H7129063   3.635   4.560   2.836 -1.0384 -0.9242  0.5346
   97MOL    H7229064   3.809   4.475   2.617 -0.0020  0.9706 -0.5810
   97MOL    H7329065   3.717   4.577   2.423  1.7580 -0.3892  2.1425
   97MOL    H7429066   3.591   4.765   2.311 -1.2353 -1.5634  0.7810
   97MOL    H7529067   3.503   4.949   2.475 -0.7943 -0.2635 -0.4662
   97MOL    H7629068   3.568   4.945   2.711  0.4445 -0.9761  1.9043
   97MOL    C7729069   3.914   4.595   2.751 -0.5403  0.1674 -0.1093
   97MOL    C7829070   4.005   4.667   2.648  0.1939 -0.3817 -0.1724
   97MOL    C7929071   3.970   4.815   2.623 -0.6227 -0.0260  0.6120
   97MOL    C8029072   3.937   4.860   2.494  0.6895  0.1483 -1.0447
   97MOL    C8129073   3.897   4.994   2.478  0.0970  0.3324  0.6157
   97MOL    C8229074   3.910   5.080   2.589  0.8142 -0.1989  0.1358
   97MOL    C8329075   3.952   5.027   2.708 -0.3457  0.4672  0.4109
   97MOL    N8429076   3.979   4.895   2.726 -0.0896 -0.5406 -0.5721
   97MOL    H8529077   3.972   4.511   2.790  0.5528  2.1973  2.8586
   97MOL    H8629078   3.894   4.660   2.837  0.7861  1.8189 -1.0149
   97MOL    H8729079   3.983   4.625   2.550  4.4153  1.6919 -2.1385
   97MOL    H8829080   3.919   4.789   2.415  1.2797 -1.9251  0.6353
   97MOL    H8929081   3.868   5.035   2.382  1.3375 -1.6544 -0.6284
   97MOL    H9029082   3.894   5.187   2.590  0.4581 -0.2479  2.5441
   97MOL    H9129083   3.970   5.097   2.788  0.9763  3.0900 -2.0642
   97MOL    C9229084   4.158   4.651   2.671  0.6446  0.6905  0.5360
   97MOL    C9329085   4.222   4.518   2.632  0.1922 -0.1142  0.3266
   97MOL    C9429086   4.196   4.489   2.487 -0.2421 -0.2602  0.2769
   97MOL    C9529087   4.094   4.400   2.456 -0.7037 -1.2060 -0.0656
   97MOL    C9629088   4.040   4.397   2.323 -0.0875 -0.1063  0.1707
   97MOL    C9729089   4.108   4.465   2.225 -0.5675 -0.0766  0.8246
   97MOL    C9829090   4.216   4.549   2.257 -0.1073 -0.6334  0.4548
   97MOL    N9929091   4.257   4.566   2.389  0.6091 -0.0571 -0.3283
   97MOL   H10029092   4.196   4.690   2.766 -1.1708  0.2039  1.4816
   97MOL   H10129093   4.195   4.725   2.600  0.3314  0.4958  0.1680
   97MOL   H10229094   4.174   4.442   2.695  0.0151 -0.2967 -0.0280
   97MOL   H10329095   4.053   4.348   2.541  0.2604 -1.1639  0.4287
   97MOL   H10429096   3.958   4.331   2.298 -1.9044  2.3984 -0.7143
   97MOL   H10529097   4.077   4.453   2.122 -0.5474 -0.6498  0.8834
   97MOL   H10629098   4.255   4.612   2.179  1.6745 -2.0879  0.1177
   97MOL   C10729099   4.370   4.504   2.652  0.2575 -0.8992 -0.8117
   97MOL   C10829100   4.420   4.543   2.794  0.3081  0.2556  0.3875
   97MOL   C10929101   4.361   4.451   2.892  0.2010 -0.4740  0.6329
   97MOL   C11029102   4.434   4.333   2.928  0.0185  0.5494  0.5350
   97MOL   C11129103   4.379   4.245   3.023  0.3024  0.1503  0.1188
   97MOL   C11229104   4.256   4.278   3.073 -0.5418 -0.3046 -0.8401
   97MOL   C11329105   4.189   4.395   3.033 -0.0472  0.2411  0.0604
   97MOL   N11429106   4.237   4.480   2.943 -0.2291 -0.2028 -0.0149
   97MOL   H11529107   4.421   4.570   2.582  0.9205 -0.3680  0.1591
   97MOL   H11629108   4.395   4.401   2.625  0.8011 -0.5831 -1.5290
   97MOL   H11729109   4.379   4.640   2.821 -2.3423 -0.5725 -0.4727
   97MOL   H11829110   4.526   4.304   2.878 -1.3519  0.4504 -1.9883
   97MOL   H11929111   4.428   4.151   3.043 -0.1214 -0.2165 -0.5540
   97MOL   H12029112   4.208   4.217   3.147  0.0800  0.4465  0.1989
   97MOL   H12129113   4.098   4.418   3.085 -0.3102  0.5095 -0.5226
   97MOL   C12229114   4.578   4.560   2.805 -0.6082 -0.7101 -0.0509
   97MOL   C12329115   4.641   4.673   2.738  0.1006 -0.0795  0.1356
   97MOL   C12429116   4.577   4.801   2.803 -0.4582  0.7699 -0.5846
   97MOL   C12529117   4.564   4.809   2.949 -0.0945  0.8725  0.4388
   97MOL   C12629118   4.499   4.925   3.003 -0.6887  0.1614  0.6255
   97MOL   C12729119   4.435   5.010   2.918 -0.2963  0.3142  0.6415
   97MOL   C12829120   4.441   4.984   2.781  0.2371  0.3239  0.5231
   97MOL   N12929121   4.511   4.883   2.724  0.0280  0.1484 -0.4753
   97MOL   H13029122   4.612   4.467   2.761  2.6695  0.2349  0.3563
   97MOL   H13129123   4.612   4.552   2.909  2.8250  0.0702 -1.0477
   97MOL   H13229124   4.619   4.673   2.631  2.6255 -0.8457 -0.4362
   97MOL   H13329125   4.620   4.750   3.019  2.1472 -0.2595 -2.2096
   97MOL   H13429126   4.491   4.952   3.108  0.6713 -1.2916  1.1186
   97MOL   H13529127   4.377   5.093   2.958 -0.4400  0.0182  1.0478
   97MOL   H13629128   4.396   5.057   2.716 -1.1967 -2.4782 -1.7388
   97MOL   C13729129   4.795   4.663   2.737  0.3471  0.0264 -0.2055
   97MOL   C13829130   4.857   4.786   2.669 -0.1269  0.3442  0.2650
   97MOL   C13929131   5.009   4.760   2.660  0.2535 -0.2313  0.0135
   97MOL   C14029132   5.101   4.861   2.711  0.3101  0.1459 -0.1483
   97MOL   C14129133   5.238   4.832   2.708  0.5366 -0.1037 -0.4159
   97MOL   C14229134   5.286   4.713   2.648  0.4206 -0.5917 -0.0218
   97MOL   C14329135   5.189   4.621   2.611 -0.1732  0.7534  0.2597
   97MOL   N14429136   5.054   4.640   2.618  0.2435  0.2256 -0.4164
   97MOL   H14529137   4.810   4.571   2.681  1.4070  0.6072 -0.8996
   97MOL   H14629138   4.834   4.652   2.838 -0.0114  1.6025  0.1294
   97MOL   H14729139   4.853   4.874   2.733  0.0023 -0.0363  0.7984
   97MOL   H14829140   5.072   4.957   2.750  1.3721  0.1568  0.6452
   97MOL   H14929141   5.311   4.906   2.738 -0.0149 -0.4803  1.9663
   97MOL   H15029142   5.391   4.695   2.634  0.4093 -0.8892  0.2486
   97MOL   H15129143   5.217   4.520   2.584  0.3428  1.0490 -0.3203
   97MOL   C15229144   4.802   4.826   2.524 -0.4976  0.1368 -1.3391
   97MOL   C15329145   4.893   4.882   2.411  0.3001  0.1061 -0.0913
   97MOL   C15429146   4.945   4.775   2.312 -0.2619 -0.1982 -0.0132
   97MOL   C15529147   5.080   4.747   2.294  0.3399  0.1771  0.2385
   97MOL   C15629148   5.121   4.655   2.194  0.2830 -0.0227 -0.1006
   97MOL   C15729149   5.018   4.597   2.118  0.1664  0.3151  0.2648
   97MOL   C15829150   4.886   4.626   2.142  0.3923  0.4162  0.4626
   97MOL   N15929151   4.842   4.706   2.244 -0.2655 -0.3028  0.7033
   97MOL   H16029152   4.729   4.904   2.545 -0.5138 -0.3273  0.4536
   97MOL   H16129153   4.758   4.742   2.471 -1.6700 -1.3904  1.9103
   97MOL   H16229154   4.987   4.919   2.451  1.3813 -2.0149 -0.5942
   97MOL   H16329155   5.153   4.803   2.351 -0.2194 -0.6546  1.8085
   97MOL   H16429156   5.221   4.617   2.181 -0.9235 -3.9891  1.6007
   97MOL   H16529157   5.047   4.534   2.034  1.3911 -0.9406  1.5963
   97MOL   H16629158   4.806   4.584   2.082  1.0061 -1.4260  0.9073
   97MOL   C16729159   4.820   4.999   2.341 -0.2116  0.2046 -1.0104
   97MOL   C16829160   4.821   5.136   2.409  0.2842  0.0312 -0.2661
   97MOL   C16929161   4.962   5.187   2.437  0.4333 -0.3736 -0.1374
   97MOL   C17029162   4.998   5.222   2.562 -0.0622 -0.3980  0.4092
   97MOL   C17129163   5.126   5.280   2.594  0.1749  0.3579 -0.4835
   97MOL   C17229164   5.213   5.294   2.482  0.0389  0.4739  0.3023
   97MOL   C17329165   5.169   5.250   2.355  0.5852 -0.7245 -0.0925
   97MOL   N17429166   5.043   5.196   2.336  0.2952 -0.2737  0.8118
   97MOL   H17529167   4.720   4.966   2.313  0.3670 -2.8260  0.2890
   97MOL   H17629168   4.859   5.003   2.239 -0.5398  0.4903 -1.1249
   97MOL   H17729169   4.761   5.122   2.500  1.1208 -0.6488  0.1864
   97MOL   H17829170   4.925   5.190   2.635 -0.8243 -2.9471 -1.4057
   97MOL   H17929171   5.154   5.312   2.693 -0.1169  1.5009 -0.7653
   97MOL   H18029172   5.311   5.339   2.490  0.9697 -1.5215  0.3140
   97MOL   H18129173   5.230   5.274   2.269 -1.8765 -0.8281 -1.9170
   97MOL   C18229174   4.746   5.236   2.315  0.1712  0.1504 -0.0209
   97MOL   C18329175   4.694   5.366   2.375 -0.0234 -0.1782  0.8747
   97MOL   C18429176   4.603   5.359   2.496  0.1491 -0.4901  0.2967
   97MOL   C18529177   4.466   5.393   2.486  0.4908 -0.8682  0.1074
   97MOL   C18629178   4.390   5.400   2.603  0.6071 -0.0262  0.3067
   97MOL   C18729179   4.451   5.361   2.724 -0.0600  0.4143 -0.4202
   97MOL   C18829180   4.582   5.314   2.720 -0.0890 -0.6903  0.3272
   97MOL   N18929181   4.660   5.312   2.610 -0.4248  0.6251 -0.2124
   97MOL   H19029182   4.658   5.184   2.278  0.1537 -1.0504  1.6573
   97MOL   H19129183   4.802   5.255   2.224  0.0838  2.1162  0.3209
   97MOL   H19229184   4.631   5.413   2.299  0.0910 -2.6310 -0.7830
   97MOL   H19329185   4.422   5.420   2.392 -1.3950 -0.4552  1.0805
   97MOL   H19429186   4.292   5.444   2.596 -0.6678 -2.7837  0.1000
   97MOL   H19529187   4.397   5.353   2.818  1.6235 -3.6797  0.2796
   97MOL   H19629188   4.622   5.279   2.814 -0.8759  1.0607  1.3500
   97MOL   C19729189   4.798   5.478   2.405 -0.4762 -0.3536  0.0900
   97MOL   C19829190   4.881   5.526   2.280  0.5226  0.0083 -0.0493
   97MOL   C19929191   4.802   5.613   2.191 -0.3648 -0.4263 -0.1700
   97MOL   C20029192   4.841   5.608   2.058  0.8194  0.3051 -0.1293
   97MOL   C20129193   4.787   5.695   1.962  0.2193 -0.5800 -0.3734
   97MOL   C20229194   4.698   5.794   2.009  0.0423  0.2752 -0.1269
   97MOL   C20329195   4.660   5.790   2.144 -0.5771 -0.4954 -0.6670
   97MOL   N20429196   4.706   5.700   2.236  0.2986 -0.0038 -0.3933
   97MOL   H20529197   4.861   5.443   2.487 -1.1364 -2.3416 -0.2155
   97MOL   H20629198   4.748   5.564   2.449  2.4041  0.5911  1.6107
   97MOL   H20729199   4.919   5.444   2.219 -1.5298 -0.7324 -0.3483
   97MOL   H20829200   4.908   5.534   2.016 -0.3876 -0.7834 -0.1516
   97MOL   H20929201   4.824   5.713   1.862 -1.7094  0.2942 -0.9401
   97MOL   H21029202   4.671   5.880   1.950 -1.8508 -0.1478  0.1086
   97MOL   H21129203   4.585   5.856   2.184 -2.5717 -1.8826 -1.9783
   97MOL   C21229204   5.017   5.591   2.326 -0.4260  0.2823  0.0097
   97MOL   C21329205   5.019   5.731   2.392 -0.3281  1.0099  0.1061
   97MOL   C21429206   4.943   5.726   2.528 -0.4703  0.5285 -0.4621
   97MOL   C21529207   4.829   5.813   2.547  0.2926 -0.7046  0.1570
   97MOL   C21629208   4.771   5.821   2.673 -0.2891 -0.3435 -0.4312
   97MOL   C21729209   4.824   5.738   2.776 -0.5324  0.6004 -0.4464
   97MOL   C21829210   4.936   5.653   2.752  0.2201  0.4657  0.5660
   97MOL   N21929211   5.001   5.656   2.630  0.1186  0.3336  0.2145
   97MOL   H22029212   5.083   5.589   2.240  0.5106  0.5440  0.7110
   97MOL   H22129213   5.056   5.521   2.400 -0.3911 -1.5690 -1.7114
   97MOL   H22229214   4.952   5.782   2.322  0.9057  2.4399 -0.0630
   97MOL   H22329215   4.783   5.858   2.461  1.5478 -0.5917 -0.4710
   97MOL   H22429216   4.687   5.882   2.703 -0.2534  0.1383 -1.2706
   97MOL   H22529217   4.775   5.718   2.871  0.5714  2.1257  0.4616
   97MOL   H22629218   4.967   5.580   2.825  3.1621  1.7343  0.6450
   97MOL   C22729219   5.151   5.803   2.394  0.5383 -0.1958 -0.1756
   97MOL   C22829220   5.245   5.801   2.273  0.1035  0.5326  0.2831
   97MOL   C22929221   5.188   5.839   2.133 -0.2840  0.0671 -0.2723
   97MOL   C23029222   5.071   5.918   2.117  0.1257 -0.3232  0.0744
   97MOL   C23129223   5.015   5.938   1.994  0.4646  0.0663  0.9055
   97MOL   C23229224   5.077   5.875   1.886 -0.6709 -0.2277  0.1344
   97MOL   C23329225   5.201   5.806   1.905  0.1629  0.2815  0.1291
   97MOL   N23429226   5.254   5.790   2.027  1.0196  0.7564  0.0350
   97MOL   H23529227   5.215   5.762   2.473  1.1455  2.1385  0.5895
   97MOL   H23629228   5.125   5.906   2.419 -1.5369 -0.5265 -0.8994
   97MOL   H23729229   5.281   5.701   2.250  0.0631  0.0156  2.3305
   97MOL   H23829230   5.026   5.965   2.203 -0.6253  1.4296 -1.2359
   97MOL   H23929231   4.928   6.000   1.980  0.6651  0.1571  0.0596
   97MOL   H24029232   5.033   5.890   1.788 -0.5215  4.3308  0.6607
   97MOL   H24129233   5.239   5.763   1.814 -0.0597 -1.5820  0.9024
   97MOL   C24229234   5.365   5.902   2.301  0.4437 -0.8265  0.4186
   97MOL   C24329235   5.451   5.875   2.421  0.2280 -0.4942  0.0568
   97MOL   C24429236   5.519   5.736   2.413  0.1806  0.1142 -0.2695
   97MOL   C24529237   5.510   5.648   2.525  0.4626  0.0850 -0.3187
   97MOL   C24629238   5.577   5.520   2.518 -0.1354  0.5106  0.3944
   97MOL   C24729239   5.641   5.484   2.400 -0.4629 -0.4766 -0.0793
   97MOL   C24829240   5.659   5.585   2.301  0.7220  0.2132 -0.1923
   97MOL   N24929241   5.595   5.703   2.305  0.4948 -0.2622 -0.2197
   97MOL   H25029242   5.330   6.005   2.298 -1.2069 -1.3449  0.8872
   97MOL   H25129243   5.424   5.902   2.209  1.0773 -1.6133  0.8192
   97MOL   H25229244   5.391   5.859   2.510  1.5307 -0.8184  0.8986
   97MOL   H25329245   5.437   5.670   2.603  0.3041  0.5628 -0.5984
   97MOL   H25429246   5.565   5.443   2.593 -0.4150 -0.4847 -0.6647
   97MOL   H25529247   5.676   5.383   2.392  2.1806  0.6393 -4.1462
   97MOL   H25629248   5.729   5.563   2.221  0.4763 -2.7668  0.3319
   97MOL   C25729249   5.560   5.986   2.453 -0.0529 -0.0863  0.0096
   97MOL   C25829250   5.517   6.139   2.442 -0.5693 -0.4955  0.5167
   97MOL   C25929251   5.395   6.169   2.530  0.4762 -0.0226  0.8114
   97MOL   C26029252   5.293   6.259   2.490  0.1362  0.6171 -0.2001
   97MOL   C26129253   5.181   6.271   2.575  0.0010 -0.6395  0.3074
   97MOL   C26229254   5.169   6.188   2.687  0.2780 -0.3484  0.8824
   97MOL   C26329255   5.280   6.111   2.730 -0.1002 -0.7877 -0.2772
   97MOL   N26429256   5.391   6.117   2.655  0.3706 -0.1179  0.3583
   97MOL   H26529257   5.635   5.987   2.374 -0.4264 -0.9091 -0.3606
   97MOL   H26629258   5.601   5.959   2.550 -2.2404  1.0763  1.2996
   97MOL   H26729259   5.481   6.156   2.341  1.6432 -0.7608 -0.3375
   97MOL   H26829260   5.307   6.314   2.397 -0.9555 -0.6953 -1.1601
   97MOL   H26929261   5.107   6.347   2.553  0.7437 -0.8481 -3.1260
   97MOL   H27029262   5.084   6.198   2.753  0.0804  1.1768  0.4008
   97MOL   H27129263   5.269   6.034   2.805 -0.6827 -2.2976 -1.8577
   97MOL   C27229264   5.632   6.242   2.467 -0.9066 -0.0587  0.0816
   97MOL   C27329265   5.695   6.242   2.604  0.3442  0.2571  0.1342
   97MOL   C27429266   5.847   6.211   2.598  0.6540 -0.8178 -0.2198
   97MOL   C27529267   5.903   6.096   2.665  0.2267  0.5159  0.1359
   97MOL   C27629268   6.039   6.076   2.657  0.1034  0.0782  0.2470
   97MOL   C27729269   6.121   6.181   2.597  0.5484  0.7667 -0.4198
   97MOL   C27829270   6.061   6.291   2.540  0.8175 -0.0973 -0.2750
   97MOL   N27929271   5.918   6.307   2.546  0.2023 -0.3691  0.1818
   97MOL   H28029272   5.613   6.344   2.432  1.4346  0.0530 -0.9179
   97MOL   H28129273   5.702   6.214   2.388 -1.1625  0.1268 -0.2174
   97MOL   H28229274   5.645   6.165   2.663 -1.8834  1.4897 -0.0571
   97MOL   H28329275   5.838   6.022   2.708 -0.1216  0.5573 -0.3151
   97MOL   H28429276   6.091   5.995   2.707  1.0505  1.1682  1.0359
   97MOL   H28529277   6.229   6.168   2.603  0.6703  0.8327 -2.3542
   97MOL   H28629278   6.114   6.366   2.484  2.8030 -0.6153  0.8556
   97MOL   C28729279   5.673   6.373   2.689 -0.9623  0.0080 -0.0694
   97MOL   C28829280   5.528   6.419   2.704  0.7312 -0.1780 -0.1940
   97MOL   C28929281   5.525   6.570   2.739 -0.8454  0.3732  0.3139
   97MOL   C29029282   5.547   6.606   2.872  0.5724 -1.1112 -0.4276
   97MOL   C29129283   5.566   6.743   2.903  0.0960  0.5443  0.3584
   97MOL   C29229284   5.581   6.836   2.794 -0.1035  0.4714 -0.3669
   97MOL   C29329285   5.540   6.792   2.671 -0.6011 -0.3915 -0.5399
   97MOL   N29429286   5.521   6.664   2.639 -0.1606  0.2443 -0.0117
   97MOL   H29529287   5.729   6.452   2.638  0.9613  0.2968  2.3766
   97MOL   H29629288   5.722   6.372   2.787 -0.7689 -0.3844 -0.1691
   97MOL   H29729289   5.472   6.358   2.775 -0.7743  0.2663 -0.9750
   97MOL   H29829290   5.552   6.543   2.959  2.1412  0.1741  0.4494
   97MOL   H29929291   5.591   6.769   3.005  1.0509  1.2164 -0.0374
   97MOL   H30029292   5.610   6.938   2.819  1.2493 -0.1610  0.7311
   97MOL   H30129293   5.514   6.865   2.596  1.0674  0.6115 -0.1622
   97MOL   H30229294   5.472   6.403   2.611 -2.5030 -1.2797  1.8755
   98MOL     C129295   5.710   1.875   7.714  0.9323 -0.2462 -0.0439
   98MOL     C229296   5.748   1.756   7.803  0.0366  0.6072  0.0055
   98MOL     C329297   5.875   1.679   7.761  1.1895 -0.1077 -0.1407
   98MOL     C429298   5.853   1.542   7.737  0.1645  0.1498 -0.1935
   98MOL     C529299   5.967   1.469   7.701 -0.1049 -0.6456  0.7655
   98MOL     C629300   6.094   1.532   7.701 -0.4314 -0.1545 -0.3542
   98MOL     C729301   6.106   1.668   7.735  0.4873  0.2579 -0.6076
   98MOL     N829302   5.998   1.739   7.767  0.7105 -0.1330 -0.0969
   98MOL     H929303   5.691   1.852   7.609 -3.4450 -0.8885  0.8183
   98MOL    H1029304   5.621   1.926   7.751  0.9364 -1.2758  1.4169
   98MOL    H1129305   5.662   1.688   7.798 -1.6274  2.7466 -1.3862
   98MOL    H1229306   5.755   1.499   7.746  0.3302 -0.2618 -0.2957
   98MOL    H1329307   5.963   1.363   7.679  0.9087 -1.2389  3.2456
   98MOL    H1429308   6.181   1.473   7.677 -0.7146 -0.8622  0.3297
   98MOL    H1529309   6.206   1.710   7.740 -0.0229  1.7828 -2.6110
   98MOL    H1629310   5.797   1.940   7.706  1.2847 -0.6535  0.4517
   98MOL    C1729311   5.755   1.803   7.947  0.2982  1.1279  0.2490
   98MOL    C1829312   5.733   1.683   8.043  0.3390 -0.3671 -0.3330
   98MOL    C1929313   5.863   1.640   8.113 -0.3916 -0.1110 -0.0973
   98MOL    C2029314   5.947   1.729   0.031  0.0444  0.7540  0.3274
   98MOL    C2129315   6.063   1.673   0.091  0.2745 -0.8769  0.4280
   98MOL    C2229316   6.093   1.539   0.082  0.1844 -0.3912 -0.2474
   98MOL    C2329317   6.007   1.463   0.000 -0.4539  0.4211 -0.3132
   98MOL    N2429318   5.894   1.508   8.108  0.2518  0.1386 -0.5186
   98MOL    H2529319   5.676   1.877   7.953  1.7519  2.9676 -2.2240
   98MOL    H2629320   5.849   1.857   7.958  1.3658 -0.3790 -1.2106
   98MOL    H2729321   5.715   1.591   7.986 -1.8585  0.0223 -0.3362
   98MOL    H2829322   5.916   1.832   0.035  0.2424  0.8537 -0.5312
   98MOL    H2929323   6.128   1.742   0.143 -0.8082  2.3056 -2.2631
   98MOL    H3029324   6.180   1.498   0.130  0.5408 -1.5536 -1.8345
   98MOL    H3129325   6.033   1.365   8.114 -1.8802  0.1533 -0.6083
   98MOL    C3229326   5.625   1.708   0.005 -0.3974  0.2583 -0.8080
   98MOL    C3329327   5.489   1.661   8.123 -0.5680  0.4167 -1.4262
   98MOL    C3429328   5.394   1.653   0.092 -0.4149 -0.3228 -0.2428
   98MOL    C3529329   5.332   1.537   0.126  0.3577  0.2387  0.1662
   98MOL    C3629330   5.234   1.539   0.225 -0.2935 -0.4200 -0.3068
   98MOL    C3729331   5.211   1.660   0.296  0.8991 -0.6651 -0.6072
   98MOL    C3829332   5.285   1.779   0.254  0.3128 -0.2796  0.4200
   98MOL    N3929333   5.369   1.771   0.150 -0.0368 -0.4010  0.0916
   98MOL    H4029334   5.617   1.809   0.044  0.2803 -0.1491  0.4146
   98MOL    H4129335   5.659   1.658   0.096  2.3916  0.4580 -1.7149
   98MOL    H4229336   5.500   1.556   8.100  1.2976  0.5371 -1.0985
   98MOL    H4329337   5.339   1.449   0.063  0.9140 -0.9255  1.7902
   98MOL    H4429338   5.169   1.455   0.246 -0.1597 -1.3706 -3.5168
   98MOL    H4529339   5.134   1.663   0.372  1.6083  1.5241  0.0420
   98MOL    H4629340   5.256   1.874   0.298 -3.7164 -0.5533 -1.4300
   98MOL    C4729341   5.423   1.739   8.005  0.4456  0.6463  0.1385
   98MOL    C4829342   5.281   1.701   7.958 -0.0613  0.3418 -0.0874
   98MOL    C4929343   5.222   1.802   7.862 -0.3715 -0.0839  0.1543
   98MOL    C5029344   5.114   1.881   7.897 -0.1282 -0.2770 -0.2064
   98MOL    C5129345   5.056   1.964   7.799 -0.2670  0.3464  0.4217
   98MOL    C5229346   5.117   1.976   7.673 -0.3217  0.8826  0.4719
   98MOL    C5329347   5.226   1.888   7.653 -0.0997  0.9233  0.6875
   98MOL    N5429348   5.277   1.803   7.740  0.4572 -0.1980  0.1451
   98MOL    H5529349   5.497   1.741   7.925 -0.6840 -0.4380 -0.9529
   98MOL    H5629350   5.414   1.844   8.034 -2.8609  0.8403 -1.4354
   98MOL    H5729351   5.214   1.701   8.044  1.3598  0.9943  1.0286
   98MOL    H5829352   5.063   1.877   7.992 -0.3887 -0.7825 -0.3640
   98MOL    H5929353   4.957   2.000   7.821 -0.4199  0.0203  0.2602
   98MOL    H6029354   5.081   2.046   7.599  0.8983  3.2538  2.0318
   98MOL    H6129355   5.282   1.891   7.561 -0.1937  1.2571  0.6403
   98MOL    C6229356   5.273   1.556   7.910 -0.1350  1.6959 -0.5642
   98MOL    C6329357   5.146   1.508   7.850  0.0970  0.1346 -0.0114
   98MOL    C6429358   5.168   1.370   7.794 -0.3641 -1.0495 -0.3160
   98MOL    C6529359   5.170   1.349   7.654 -0.1540 -0.8330 -0.1925
   98MOL    C6629360   5.169   1.221   7.605 -0.1307 -0.1458 -0.4842
   98MOL    C6729361   5.172   1.111   7.691 -0.1845  0.0404 -0.0308
   98MOL    C6829362   5.172   1.140   7.830 -0.5721 -1.1219  0.6028
   98MOL    N6929363   5.174   1.269   7.879  0.2249  0.4311  0.3257
   98MOL    H7029364   5.303   1.492   7.993 -1.2540  1.2033 -0.5273
   98MOL    H7129365   5.349   1.543   7.833  0.5093  1.1936  0.1425
   98MOL    H7229366   5.134   1.575   7.766 -0.9902  0.3734  0.3201
   98MOL    H7329367   5.163   1.427   7.579 -1.3080 -0.8570 -0.1209
   98MOL    H7429368   5.160   1.197   7.500 -2.8942 -2.0548  0.1257
   98MOL    H7529369   5.167   1.008   7.658  0.6565  0.0505 -0.1839
   98MOL    H7629370   5.173   1.060   7.902  1.3493 -1.2088  0.5130
   98MOL    C7729371   5.015   1.523   7.938 -0.4989  0.1278  0.0852
   98MOL    C7829372   4.890   1.516   7.852 -0.4069  0.1640  0.0940
   98MOL    C7929373   4.765   1.481   7.932  0.9961 -0.4724  0.3931
   98MOL    C8029374   4.683   1.372   7.900  0.2545  0.0401  0.6902
   98MOL    C8129375   4.558   1.364   7.960 -0.0313 -0.3010  0.3848
   98MOL    C8229376   4.523   1.464   8.055  0.2119 -0.5270  0.2342
   98MOL    C8329377   4.617   1.563   8.089 -0.2425 -0.5812 -0.0124
   98MOL    N8429378   4.740   1.567   8.030 -0.1898  0.1171 -0.4328
   98MOL    H8529379   5.015   1.603   8.013 -2.1223  0.9340 -0.7544
   98MOL    H8629380   5.014   1.438   8.007  1.2536  1.0430  1.2746
   98MOL    H8729381   4.905   1.426   7.791 -2.0984 -0.3240  0.3476
   98MOL    H8829382   4.707   1.300   7.823 -0.8498  1.1809 -0.7478
   98MOL    H8929383   4.488   1.288   7.929  0.7674 -1.1275  0.5889
   98MOL    H9029384   4.421   1.465   8.090  0.9088 -1.6320  2.4054
   98MOL    H9129385   4.581   1.649   8.142  2.3656  0.1269  0.6717
   98MOL    C9229386   4.874   1.641   7.762  0.6647  0.0630  0.0087
   98MOL    C9329387   4.796   1.616   7.633  0.5769  0.5021  1.2558
   98MOL    C9429388   4.735   1.749   7.586 -0.7510  0.0381  0.2215
   98MOL    C9529389   4.599   1.766   7.565  0.8246 -0.2695  0.1588
   98MOL    C9629390   4.553   1.893   7.526 -0.0477  0.2524 -0.0405
   98MOL    C9729391   4.645   1.993   7.489 -0.7319 -0.5870  0.3270
   98MOL    C9829392   4.778   1.964   7.500 -0.1353  0.5027  0.5977
   98MOL    N9929393   4.818   1.850   7.553  0.0805 -0.0606  0.5482
   98MOL   H10029394   4.965   1.699   7.746  1.5688 -1.2389  0.3788
   98MOL   H10129395   4.809   1.707   7.820  1.6241 -0.1182  1.3093
   98MOL   H10229396   4.710   1.552   7.654  2.6307 -2.4898  0.9298
   98MOL   H10329397   4.533   1.681   7.576  0.4700  0.1540  1.3710
   98MOL   H10429398   4.447   1.905   7.510  0.1532 -0.3470 -1.9357
   98MOL   H10529399   4.605   2.090   7.464  1.5126  0.5630  1.0983
   98MOL   H10629400   4.859   2.028   7.469 -1.3241  1.6206 -0.2952
   98MOL   C10729401   4.880   1.550   7.528  0.0030  0.2173 -0.1870
   98MOL   C10829402   4.814   1.515   7.394  0.1983 -1.1681 -0.2028
   98MOL   C10929403   4.928   1.488   7.289 -0.2340  0.2548  0.5451
   98MOL   C11029404   4.937   1.567   7.176  0.9029  0.8451  0.2225
   98MOL   C11129405   5.045   1.558   7.088 -0.6519  0.5270  0.4078
   98MOL   C11229406   5.144   1.457   7.111 -0.4907  0.6688  0.2360
   98MOL   C11329407   5.128   1.383   7.232  0.0442  0.2992 -0.9804
   98MOL   N11429408   5.025   1.392   7.320 -0.1790  0.3345  0.0106
   98MOL   H11529409   4.923   1.458   7.567 -0.7524 -0.7617 -1.5814
   98MOL   H11629410   4.966   1.611   7.503  1.1388 -0.2228  2.5189
   98MOL   H11729411   4.770   1.608   7.358 -0.7285 -1.8627 -0.8666
   98MOL   H11829412   4.865   1.645   7.157 -0.3358 -0.5685 -0.9540
   98MOL   H11929413   5.039   1.615   6.996  2.8512  1.7548  0.8605
   98MOL   H12029414   5.226   1.447   7.042 -0.5654  0.3471  0.1948
   98MOL   H12129415   5.205   1.314   7.265  0.9944  2.4498  1.5114
   98MOL   C12229416   4.715   1.405   7.400  0.5320  0.2692  0.3412
   98MOL   C12329417   4.607   1.405   7.293  0.3170  0.8691 -0.5434
   98MOL   C12429418   4.529   1.271   7.296  1.2327 -0.3931 -0.1186
   98MOL   C12529419   4.542   1.169   7.193 -0.7262  0.3253 -0.4395
   98MOL   C12629420   4.453   1.059   7.205  0.0374  0.3478 -0.0986
   98MOL   C12729421   4.376   1.042   7.323  0.5165  0.0419 -0.9675
   98MOL   C12829422   4.375   1.150   7.419 -0.0643 -0.0562 -0.3898
   98MOL   N12929423   4.456   1.257   7.403  0.3211 -0.1197  0.1699
   98MOL   H13029424   4.648   1.417   7.485 -1.3019  0.0533 -1.0265
   98MOL   H13129425   4.757   1.305   7.407  0.1413  0.0986  0.2822
   98MOL   H13229426   4.662   1.402   7.199  0.8871 -1.9784 -0.1718
   98MOL   H13329427   4.598   1.183   7.102  1.1310 -0.3685  0.5488
   98MOL   H13429428   4.459   0.985   7.126 -0.3136 -0.6514  0.7950
   98MOL   H13529429   4.305   0.962   7.341 -1.7591  2.5008  1.6140
   98MOL   H13629430   4.321   1.136   7.511  1.2365 -0.3738  0.3431
   98MOL   C13729431   4.508   1.522   7.301  0.7922 -0.1681 -0.3392
   98MOL   C13829432   4.443   1.581   7.173  0.4622  0.1619 -0.1899
   98MOL   C13929433   4.535   1.668   7.083  0.2974  0.3204 -0.9296
   98MOL   C14029434   4.539   1.807   7.103  0.3259  0.5385  0.5919
   98MOL   C14129435   4.627   1.891   7.026 -0.0820 -0.4379 -0.6012
   98MOL   C14229436   4.706   1.822   6.931 -0.2758  0.2226  0.2659
   98MOL   C14329437   4.696   1.682   6.921 -0.3571  0.1140  0.7705
   98MOL   N14429438   4.618   1.603   6.998  0.1734 -0.2283  0.0665
   98MOL   H14529439   4.566   1.606   7.339 -1.9666  1.0073  1.4320
   98MOL   H14629440   4.425   1.499   7.368  0.5222  0.7770 -0.3365
   98MOL   H14729441   4.380   1.654   7.224  0.6211 -0.1885  0.5124
   98MOL   H14829442   4.479   1.849   7.183 -0.2204  0.0254  0.4474
   98MOL   H14929443   4.637   1.997   7.044 -0.7126 -0.2923 -1.1034
   98MOL   H15029444   4.764   1.888   6.869 -0.0380  1.1066  1.4064
   98MOL   H15129445   4.750   1.626   6.845 -1.5590  0.0892 -0.0841
   98MOL   C15229446   4.355   1.477   7.093 -0.1725 -0.6042 -0.3091
   98MOL   C15329447   4.213   1.525   7.041  0.2289  0.1751 -0.3063
   98MOL   C15429448   4.223   1.652   6.956  0.5610  0.0113 -1.3674
   98MOL   C15529449   4.317   1.664   6.853  0.0855  0.1407  0.0653
   98MOL   C15629450   4.337   1.784   6.791  0.4489 -0.1718 -0.3620
   98MOL   C15729451   4.251   1.896   6.823 -0.4341  1.0072  0.2554
   98MOL   C15829452   4.167   1.870   6.931  0.1544 -0.4566  0.5301
   98MOL   N15929453   4.152   1.758   6.998  0.4709 -0.0909 -0.2930
   98MOL   H16029454   4.333   1.400   7.167 -2.8138 -0.0679 -0.5050
   98MOL   H16129455   4.413   1.429   7.014  0.0671 -0.8169 -0.0052
   98MOL   H16229456   4.148   1.551   7.125  1.1284 -0.2474  0.5344
   98MOL   H16329457   4.392   1.590   6.831 -1.4157 -1.1220 -0.9376
   98MOL   H16429458   4.411   1.791   6.713  0.9912  1.4807  0.2763
   98MOL   H16529459   4.255   1.995   6.781 -2.4600  1.0695  0.1424
   98MOL   H16629460   4.116   1.958   6.967  0.9843  1.0265 -1.7796
   98MOL   C16729461   4.148   1.410   6.960 -0.6239 -0.2486 -0.3307
   98MOL   C16829462   4.134   1.272   7.031  0.0693  0.9485  0.1817
   98MOL   C16929463   4.041   1.286   7.149 -0.8817  0.3861  0.3178
   98MOL   C17029464   4.094   1.308   7.280  0.4648  0.1625  0.2138
   98MOL   C17129465   4.010   1.341   7.377  0.8950 -0.0237 -0.3265
   98MOL   C17229466   3.873   1.354   7.348 -0.7824 -0.6121 -0.2898
   98MOL   C17329467   3.829   1.316   7.223  0.2313 -0.2794  0.3768
   98MOL   N17429468   3.914   1.286   7.119 -0.0844  0.0720  0.5045
   98MOL   H17529469   4.196   1.405   6.862  0.7817 -0.2594  0.3381
   98MOL   H17629470   4.050   1.444   6.927 -0.9593  0.4726  1.3334
   98MOL   H17729471   4.234   1.247   7.068 -0.2375  1.3588  1.2931
   98MOL   H17829472   4.200   1.316   7.299  0.4811  0.2625  0.0829
   98MOL   H17929473   4.049   1.358   7.476 -1.7210 -2.9684  1.2968
   98MOL   H18029474   3.806   1.393   7.423 -1.2859  0.1202 -1.1145
   98MOL   H18129475   3.723   1.298   7.212 -0.0774  0.9352  1.3077
   98MOL   C18229476   4.092   1.159   6.936 -0.1221 -0.2120 -0.0405
   98MOL   C18329477   4.160   1.147   6.796  0.1580 -0.4895  0.5185
   98MOL   C18429478   4.314   1.155   6.806  0.0188 -0.4180 -0.0211
   98MOL   C18529479   4.384   1.267   6.767 -0.0428 -0.3820 -0.7077
   98MOL   C18629480   4.522   1.262   6.772  0.1178 -0.0741  0.4325
   98MOL   C18729481   4.582   1.153   6.832  0.7368 -0.5884  0.5201
   98MOL   C18829482   4.506   1.049   6.877  0.0044 -0.3242  0.4050
   98MOL   N18929483   4.370   1.048   6.862  0.5140 -0.0589  0.3689
   98MOL   H19029484   3.987   1.171   6.910  0.2484  1.9248 -0.6080
   98MOL   H19129485   4.110   1.066   6.991 -1.1963  0.2172  1.0667
   98MOL   H19229486   4.143   1.237   6.737 -0.4287 -0.1334  1.2287
   98MOL   H19329487   4.337   1.352   6.722 -0.1852  1.2967  2.4490
   98MOL   H19429488   4.584   1.340   6.728  0.5454 -1.2195 -1.0658
   98MOL   H19529489   4.688   1.139   6.841  1.1806  1.7923 -0.5297
   98MOL   H19629490   4.558   0.964   6.920 -0.6377 -0.7056  0.4298
   98MOL   C19729491   4.130   1.019   6.713  0.5272 -0.6932  0.2137
   98MOL   C19829492   3.995   0.983   6.642 -0.1454 -0.0954  0.1290
   98MOL   C19929493   3.879   0.984   6.748 -0.4404  0.0843  0.5286
   98MOL   C20029494   3.843   0.859   6.810 -0.1740 -0.3152 -0.1574
   98MOL   C20129495   3.728   0.863   6.891  0.0556 -0.5241 -0.1911
   98MOL   C20229496   3.671   0.982   6.921  1.4229 -0.8770 -0.0505
   98MOL   C20329497   3.713   1.102   6.854 -0.2031 -0.3544  0.4705
   98MOL   N20429498   3.816   1.099   6.761  0.4766 -0.3854 -0.1070
   98MOL   H20529499   4.145   0.939   6.786 -0.8521 -1.2088 -0.0634
   98MOL   H20629500   4.209   1.010   6.638 -0.9199  0.8862 -1.5539
   98MOL   H20729501   4.013   0.885   6.599 -0.2689  0.2216 -0.6558
   98MOL   H20829502   3.881   0.764   6.776  0.0260  0.8678 -3.4829
   98MOL   H20929503   3.692   0.775   6.941  0.8583 -0.4099  0.5921
   98MOL   H21029504   3.582   0.983   6.982  2.3060 -0.1345  1.2320
   98MOL   H21129505   3.658   1.193   6.871  2.4868  1.8563 -2.1096
   98MOL   C21229506   3.955   1.080   6.520 -0.6874  0.0099  0.1759
   98MOL   C21329507   4.049   1.078   6.396  0.0183  0.4663 -0.3181
   98MOL   C21429508   4.076   0.929   6.354 -0.2608 -0.3452 -0.5650
   98MOL   C21529509   3.976   0.851   6.294  0.0811  0.0772  0.3940
   98MOL   C21629510   4.002   0.718   6.257 -0.1060 -0.0210  0.8519
   98MOL   C21729511   4.126   0.666   6.293 -0.1873  0.3585 -0.0983
   98MOL   C21829512   4.219   0.749   6.354 -0.9998 -0.6499 -0.4554
   98MOL   N21929513   4.198   0.886   6.389 -0.3109  0.7242  0.0771
   98MOL   H22029514   3.955   1.184   6.555  3.5449  0.2690 -0.2757
   98MOL   H22129515   3.861   1.053   6.474  1.6978  1.6850 -6.1791
   98MOL   H22229516   4.141   1.125   6.431 -0.7915  1.2417  0.8223
   98MOL   H22329517   3.887   0.899   6.256  0.2976  1.1338  1.1899
   98MOL   H22429518   3.920   0.657   6.224  1.1066 -1.3935  0.3302
   98MOL   H22529519   4.142   0.564   6.260  0.6587 -0.1297  1.7454
   98MOL   H22629520   4.320   0.713   6.369 -1.2310 -0.9269  0.5222
   98MOL   C22729521   3.990   1.165   6.291  0.1833 -0.6502 -0.1443
   98MOL   C22829522   3.967   1.317   6.322 -0.1420  1.0210  0.1820
   98MOL   C22929523   4.076   1.399   6.391  0.0974  0.3943  0.0110
   98MOL   C23029524   4.036   1.472   6.508 -0.4286  1.1426 -0.1201
   98MOL   C23129525   4.131   1.562   6.565 -0.2125 -0.5166  0.0074
   98MOL   C23229526   4.266   1.560   6.512 -0.0899  0.0439  0.0896
   98MOL   C23329527   4.291   1.479   6.403 -0.1955  0.0234  0.0057
   98MOL   N23429528   4.196   1.413   6.331  0.1349  0.2635 -0.3058
   98MOL   H23529529   3.888   1.134   6.271 -0.9568  1.5593  1.9750
   98MOL   H23629530   4.055   1.165   6.203  0.4943  1.5422  0.0584
   98MOL   H23729531   3.890   1.313   6.399  0.2759  2.5590  0.6875
   98MOL   H23829532   3.936   1.474   6.549 -0.2009  0.3215  0.4741
   98MOL   H23929533   4.104   1.626   6.647  0.7875 -1.1478  0.8330
   98MOL   H24029534   4.340   1.626   6.556 -0.9313 -0.7822  2.8252
   98MOL   H24129535   4.390   1.467   6.360 -1.0590  0.7379 -2.2402
   98MOL   C24229536   3.894   1.400   6.211  0.5121 -0.0340 -0.2903
   98MOL   C24329537   3.739   1.404   6.223  0.2925  0.0949  0.0305
   98MOL   C24429538   3.684   1.480   6.344  0.1427  1.0038 -0.1149
   98MOL   C24529539   3.613   1.414   6.446  0.5698  0.1584 -0.0196
   98MOL   C24629540   3.562   1.491   6.552  0.1386  0.2942 -0.9581
   98MOL   C24729541   3.587   1.625   6.554 -0.8730 -0.5605 -0.1802
   98MOL   C24829542   3.662   1.678   6.448  0.2373  0.0132  0.0619
   98MOL   N24929543   3.706   1.609   6.347  0.0467  0.1319  0.3840
   98MOL   H25029544   3.916   1.357   6.113 -2.2765 -1.1457 -0.4853
   98MOL   H25129545   3.936   1.500   6.216  0.2037  0.0043  2.2112
   98MOL   H25229546   3.716   1.298   6.234  3.1286 -0.5783 -0.0437
   98MOL   H25329547   3.595   1.308   6.454  0.3767  0.1057 -1.1302
   98MOL   H25429548   3.519   1.437   6.635 -1.0694  2.4845 -0.1298
   98MOL   H25529549   3.540   1.691   6.625  1.0496  0.4904  0.1746
   98MOL   H25629550   3.685   1.783   6.444  0.0225 -0.0213 -2.3780
   98MOL   C25729551   3.669   1.441   6.096  0.5160 -0.3975 -0.1840
   98MOL   C25829552   3.515   1.410   6.090 -0.4309 -0.4178 -0.9122
   98MOL   C25929553   3.438   1.536   6.144  0.5325  0.5937 -0.3394
   98MOL   C26029554   3.457   1.667   6.095 -0.0312 -0.9570 -0.1170
   98MOL   C26129555   3.377   1.776   6.134  0.4736  0.2822  0.9784
   98MOL   C26229556   3.273   1.746   6.226  1.1669 -0.5615 -0.0581
   98MOL   C26329557   3.261   1.613   6.270  0.7019 -0.0275  0.8379
   98MOL   N26429558   3.340   1.512   6.231 -0.1518 -0.6642 -0.1923
   98MOL   H26529559   3.711   1.378   6.017  3.1748  1.6460 -0.4890
   98MOL   H26629560   3.689   1.542   6.063  1.7502  0.1214  2.0871
   98MOL   H26729561   3.494   1.333   6.163  0.5084 -0.3819 -0.5984
   98MOL   H26829562   3.533   1.687   6.021 -0.1156  1.7785  0.5002
   98MOL   H26929563   3.386   1.874   6.089 -0.7984 -0.5914 -1.2523
   98MOL   H27029564   3.192   1.811   6.257 -0.3812 -2.2035 -0.5474
   98MOL   H27129565   3.183   1.586   6.340  0.5199  0.8903  0.9949
   98MOL   C27229566   3.467   1.376   5.945  0.2170 -0.3380  0.5315
   98MOL   C27329567   3.320   1.336   5.926 -0.2747 -0.1032  0.1493
   98MOL   C27429568   3.302   1.311   5.779  0.5260  1.1306  0.6573
   98MOL   C27529569   3.337   1.186   5.728  0.1822 -0.4323 -0.9341
   98MOL   C27629570   3.330   1.168   5.591 -0.4651  0.0436 -0.6277
   98MOL   C27729571   3.272   1.271   5.514  1.0852  0.7132  1.4385
   98MOL   C27829572   3.230   1.394   5.575 -0.5919 -0.7028  0.2051
   98MOL   N27929573   3.246   1.407   5.706  0.4847 -0.1946 -0.4441
   98MOL   H28029574   3.515   1.284   5.914  1.1147 -0.6958  2.8689
   98MOL   H28129575   3.493   1.450   5.870  0.6407 -2.1278 -1.1353
   98MOL   H28229576   3.262   1.422   5.958  1.3014  1.0482 -0.0375
   98MOL   H28329577   3.387   1.111   5.788  0.8017  2.4013  2.2414
   98MOL   H28429578   3.370   1.077   5.547  0.4555  0.0960  0.0722
   98MOL   H28529579   3.267   1.257   5.407  2.0009  1.7411  1.2520
   98MOL   H28629580   3.188   1.470   5.512 -1.6139 -2.0991 -0.8164
   98MOL   C28729581   3.268   1.211   6.008  0.0942 -0.3504 -0.2563
   98MOL   C28829582   3.183   1.242   6.130  0.6405 -0.0718  0.1653
   98MOL   C28929583   3.099   1.125   6.198 -0.1058 -0.6471  0.5217
   98MOL   C29029584   3.171   1.032   6.270 -0.3017  0.1311  0.5457
   98MOL   C29129585   3.098   0.932   6.334  0.0065  0.5136 -0.5954
   98MOL   C29229586   2.961   0.923   6.306  0.6260 -0.0417 -0.6787
   98MOL   C29329587   2.898   1.020   6.230  0.6813  0.2340  0.6621
   98MOL   N29429588   2.967   1.125   6.183 -0.5671 -0.3844  0.5498
   98MOL   H29529589   3.358   1.152   6.027  1.7205  1.4579 -2.1552
   98MOL   H29629590   3.189   1.161   5.952  0.3536  0.6350 -1.5346
   98MOL   H29729591   3.105   1.316   6.115 -0.2333 -1.1770 -0.8533
   98MOL   H29829592   3.279   1.026   6.269 -0.4070 -1.9345 -0.3690
   98MOL   H29929593   3.145   0.856   6.394 -0.2845  0.6679 -0.1707
   98MOL   H30029594   2.895   0.849   6.349 -0.0875  1.8727  1.6335
   98MOL   H30129595   2.792   1.007   6.211  0.5683 -1.6225  2.4595
   98MOL   H30229596   3.260   1.280   6.197 -0.8784  0.0425  1.8875
   99MOL     C129597   2.799   4.216   1.289 -0.0929  0.1830  0.1132
   99MOL     C229598   2.697   4.196   1.176  0.5020  0.2403 -0.0266
   99MOL     C329599   2.646   4.054   1.184  0.4098  0.2244 -0.0876
   99MOL     C429600   2.663   3.980   1.065 -1.0285 -0.2837  0.7242
   99MOL     C529601   2.630   3.843   1.072 -0.2149  0.3242  0.0297
   99MOL     C629602   2.592   3.785   1.197 -0.5399  0.1669 -0.6006
   99MOL     C729603   2.571   3.872   1.301 -0.0721 -1.2629  0.0217
   99MOL     N829604   2.589   4.010   1.300 -0.4065  0.4371 -0.0391
   99MOL     H929605   2.883   4.150   1.270  0.9412  1.0199  1.6688
   99MOL    H1029606   2.822   4.323   1.288 -0.2939  0.2283  0.2160
   99MOL    H1129607   2.751   4.220   1.084  0.8299  0.0699  0.1172
   99MOL    H1229608   2.700   4.041   0.984 -0.2073  1.6881  2.5435
   99MOL    H1329609   2.639   3.795   0.976  1.0675  0.6405 -0.0063
   99MOL    H1429610   2.589   3.678   1.202 -0.5164  0.1917  0.0766
   99MOL    H1529611   2.527   3.841   1.395 -0.4793  0.4338  0.3914
   99MOL    H1629612   2.760   4.194   1.388  3.3003 -2.2008  1.0029
   99MOL    C1729613   2.581   4.299   1.186 -0.0038  0.2658  0.2695
   99MOL    C1829614   2.467   4.274   1.090 -0.0008 -0.7727  0.6285
   99MOL    C1929615   2.337   4.302   1.166  0.8799 -0.1844 -0.6914
   99MOL    C2029616   2.229   4.206   1.188 -0.3501  0.3689  0.0662
   99MOL    C2129617   2.115   4.246   1.255 -0.0754 -0.1257 -0.7949
   99MOL    C2229618   2.106   4.381   1.289 -0.6106  0.2446 -0.2422
   99MOL    C2329619   2.213   4.471   1.268  0.9009 -0.3088 -0.6393
   99MOL    N2429620   2.327   4.431   1.208 -0.4702 -0.1556  0.0457
   99MOL    H2529621   2.620   4.400   1.176  1.8267 -0.3439  0.9957
   99MOL    H2629622   2.542   4.289   1.287  1.1374 -2.5428  0.4992
   99MOL    H2729623   2.466   4.169   1.063 -1.3004 -0.4477 -0.6870
   99MOL    H2829624   2.218   4.111   1.138 -0.6834  1.1079 -1.2856
   99MOL    H2929625   2.032   4.177   1.263  0.0599 -0.3447 -1.2505
   99MOL    H3029626   2.025   4.423   1.346  1.0125  1.6374  1.1357
   99MOL    H3129627   2.193   4.576   1.288 -0.2280 -0.2038 -2.2372
   99MOL    C3229628   2.480   4.348   0.956 -0.4013 -0.1467 -0.3579
   99MOL    C3329629   2.391   4.298   0.836  0.6087 -0.6827  0.5609
   99MOL    C3429630   2.352   4.411   0.745 -0.3502 -0.4275  0.1229
   99MOL    C3529631   2.224   4.449   0.712 -0.0126 -0.2698  0.5455
   99MOL    C3629632   2.195   4.564   0.638  0.8111  0.7385 -0.5190
   99MOL    C3729633   2.312   4.634   0.593  0.2558  0.0821 -0.6960
   99MOL    C3829634   2.440   4.589   0.627  0.4875 -0.0918  0.2098
   99MOL    N3929635   2.457   4.477   0.702 -0.2534  0.4192  0.0680
   99MOL    H4029636   2.586   4.350   0.932 -0.4191 -0.2591 -0.4501
   99MOL    H4129637   2.458   4.453   0.974 -0.6553 -0.5677  1.8486
   99MOL    H4229638   2.290   4.283   0.872  0.3094  0.2234  0.1191
   99MOL    H4329639   2.144   4.391   0.756 -0.2940  2.0639  3.3354
   99MOL    H4429640   2.091   4.584   0.616  0.9473 -0.5997 -2.5407
   99MOL    H4529641   2.303   4.725   0.535  1.0398 -0.8974 -2.3891
   99MOL    H4629642   2.530   4.637   0.591  1.8107  0.3207  3.8546
   99MOL    C4729643   2.443   4.167   0.778  0.0903  0.1912  0.1762
   99MOL    C4829644   2.575   4.178   0.693 -0.1049  0.5311 -0.9645
   99MOL    C4929645   2.663   4.053   0.709  0.3198  0.2170 -0.6363
   99MOL    C5029646   2.802   4.069   0.736 -0.0963  0.8630  0.1258
   99MOL    C5129647   2.874   3.955   0.744  0.1810 -0.5290 -0.0719
   99MOL    C5229648   2.817   3.830   0.731 -0.1899 -0.2903 -0.8144
   99MOL    C5329649   2.681   3.823   0.703 -0.2859 -0.0188 -0.3972
   99MOL    N5429650   2.601   3.931   0.693  0.4485  0.0845  0.1013
   99MOL    H5529651   2.368   4.123   0.712  0.5975  1.4761 -1.2779
   99MOL    H5629652   2.471   4.093   0.854 -0.3114  0.9634  1.0971
   99MOL    H5729653   2.638   4.249   0.747  0.6992 -0.3661 -0.7126
   99MOL    H5829654   2.860   4.156   0.763  1.0492  0.6286 -1.4990
   99MOL    H5929655   2.980   3.959   0.763  0.0733 -0.2026  0.4573
   99MOL    H6029656   2.873   3.738   0.742  0.0512  0.0034  0.6264
   99MOL    H6129657   2.633   3.726   0.702  0.9919 -0.6626 -3.1860
   99MOL    C6229658   2.536   4.209   0.541 -0.1907 -0.1760  0.3280
   99MOL    C6329659   2.651   4.264   0.449 -0.0380 -0.4952  0.5270
   99MOL    C6429660   2.743   4.157   0.389  0.2433  0.1680  0.2961
   99MOL    C6529661   2.881   4.159   0.400 -0.0543  0.6454  0.1106
   99MOL    C6629662   2.953   4.042   0.363  0.3998 -0.3599  0.6187
   99MOL    C6729663   2.879   3.940   0.303  0.3873 -0.4267 -0.1896
   99MOL    C6829664   2.741   3.952   0.287 -0.1133 -0.2566  0.0559
   99MOL    N6929665   2.668   4.058   0.338  0.0783 -0.4141  0.3160
   99MOL    H7029666   2.456   4.282   0.532 -1.7312 -1.6380  1.6289
   99MOL    H7129667   2.491   4.119   0.498 -0.8942 -0.0761  0.8478
   99MOL    H7229668   2.713   4.331   0.509 -0.2858 -0.8658  1.1983
   99MOL    H7329669   2.937   4.242   0.438  2.7293 -1.6249  1.1641
   99MOL    H7429670   3.061   4.038   0.373  0.5125  2.1262  0.7098
   99MOL    H7529671   2.940   3.868   0.251 -0.0034  0.7235 -2.2726
   99MOL    H7629672   2.686   3.881   0.226 -1.3012  2.0717 -1.6429
   99MOL    C7729673   2.606   4.352   0.327  0.1638  0.4625  0.6457
   99MOL    C7829674   2.724   4.436   0.268  0.1365  0.2201  0.2647
   99MOL    C7929675   2.671   4.507   0.146 -0.8649  0.2573  0.6083
   99MOL    C8029676   2.717   4.468   0.018  0.3719 -0.0470  1.0923
   99MOL    C8129677   2.653   4.528   8.059  0.0559  0.4971  0.1376
   99MOL    C8229678   2.543   4.610   8.070  0.7758  0.2144 -0.4692
   99MOL    C8329679   2.504   4.643   0.046 -0.4172  0.0573  1.1257
   99MOL    N8429680   2.566   4.599   0.156  0.1952 -0.2422 -0.2781
   99MOL    H8529681   2.531   4.423   0.361 -0.4372 -0.0075  0.3451
   99MOL    H8629682   2.546   4.303   0.249  3.5482 -2.7152 -0.1314
   99MOL    H8729683   2.802   4.370   0.231  0.7868  0.9384  0.3357
   99MOL    H8829684   2.803   4.402   0.009 -0.9167 -2.0021  2.7091
   99MOL    H8929685   2.703   4.520   7.963  2.1497 -1.7917  1.3735
   99MOL    H9029686   2.496   4.653   7.983  1.0428  1.5849  0.0427
   99MOL    H9129687   2.423   4.711   0.061  1.3350  1.6924  3.5344
   99MOL    C9229688   2.789   4.540   0.360  0.4568  0.0215 -0.1767
   99MOL    C9329689   2.877   4.654   0.303  0.5548 -0.1229  0.3851
   99MOL    C9429690   2.932   4.748   0.414 -1.1016 -0.7019  0.1848
   99MOL    C9529691   2.886   4.885   0.430 -0.1513  0.4479  0.3936
   99MOL    C9629692   2.928   4.962   0.541 -0.5851 -0.5680  0.0171
   99MOL    C9729693   3.021   4.900   0.625  0.3472 -0.1576 -0.2959
   99MOL    C9829694   3.056   4.764   0.603  0.4122 -0.0649 -0.2057
   99MOL    N9929695   3.012   4.690   0.502  0.1525  0.3146 -0.5570
   99MOL   H10029696   2.845   4.475   0.428 -0.6015 -2.4118 -1.5386
   99MOL   H10129697   2.701   4.589   0.402  0.2912  1.4211 -2.1184
   99MOL   H10229698   2.817   4.722   0.242  1.9185  0.1432 -0.6878
   99MOL   H10329699   2.817   4.926   0.358  0.5147  0.3691 -0.2836
   99MOL   H10429700   2.901   5.067   0.543 -0.4123 -0.5210 -0.1251
   99MOL   H10529701   3.071   4.957   0.702 -1.0552  1.0162 -0.2357
   99MOL   H10629702   3.124   4.719   0.674  0.4648 -0.3225 -0.4212
   99MOL   C10729703   2.990   4.608   0.206  0.2513  0.0586 -0.2495
   99MOL   C10829704   3.042   4.713   0.107 -0.5134 -0.3338 -0.4569
   99MOL   C10929705   3.185   4.676   0.075 -0.7233 -0.5675 -0.1899
   99MOL   C11029706   3.207   4.555   0.020  0.0704  0.1296  0.5037
   99MOL   C11129707   3.330   4.512   8.128  0.8015  0.0034  0.0518
   99MOL   C11229708   3.434   4.598   8.150 -0.1625  0.9516  0.2544
   99MOL   C11329709   3.405   4.721   0.065  0.1134  0.0589  0.4899
   99MOL   N11429710   3.282   4.760   0.100 -0.0557 -1.2220 -0.1941
   99MOL   H11529711   2.959   4.521   0.148 -2.1381  0.2312  0.7037
   99MOL   H11629712   3.067   4.564   0.269 -0.2378 -0.3495  0.0686
   99MOL   H11729713   3.067   4.798   0.170  0.3127 -0.0453 -1.1655
   99MOL   H11829714   3.124   4.489   0.000 -0.2407  0.2625  1.3512
   99MOL   H11929715   3.325   4.423   8.066 -0.2510  0.1663 -0.1075
   99MOL   H12029716   3.530   4.579   8.106 -0.8421  1.1291 -1.3498
   99MOL   H12129717   3.480   4.794   0.092  0.7262  0.1528 -1.3757
   99MOL   C12229718   2.955   4.748   8.134 -0.4207  0.3171  0.5204
   99MOL   C12329719   2.927   4.904   8.115  0.1313  1.1129 -1.1009
   99MOL   C12429720   3.062   4.981   8.122  0.0230 -1.1353 -0.1038
   99MOL   C12529721   3.152   4.986   8.015 -0.8278 -0.8748  0.7600
   99MOL   C12629722   3.272   5.055   8.036  0.1874  0.6669  0.7323
   99MOL   C12729723   3.300   5.118   0.008  0.2163  0.3198 -0.4119
   99MOL   C12829724   3.207   5.101   0.111 -0.5137 -0.3776 -0.4237
   99MOL   N12929725   3.088   5.038   0.093  0.3399  0.6151 -0.1690
   99MOL   H13029726   2.853   4.715   0.001 -1.3672  3.6582  1.6150
   99MOL   H13129727   2.987   4.687   8.049 -0.3396 -0.4595  1.1077
   99MOL   H13229728   2.862   4.945   0.040  2.3152  1.8582  0.3825
   99MOL   H13329729   3.126   4.931   7.926  1.3143  1.1675 -1.2102
   99MOL   H13429730   3.343   5.066   7.955 -0.6151 -2.1280 -0.4328
   99MOL   H13529731   3.397   5.160   0.031  0.4606  0.5994 -1.8996
   99MOL   H13629732   3.238   5.141   0.207  0.1830  0.3446 -0.9317
   99MOL   C13729733   2.857   4.928   7.981 -0.2925  0.9808  0.1626
   99MOL   C13829734   2.713   4.976   7.994 -0.8633  0.4380  0.3463
   99MOL   C13929735   2.704   5.113   8.063  0.2949  0.2060  0.9367
   99MOL   C14029736   2.625   5.131   0.029  0.5800  0.4385  0.4248
   99MOL   C14129737   2.603   5.260   0.074 -0.2165  0.3848  0.7418
   99MOL   C14229738   2.668   5.364   0.009 -0.0371 -0.1039  0.6020
   99MOL   C14329739   2.755   5.337   8.058  0.0965 -0.1752  0.7713
   99MOL   N14429740   2.763   5.217   8.005  0.0281  0.1305 -0.3145
   99MOL   H14529741   2.856   4.832   7.928 -3.0847  0.6981  0.6741
   99MOL   H14629742   2.904   5.002   7.916 -0.6791  1.6801  0.6812
   99MOL   H14729743   2.658   4.905   8.056 -1.3552 -0.3935 -1.0318
   99MOL   H14829744   2.583   5.046   0.082 -1.0914  2.1089  1.8543
   99MOL   H14929745   2.544   5.283   0.161 -0.5458 -0.5114  0.7602
   99MOL   H15029746   2.653   5.463   0.049  1.3124  0.7530 -0.9818
   99MOL   H15129747   2.813   5.415   8.010  0.9769 -0.3743  1.4955
   99MOL   C15229748   2.632   4.973   7.861  0.9707 -0.1244 -0.1464
   99MOL   C15329749   2.485   4.997   7.844 -0.1163  0.7212 -0.1345
   99MOL   C15429750   2.457   4.998   7.694  0.4648 -0.0304  0.3909
   99MOL   C15529751   2.432   5.113   7.623 -0.2935 -0.2859  0.4142
   99MOL   C15629752   2.409   5.100   7.485 -0.0255  0.1208  1.0957
   99MOL   C15729753   2.396   4.973   7.424  0.2894 -0.0540 -0.3633
   99MOL   C15829754   2.419   4.859   7.505 -0.2084  0.2828 -0.0146
   99MOL   N15929755   2.440   4.873   7.639 -0.3608 -0.5021  0.8550
   99MOL   H16029756   2.652   4.875   7.817 -0.7569 -0.5713  0.0508
   99MOL   H16129757   2.692   5.045   7.805  2.2035 -0.5825  0.5789
   99MOL   H16229758   2.477   5.101   7.873  0.8496  0.1209  2.3668
   99MOL   H16329759   2.437   5.212   7.665  2.3195  0.9112 -2.4811
   99MOL   H16429760   2.386   5.192   7.433  0.1611 -0.7051 -0.4827
   99MOL   H16529761   2.367   4.954   7.321  1.6153 -2.4636 -0.3294
   99MOL   H16629762   2.393   4.760   7.470  1.0300 -1.3931  3.5542
   99MOL   C16729763   2.391   4.920   7.932  0.6998  0.3506 -0.2745
   99MOL   C16829764   2.256   4.979   7.974 -0.8508  0.5911  0.0623
   99MOL   C16929765   2.169   4.862   8.021  0.0087 -0.1451 -1.3076
   99MOL   C17029766   2.055   4.817   7.948 -0.0235 -0.0555  0.1673
   99MOL   C17129767   1.967   4.721   8.002  0.2282  0.3906  0.3997
   99MOL   C17229768   2.000   4.674   8.130  1.1100  0.0486  0.3066
   99MOL   C17329769   2.122   4.716   0.039 -0.5433  0.7811 -0.2708
   99MOL   N17429770   2.204   4.805   8.139  0.2297 -0.6470 -0.4170
   99MOL   H17529771   2.430   4.866   8.018 -1.0232  0.8932  0.8746
   99MOL   H17629772   2.368   4.832   7.872 -0.4416  0.7488 -0.4311
   99MOL   H17729773   2.219   5.035   7.888  2.1983  1.4684 -0.7555
   99MOL   H17829774   2.033   4.857   7.850  3.4119  0.6297 -0.3897
   99MOL   H17929775   1.886   4.696   7.934  1.3913  0.7933 -1.1809
   99MOL   H18029776   1.938   4.597   0.021 -2.4601  2.6028 -0.1188
   99MOL   H18129777   2.152   4.676   0.135 -0.6999 -0.1523 -0.6044
   99MOL   C18229778   2.266   5.094   8.082  0.2258  0.2667 -0.6741
   99MOL   C18329779   2.138   5.156   8.135 -0.1184  0.2696  0.3059
   99MOL   C18429780   2.078   5.073   0.099  0.3815  0.1867 -0.0832
   99MOL   C18529781   1.953   5.005   0.086  0.3067  0.1250 -0.5289
   99MOL   C18629782   1.907   4.932   0.202  0.4641 -0.4014  0.6434
   99MOL   C18729783   1.993   4.923   0.312 -0.1650 -0.1878 -0.6039
   99MOL   C18829784   2.107   5.002   0.317 -0.4071  0.2604 -0.1703
   99MOL   N18929785   2.141   5.076   0.213 -0.4461 -0.5693 -0.0574
   99MOL   H19029786   2.316   5.171   8.023 -1.2585 -0.2052 -2.5665
   99MOL   H19129787   2.338   5.067   0.007 -1.1847 -2.0146 -0.1257
   99MOL   H19229788   2.061   5.139   8.060 -1.0021 -2.2364  1.6964
   99MOL   H19329789   1.897   5.003   8.145 -0.6724 -1.1648  0.0596
   99MOL   H19429790   1.821   4.866   0.206 -1.4935  1.9274 -1.5104
   99MOL   H19529791   1.966   4.857   0.393  1.0111  0.6980  0.5511
   99MOL   H19629792   2.165   4.995   0.408  0.0617  0.0328 -0.4873
   99MOL   C19729793   2.150   5.304   0.018 -0.3732 -0.5876  0.2094
   99MOL   C19829794   2.046   5.370   0.104 -0.7296 -0.0087  0.0770
   99MOL   C19929795   2.083   5.511   0.138 -0.0740  0.9438 -0.0395
   99MOL   C20029796   2.113   5.548   0.271  0.4651 -0.2826 -0.1179
   99MOL   C20129797   2.122   5.682   0.304  0.8776  0.7176 -0.2717
   99MOL   C20229798   2.121   5.780   0.199 -0.2975 -0.2287 -0.4017
   99MOL   C20329799   2.091   5.735   0.071  0.3439 -0.0870 -1.3127
   99MOL   N20429800   2.073   5.602   0.042 -0.2232 -0.1050  0.6714
   99MOL   H20529801   2.168   5.359   8.077 -1.2676  1.7295  1.3905
   99MOL   H20629802   2.245   5.312   0.071 -1.3104  1.9511  1.5622
   99MOL   H20729803   2.054   5.317   0.199  0.7479  1.0709  0.5731
   99MOL   H20829804   2.123   5.470   0.345  0.1640 -1.4507 -1.2906
   99MOL   H20929805   2.153   5.711   0.403  1.4344 -2.1681  0.4570
   99MOL   H21029806   2.139   5.885   0.214 -1.1089 -0.3361  1.4323
   99MOL   H21129807   2.089   5.797   8.135 -0.5795  1.1075 -0.4533
   99MOL   C21229808   1.902   5.355   0.049  0.0658 -0.2590 -0.3351
   99MOL   C21329809   1.799   5.421   0.145  0.0687 -0.0484  0.3333
   99MOL   C21429810   1.661   5.442   0.080  0.6857 -0.0501 -0.4554
   99MOL   C21529811   1.621   5.566   0.023  0.2696 -0.3844 -0.6090
   99MOL   C21629812   1.488   5.573   8.135  0.3068 -0.1170 -0.3383
   99MOL   C21729813   1.397   5.465   8.150 -0.1869 -0.2257  0.0646
   99MOL   C21829814   1.451   5.346   0.053 -0.3357 -0.3007  0.1648
   99MOL   N21929815   1.579   5.334   0.091  0.3039  0.0958 -0.0486
   99MOL   H22029816   1.887   5.248   0.038  1.5351 -0.7301  1.8285
   99MOL   H22129817   1.887   5.400   8.103 -1.7185 -1.3971 -0.6020
   99MOL   H22229818   1.832   5.525   0.154  0.8555 -0.4005  1.8216
   99MOL   H22329819   1.691   5.643   8.145  1.4499 -0.7056  1.3023
   99MOL   H22429820   1.443   5.669   8.113 -1.0263 -0.2783  1.5295
   99MOL   H22529821   1.293   5.462   8.120 -0.1582 -0.2534 -0.0291
   99MOL   H22629822   1.386   5.261   0.070  0.0454 -0.6253  0.0037
   99MOL   C22729823   1.780   5.353   0.284  0.2614  0.5157 -0.1165
   99MOL   C22829824   1.683   5.422   0.381  0.5287 -0.0249 -0.3436
   99MOL   C22929825   1.637   5.332   0.498 -0.1951 -0.0649  1.0016
   99MOL   C23029826   1.505   5.336   0.547 -0.2244  0.4742  0.3132
   99MOL   C23129827   1.474   5.264   0.661 -0.2512  0.1450  0.1101
   99MOL   C23229828   1.571   5.180   0.713  0.3425  0.4388  0.2319
   99MOL   C23329829   1.702   5.181   0.654  0.0512  0.3154 -0.0544
   99MOL   N23429830   1.736   5.265   0.553  0.7943  0.6074  0.3088
   99MOL   H23529831   1.880   5.343   0.326 -1.2627 -1.6295  3.2243
   99MOL   H23629832   1.746   5.249   0.282 -1.8203  1.1755 -0.0360
   99MOL   H23729833   1.587   5.441   0.332 -0.3842  0.6536  1.6481
   99MOL   H23829834   1.431   5.399   0.500  2.0930  1.5585 -1.9578
   99MOL   H23929835   1.382   5.288   0.711 -0.3178 -0.9266  0.5264
   99MOL   H24029836   1.557   5.122   0.803  0.6967  1.8484  1.2104
   99MOL   H24129837   1.775   5.122   0.708 -1.3844 -2.4365 -1.0136
   99MOL   C24229838   1.752   5.553   0.433  0.4388  0.9401  1.1082
   99MOL   C24329839   1.664   5.671   0.394 -0.2855 -0.1136  0.4948
   99MOL   C24429840   1.529   5.666   0.464  0.4354 -0.1942  0.6988
   99MOL   C24529841   1.412   5.677   0.386  0.0490 -0.5325 -0.2486
   99MOL   C24629842   1.285   5.683   0.447 -0.2640 -0.1908 -0.2619
   99MOL   C24729843   1.282   5.671   0.590 -0.0193  0.0917  0.0093
   99MOL   C24829844   1.402   5.664   0.659 -0.0884 -0.0167  0.2216
   99MOL   N24929845   1.520   5.655   0.598  0.3209  0.4158 -0.4504
   99MOL   H25029846   1.855   5.563   0.398  0.3778  1.7285  1.1462
   99MOL   H25129847   1.765   5.535   0.539  1.5550  0.7860  0.9485
   99MOL   H25229848   1.642   5.645   0.291  0.7203  0.3936  0.1406
   99MOL   H25329849   1.413   5.702   0.281  2.4141  0.0175 -0.1285
   99MOL   H25429850   1.190   5.704   0.401 -1.8341 -0.1760  2.8675
   99MOL   H25529851   1.184   5.673   0.635  0.1408  3.7882  0.3665
   99MOL   H25629852   1.403   5.667   0.767  0.4829  1.0819  0.1907
   99MOL   C25729853   1.735   5.811   0.392  0.2634  0.9885 -0.3554
   99MOL   C25829854   1.744   5.894   0.520  0.1623  0.1410 -0.1982
   99MOL   C25929855   1.842   5.832   0.623  0.0366  0.0745  0.1856
   99MOL   C26029856   1.815   5.807   0.763 -0.0051  0.7107  0.3697
   99MOL   C26129857   1.914   5.753   0.848 -0.1813  0.2017 -0.0345
   99MOL   C26229858   2.041   5.740   0.797  0.0039  0.5554 -0.1176
   99MOL   C26329859   2.070   5.764   0.659  0.5407  0.8221 -0.0458
   99MOL   N26429860   1.971   5.816   0.577  0.2695 -0.1095  0.3062
   99MOL   H26529861   1.672   5.865   0.322 -1.9026 -3.3167 -1.9223
   99MOL   H26629862   1.830   5.802   0.340  0.3165 -1.2243  0.0733
   99MOL   H26729863   1.647   5.887   0.570  0.8228 -2.3319  0.7983
   99MOL   H26829864   1.712   5.820   0.796  0.0677  1.7022  0.2337
   99MOL   H26929865   1.897   5.732   0.952  0.8012 -0.2011  0.0548
   99MOL   H27029866   2.112   5.698   0.867  0.0988 -1.0661 -1.1597
   99MOL   H27129867   2.168   5.746   0.618  0.8254 -0.3644  1.1330
   99MOL   C27229868   1.781   6.041   0.502  0.4146 -0.6066 -0.3759
   99MOL   C27329869   1.690   6.120   0.408  0.7738 -0.0961  0.7652
   99MOL   C27429870   1.544   6.084   0.408 -0.1690  0.8964 -0.2684
   99MOL   C27529871   1.483   6.030   0.292  0.8028 -0.1615  0.1282
   99MOL   C27629872   1.347   5.989   0.304 -0.9257 -0.1352  0.0583
   99MOL   C27729873   1.277   6.007   0.423  0.6352  0.2464 -0.4498
   99MOL   C27829874   1.352   6.072   0.521 -0.5883 -0.6892  0.0819
   99MOL   N27929875   1.484   6.108   0.518  0.0540 -0.0347 -0.1968
   99MOL   H28029876   1.884   6.051   0.468  0.6354  2.4144  1.0647
   99MOL   H28129877   1.771   6.093   0.597  0.2399 -2.1578  0.4805
   99MOL   H28229878   1.711   6.092   0.305 -5.5424  2.2145 -1.3907
   99MOL   H28329879   1.548   6.015   0.207  1.3890 -0.0440  0.5557
   99MOL   H28429880   1.291   5.963   0.215 -1.3785  0.6427  0.1081
   99MOL   H28529881   1.170   6.002   0.440  0.7482  0.2080  0.2773
   99MOL   H28629882   1.312   6.083   0.621  0.1532  0.6532  0.2368
   99MOL   C28729883   1.729   6.271   0.383 -0.0452  0.4422  0.6614
   99MOL   C28829884   1.628   6.344   0.286  0.1894  0.7759 -0.9437
   99MOL   C28929885   1.660   6.493   0.271  0.2433 -0.6723 -0.0300
   99MOL   C29029886   1.563   6.592   0.298 -0.6543 -0.1186  0.6131
   99MOL   C29129887   1.606   6.720   0.276 -0.7941 -0.8488  0.0792
   99MOL   C29229888   1.736   6.754   0.229 -0.3392 -0.1506  0.1282
   99MOL   C29329889   1.819   6.645   0.197  0.1189  0.4514  0.3358
   99MOL   N29429890   1.782   6.514   0.219  0.2650 -0.3898  0.7801
   99MOL   H29529891   1.830   6.271   0.341 -1.0355 -0.3087 -1.8266
   99MOL   H29629892   1.745   6.325   0.476  0.6137 -1.3281  1.6103
   99MOL   H29729893   1.524   6.325   0.313  0.8947 -1.4635  0.3567
   99MOL   H29829894   1.461   6.566   0.323 -0.9779 -2.0093 -2.3475
   99MOL   H29929895   1.550   6.807   0.306  2.2984  1.8628 -1.6539
   99MOL   H30029896   1.766   6.855   0.205  0.7409 -0.1038  1.6081
   99MOL   H30129897   1.921   6.660   0.164  0.3293  0.4096  0.9518
   99MOL   H30229898   1.637   6.318   0.181  0.3506  0.8561 -0.9500
  100MOL     C129899   6.364   0.109   5.677 -0.6975  0.4952  0.0209
  100MOL     C229900   6.430   0.138   5.818  0.2947  0.4415 -0.8544
  100MOL     C329901   6.491   0.014   5.883 -0.2348 -0.1741  0.4645
  100MOL     C429902   6.467   8.124   6.011 -0.6027  0.4576 -0.0503
  100MOL     C529903   6.542   8.017   6.067 -1.0322 -0.6929 -0.3673
  100MOL     C629904   6.631   7.948   5.983  0.7682 -0.8747 -0.1964
  100MOL     C729905   6.650   7.996   5.848  0.3758 -0.8009  0.4292
  100MOL     N829906   6.582   8.102   5.800 -0.2356  0.2799  0.3064
  100MOL     H929907   6.299   0.189   5.641  1.5276  1.6863 -1.5156
  100MOL    H1029908   6.436   0.085   5.598 -0.6150 -1.8567  0.7761
  100MOL    H1129909   6.344   0.163   5.881  1.2163  2.7244 -0.4440
  100MOL    H1229910   6.403   0.031   6.075 -0.8418 -0.1611  0.2932
  100MOL    H1329911   6.523   7.967   6.160 -0.1608 -0.2804  0.0437
  100MOL    H1429912   6.684   7.857   6.007 -1.3123 -2.2209 -0.4851
  100MOL    H1529913   6.723   7.945   5.787  0.8625 -1.5610  1.6148
  100MOL    H1629914   6.299   0.022   5.680  2.9177 -2.5011 -3.0381
  100MOL    C1729915   6.538   0.244   5.810  0.4042  0.4569  0.5506
  100MOL    C1829916   6.507   0.388   5.868 -0.3458 -0.3611 -0.6999
  100MOL    C1929917   6.416   0.387   5.996 -0.3453  0.9183  0.9998
  100MOL    C2029918   6.315   0.483   6.016 -0.1256 -0.1438 -0.2761
  100MOL    C2129919   6.247   0.498   6.136  0.1907  0.6194  0.4055
  100MOL    C2229920   6.297   0.419   6.247 -0.5395  1.1749  0.3932
  100MOL    C2329921   6.396   0.316   6.216 -0.3243 -0.2857 -0.1303
  100MOL    N2429922   6.453   0.299   6.093  0.0739  0.1924 -0.6496
  100MOL    H2529923   6.584   0.241   5.710  0.9246 -0.1441  0.7993
  100MOL    H2629924   6.621   0.210   5.872 -0.6231 -1.8560  0.7095
  100MOL    H2729925   6.442   0.448   5.804 -0.1428  0.8087  0.1805
  100MOL    H2829926   6.293   0.553   5.937  1.6339 -0.9277 -1.4988
  100MOL    H2929927   6.182   0.582   6.154  2.3088  2.6548 -1.0731
  100MOL    H3029928   6.254   0.433   6.344  3.2107 -1.5079  2.5800
  100MOL    H3129929   6.439   0.250   6.290  2.1603  0.1430 -1.1351
  100MOL    C3229930   6.625   0.478   5.891 -0.6825 -0.1293  0.1929
  100MOL    C3329931   6.712   0.511   5.767  0.4535 -0.5150  1.4851
  100MOL    C3429932   6.644   0.616   5.684  0.0849 -0.3435  0.5207
  100MOL    C3529933   6.598   0.583   5.552 -0.2433  0.0105  0.3614
  100MOL    C3629934   6.545   0.689   5.472 -0.4532  0.7483 -0.1446
  100MOL    C3729935   6.532   0.817   5.529  0.5556  0.6118  0.8928
  100MOL    C3829936   6.578   0.842   5.658 -0.0021 -0.2788 -0.3242
  100MOL    N3929937   6.633   0.743   5.733  0.0233  0.0553  0.2502
  100MOL    H4029938   6.693   0.436   5.965  1.0181  0.6644 -0.8760
  100MOL    H4129939   6.594   0.576   5.927 -0.7122 -0.3575  0.7787
  100MOL    H4229940   6.716   0.433   5.691  0.1073  1.0758 -0.2066
  100MOL    H4329941   6.602   0.483   5.512  0.2451  0.9028 -1.9098
  100MOL    H4429942   6.500   0.675   5.375  0.2234  1.8623 -0.6280
  100MOL    H4529943   6.487   0.898   5.473 -1.7216 -0.5412  0.9919
  100MOL    H4629944   6.572   0.941   5.700  0.0032  0.0878 -1.1795
  100MOL    C4729945   6.852   0.552   5.809 -0.1973  0.3727  0.0162
  100MOL    C4829946   6.947   0.439   5.848  0.9861  0.3571 -0.2093
  100MOL    C4929947   6.962   0.331   5.743 -0.0996  0.3766  0.2365
  100MOL    C5029948   6.929   0.196   5.768 -0.0154  0.6369 -0.0183
  100MOL    C5129949   6.955   0.099   5.670  0.2003 -0.0183 -0.7075
  100MOL    C5229950   7.013   0.140   5.548  0.5278 -0.3972 -0.1307
  100MOL    C5329951   7.031   0.275   5.531 -0.2402 -0.0211  0.0171
  100MOL    N5429952   7.022   0.370   5.628 -0.0999 -0.4239 -0.0117
  100MOL    H5529953   6.850   0.628   5.887  2.0391  2.0182 -1.4506
  100MOL    H5629954   6.888   0.585   5.712  0.0400  0.2577  0.0630
  100MOL    H5729955   6.903   0.392   5.936  0.8281  0.6056 -0.1546
  100MOL    H5829956   6.877   0.176   5.860 -0.0979  1.4275  0.1173
  100MOL    H5929957   6.929   8.146   5.683 -0.2423  0.3386  1.4901
  100MOL    H6029958   7.020   0.068   5.468 -0.7885  1.7431 -2.2497
  100MOL    H6129959   7.053   0.317   5.434  0.3210  1.7916  0.8979
  100MOL    C6229960   7.088   0.488   5.889  0.4197  0.1466  0.1931
  100MOL    C6329961   7.177   0.411   5.999 -0.0101 -0.4691 -0.5736
  100MOL    C6429962   7.327   0.425   5.983  0.4838 -0.1177  0.0440
  100MOL    C6529963   7.383   0.553   6.001 -0.3872 -0.1604 -0.1040
  100MOL    C6629964   7.520   0.572   5.979 -0.2884 -0.0333 -0.1739
  100MOL    C6729965   7.592   0.462   5.931  0.5870 -0.2485 -0.1944
  100MOL    C6829966   7.530   0.335   5.936  0.2410 -0.1888  0.2123
  100MOL    N6929967   7.397   0.319   5.953 -0.3350 -0.3525  0.7586
  100MOL    H7029968   7.073   0.582   5.942  0.1000 -1.3202  2.7954
  100MOL    H7129969   7.153   0.512   5.804  0.6654 -2.8232 -0.5287
  100MOL    H7229970   7.161   0.304   5.985  1.2092 -1.1669  2.9273
  100MOL    H7329971   7.328   0.640   6.032 -0.5891  0.7675 -2.9586
  100MOL    H7429972   7.573   0.665   5.995 -1.0373  0.0270  2.2294
  100MOL    H7529973   7.697   0.459   5.905  0.6073 -0.0611 -0.1359
  100MOL    H7629974   7.593   0.248   5.924 -0.6135 -1.0270  1.6979
  100MOL    C7729975   7.142   0.443   6.145  0.2025  0.4011 -0.5672
  100MOL    C7829976   7.002   0.400   6.203 -0.6121 -0.1724 -0.1801
  100MOL    C7929977   6.966   0.252   6.181 -0.5106  0.1453 -0.2349
  100MOL    C8029978   7.071   0.157   6.201 -0.4255  0.1447 -0.2846
  100MOL    C8129979   7.051   0.020   6.179 -0.1148 -0.0402 -0.5109
  100MOL    C8229980   6.934   8.129   6.119  0.2585  0.5864 -0.0242
  100MOL    C8329981   6.834   0.076   6.100  0.5820 -0.2025  0.4366
  100MOL    N8429982   6.845   0.209   6.128 -0.2118 -0.0940  0.0494
  100MOL    H8529983   7.156   0.550   6.157  1.0922  0.1638  0.5937
  100MOL    H8629984   7.216   0.407   6.216 -2.2099 -2.4170  0.6648
  100MOL    H8729985   6.923   0.459   6.157  0.9554  0.6855 -1.8300
  100MOL    H8829986   7.164   0.189   6.245 -1.3673  0.8295  1.2482
  100MOL    H8929987   7.137   8.111   6.203 -1.6967 -2.1325 -0.0378
  100MOL    H9029988   6.910   8.026   6.099 -1.2238  0.7934  0.6142
  100MOL    H9129989   6.734   0.046   6.072  0.5461  2.2460 -2.2189
  100MOL    C9229990   6.973   0.445   6.347  0.1455  0.0391 -0.2891
  100MOL    C9329991   6.939   0.587   6.380  0.2282 -0.7873 -0.7380
  100MOL    C9429992   6.824   0.648   6.300 -0.7543  0.5687 -0.1040
  100MOL    C9529993   6.691   0.591   6.307 -0.6559 -0.4522  0.2503
  100MOL    C9629994   6.595   0.646   6.228  0.0697  0.9604 -0.5462
  100MOL    C9729995   6.632   0.737   6.134  0.0830  0.2774 -0.8969
  100MOL    C9829996   6.763   0.786   6.130 -0.0399  0.7250  0.4381
  100MOL    N9929997   6.857   0.741   6.206  0.4373 -0.9004  0.2273
  100MOL   H10029998   7.059   0.413   6.405  1.5742  2.0113 -1.2644
  100MOL   H10129999   6.888   0.394   6.394 -0.3117 -1.9454 -3.1877
  100MOL   H10230000   7.030   0.645   6.362  0.2968 -1.0601 -1.2544
  100MOL   H10330001   6.678   0.510   6.376 -2.6324 -0.5835 -0.2546
  100MOL   H10430002   6.492   0.613   6.228 -0.1716  1.6063  1.9056
  100MOL   H10530003   6.556   0.789   6.078  0.6935  1.1761 -0.9108
  100MOL   H10630004   6.804   0.860   6.063 -1.3437  0.8984 -0.1690
  100MOL   C10730005   6.906   0.604   6.531 -0.3882 -0.2890  0.1571
  100MOL   C10830006   6.952   0.743   6.593  0.2018 -0.0033  0.4452
  100MOL   C10930007   6.851   0.785   6.701 -0.2391  0.5391  0.5597
  100MOL   C11030008   6.751   0.882   6.663  0.2723  1.1495  0.0922
  100MOL   C11130009   6.672   0.931   6.767 -0.6410  0.1715  0.4201
  100MOL   C11230010   6.696   0.883   6.900 -0.1452  0.4685  0.3397
  100MOL   C11330011   6.795   0.786   6.929  1.0593  0.2921  0.1815
  100MOL   N11430012   6.865   0.729   6.824 -0.6451 -0.2253 -0.2053
  100MOL   H11530013   6.958   0.526   6.588  0.4939  0.4141  0.3258
  100MOL   H11630014   6.802   0.593   6.562 -0.2186 -1.3445  0.3744
  100MOL   H11730015   6.939   0.813   6.511 -3.2995 -3.1183 -1.8331
  100MOL   H11830016   6.742   0.913   6.559 -1.3574  1.5319  0.3373
  100MOL   H11930017   6.599   1.009   6.756  0.4927  1.0213 -1.2014
  100MOL   H12030018   6.633   0.919   6.980 -1.7312 -1.0218 -0.2033
  100MOL   H12130019   6.807   0.738   7.025 -0.4100 -0.9574 -0.2290
  100MOL   C12230020   7.094   0.753   6.643 -0.2566  0.6296  0.3760
  100MOL   C12330021   7.206   0.756   6.532  0.0319 -0.2913  0.2262
  100MOL   C12430022   7.186   0.875   6.440  0.8095  0.2216  0.3439
  100MOL   C12530023   7.189   0.864   6.298 -0.4833 -0.4836 -0.2514
  100MOL   C12630024   7.191   0.984   6.220  0.0791  1.3001  0.4972
  100MOL   C12730025   7.176   1.102   6.288  0.1713 -0.1380 -0.1535
  100MOL   C12830026   7.167   1.106   6.425 -0.4528 -1.2406  0.3785
  100MOL   N12930027   7.172   0.994   6.497  0.0671  0.2720  0.2199
  100MOL   H13030028   7.110   0.662   6.701 -1.2079  0.9112  1.0954
  100MOL   H13130029   7.107   0.837   6.711  1.4266  1.2120 -0.6392
  100MOL   H13230030   7.193   0.663   6.477 -2.3527  0.4715 -0.6094
  100MOL   H13330031   7.205   0.768   6.250  0.3919  0.3911 -1.7606
  100MOL   H13430032   7.188   0.981   6.112 -3.1903  0.9699  0.5535
  100MOL   H13530033   7.159   1.198   6.242  4.3056 -0.6380 -2.9738
  100MOL   H13630034   7.146   1.199   6.476  1.3952 -1.1463  1.0196
  100MOL   C13730035   7.349   0.769   6.591 -0.5440  0.5444 -0.4005
  100MOL   C13830036   7.398   0.629   6.649  0.0581  0.2461 -0.5754
  100MOL   C13930037   7.411   0.530   6.536  0.2174  0.4689 -0.1761
  100MOL   C14030038   7.326   0.417   6.532  0.5060 -0.4167 -0.0458
  100MOL   C14130039   7.351   0.314   6.442  0.9272  0.6315  0.2129
  100MOL   C14230040   7.449   0.347   6.343 -0.0227 -0.1629 -0.5085
  100MOL   C14330041   7.522   0.465   6.350 -0.2301  0.1018 -0.0189
  100MOL   N14430042   7.511   0.555   6.452  0.6954  0.3298 -0.6400
  100MOL   H14530043   7.353   0.844   6.671  2.3849 -0.4743  0.4828
  100MOL   H14630044   7.415   0.809   6.515  1.5168 -0.4480  0.8190
  100MOL   H14730045   7.327   0.586   6.720 -0.4259 -0.9225 -1.7541
  100MOL   H14830046   7.251   0.396   6.606 -0.6728 -2.5524 -1.8087
  100MOL   H14930047   7.295   0.222   6.434  0.7951  0.6166  1.2062
  100MOL   H15030048   7.457   0.287   6.253  5.1535  2.7390 -2.2021
  100MOL   H15130049   7.596   0.480   6.273  0.3899  0.7917  0.7057
  100MOL   C15230050   7.527   0.647   6.733 -0.3894  0.2582  0.6858
  100MOL   C15330051   7.533   0.746   6.847 -0.1550 -0.1333 -0.4485
  100MOL   C15430052   7.401   0.740   6.924 -0.7138  0.4867 -0.0393
  100MOL   C15530053   7.311   0.849   6.924  0.7534 -0.5335 -0.2121
  100MOL   C15630054   7.186   0.839   6.985 -0.5033 -0.2747 -0.0626
  100MOL   C15730055   7.152   0.716   7.044 -0.5144 -0.1308 -0.1801
  100MOL   C15830056   7.249   0.610   7.046 -0.4635 -0.9055  0.1251
  100MOL   N15930057   7.375   0.626   6.990  0.0409  1.1315 -0.0911
  100MOL   H16030058   7.595   0.685   6.656  0.3525 -1.4350  0.4596
  100MOL   H16130059   7.555   0.548   6.769 -1.4222 -1.8367 -3.8758
  100MOL   H16230060   7.536   0.848   6.809  1.8238  0.4787  1.2879
  100MOL   H16330061   7.336   0.944   6.880 -0.9169 -0.7338 -1.6540
  100MOL   H16430062   7.106   0.911   6.993 -0.3634 -0.3779  2.7326
  100MOL   H16530063   7.053   0.710   7.086  0.4523  3.7205  2.8707
  100MOL   H16630064   7.226   0.511   7.083  0.1306 -0.7176  1.0169
  100MOL   C16730065   7.646   0.728   6.943 -0.2384  0.1183 -0.0626
  100MOL   C16830066   7.784   0.752   6.874 -0.1227  0.0708  0.3295
  100MOL   C16930067   7.809   0.904   6.856  1.3046  0.5597  0.2024
  100MOL   C17030068   7.820   0.962   6.725  0.0311 -0.1247 -0.3888
  100MOL   C17130069   7.847   1.104   6.717  0.7986  0.2596 -0.0901
  100MOL   C17230070   7.856   1.173   6.844  0.5342 -0.4188  0.5365
  100MOL   C17330071   7.832   1.112   6.962  0.6689 -0.2464 -0.7787
  100MOL   N17430072   7.818   0.978   6.969  0.0410  0.4785 -0.1358
  100MOL   H17530073   7.629   0.633   6.992  2.1760  0.7982  2.2581
  100MOL   H17630074   7.630   0.796   7.027 -1.1447 -1.9063  1.4447
  100MOL   H17730075   7.773   0.710   6.774  0.2172 -2.6587  1.3906
  100MOL   H17830076   7.828   0.903   6.634 -0.7160  0.3423 -0.7603
  100MOL   H17930077   7.869   1.161   6.628 -0.3442  0.4902 -0.2375
  100MOL   H18030078   7.875   1.279   6.840 -0.7970 -0.1993 -0.3999
  100MOL   H18130079   7.836   1.157   7.060 -1.2462 -0.1266 -0.7212
  100MOL   C18230080   7.899   0.686   6.956  0.1933 -0.2498  0.3737
  100MOL   C18330081   7.900   0.531   6.955 -0.5168  0.6175  0.1788
  100MOL   C18430082   7.853   0.478   6.817  0.2429 -0.0189  0.0832
  100MOL   C18530083   7.740   0.397   6.810  0.1100  0.3062 -0.7036
  100MOL   C18630084   7.712   0.339   6.689  0.0064 -0.0091 -0.1580
  100MOL   C18730085   7.796   0.356   6.576  0.0557 -0.3114  0.1850
  100MOL   C18830086   7.893   0.455   6.591  0.3819  0.5263  0.9151
  100MOL   N18930087   7.931   0.507   6.709 -0.3415  0.1837  0.1822
  100MOL   H19030088   7.899   0.714   7.062 -0.3032  0.3671  0.2122
  100MOL   H19130089   7.990   0.721   6.908 -0.1849  0.0889 -0.1009
  100MOL   H19230090   7.824   0.501   7.027 -1.8466  1.7276 -0.7380
  100MOL   H19330091   7.675   0.390   6.895 -0.2727 -1.8143 -1.1566
  100MOL   H19430092   7.634   0.265   6.689  0.2342 -0.2653  1.5796
  100MOL   H19530093   7.782   0.306   6.482 -0.0669  0.5602 -0.2605
  100MOL   H19630094   7.952   0.481   6.505  0.7531 -0.1078  0.9833
  100MOL   C19730095   8.035   0.476   6.999  0.2394  0.0292  0.1161
  100MOL   C19830096   8.045   0.330   7.055 -0.0745 -0.0263 -0.5365
  100MOL   C19930097   7.971   0.310   7.183 -0.5413  0.1902  0.7585
  100MOL   C20030098   8.034   0.303   7.305 -0.2971 -0.2415  0.2673
  100MOL   C20130099   7.961   0.277   7.424 -0.0377 -0.4202 -0.3945
  100MOL   C20230100   7.822   0.257   7.411  0.0350  0.4566  0.6222
  100MOL   C20330101   7.763   0.263   7.279  0.2529 -0.3505  0.1453
  100MOL   N20430102   7.832   0.291   7.168  0.4844 -0.4355 -0.2253
  100MOL   H20530103   8.090   0.527   7.078  1.1617 -3.3505  1.7549
  100MOL   H20630104   8.099   0.488   6.912  0.5538  0.5154  0.4095
  100MOL   H20730105   8.151   0.321   7.077 -0.4255 -0.1189  1.1493
  100MOL   H20830106   8.137   0.334   7.313 -0.2772  0.5483 -2.6305
  100MOL   H20930107   8.013   0.281   7.519 -0.0214 -1.1322 -0.3690
  100MOL   H21030108   7.758   0.234   7.494  0.2141 -0.5608  0.4821
  100MOL   H21130109   7.659   0.248   7.258  0.0409  1.5032 -0.2196
  100MOL   C21230110   8.023   0.217   6.948  0.1655  0.3752 -0.3719
  100MOL   C21330111   8.107   0.215   6.818  0.1424 -0.0110  0.6228
  100MOL   C21430112   0.100   0.262   6.845  0.6519  0.3606  0.0911
  100MOL   C21530113   0.156   0.383   6.797  0.0128 -0.0824  0.2005
  100MOL   C21630114   0.277   0.429   6.849 -0.6049 -0.0288 -0.1382
  100MOL   C21730115   0.347   0.347   6.939 -0.4505 -0.1921  0.2075
  100MOL   C21830116   0.291   0.223   6.975 -0.2124 -0.9243  0.4936
  100MOL   N21930117   0.169   0.181   6.932 -0.2749  0.0183 -0.1096
  100MOL   H22030118   7.915   0.221   6.933  0.2040  2.8351 -0.1600
  100MOL   H22130119   8.044   0.125   7.004 -2.2015 -0.1506 -0.2921
  100MOL   H22230120   8.065   0.290   6.751 -0.1936 -0.7400  0.0046
  100MOL   H22330121   0.092   0.436   6.727  1.0499  0.0886 -0.6283
  100MOL   H22430122   0.306   0.531   6.828 -1.7630  0.0697 -1.3517
  100MOL   H22530123   0.439   0.378   6.985  0.1047 -0.6821 -0.5599
  100MOL   H22630124   0.337   0.157   7.047 -1.0350  1.0371  2.8787
  100MOL   C22730125   8.109   0.071   6.755  0.0320 -0.3404 -0.0859
  100MOL   C22830126   0.013   0.043   6.616 -0.0784 -0.5804  0.8276
  100MOL   C22930127   8.142   8.047   6.589  0.7357  0.3913 -0.0739
  100MOL   C23030128   0.087   7.954   6.548 -0.2993  0.7138  0.5971
  100MOL   C23130129   0.042   7.824   6.512 -0.6753  0.2866  0.3774
  100MOL   C23230130   8.061   7.788   6.520  0.7043 -0.1633  0.6191
  100MOL   C23330131   7.967   7.887   6.555 -0.1731 -0.3308  0.0515
  100MOL   N23430132   8.008   8.011   6.590 -0.3415 -0.5454 -0.6126
  100MOL   H23530133   8.004   0.043   6.756 -0.4306  1.2541 -1.5212
  100MOL   H23630134   0.010   0.009   6.828 -0.4309 -1.7256 -0.9179
  100MOL   H23730135   0.120   0.062   6.616 -0.1040 -0.3317 -0.8921
  100MOL   H23830136   0.189   7.988   6.535 -0.8099  2.2136  0.4008
  100MOL   H23930137   0.119   7.755   6.480 -1.1960  0.2738 -0.8683
  100MOL   H24030138   8.027   7.687   6.503  0.7357 -0.2162  0.8648
  100MOL   H24130139   7.861   7.864   6.549 -0.4039  1.1967 -2.5725
  100MOL   C24230140   8.099   0.138   6.505  0.3375 -0.2992  0.2765
  100MOL   C24330141   8.104   0.076   6.368 -0.1109 -0.5796  0.1487
  100MOL   C24430142   8.015   0.159   6.288  0.2598  0.6740 -0.5614
  100MOL   C24530143   7.880   0.115   6.259 -0.9245  0.2115  0.3561
  100MOL   C24630144   7.797   0.196   6.178 -0.6292  0.1233 -0.2627
  100MOL   C24730145   7.844   0.323   6.144  0.6491  0.1662 -0.0165
  100MOL   C24830146   7.980   0.354   6.171  0.2776 -0.3211  0.1869
  100MOL   N24930147   8.063   0.276   6.246 -0.4490 -0.0323  0.0895
  100MOL   H25030148   8.147   0.236   6.512  0.7357 -0.4446 -0.3645
  100MOL   H25130149   7.995   0.133   6.537  0.4596 -1.5654  0.4985
  100MOL   H25230150   8.044   8.138   6.375 -1.3533  0.3284  1.6696
  100MOL   H25330151   7.840   0.022   6.297  1.2572 -1.1520 -0.6376
  100MOL   H25430152   7.696   0.156   6.170 -0.4541 -0.3026 -0.3411
  100MOL   H25530153   7.780   0.397   6.100 -2.0313  0.5110  4.1701
  100MOL   H25630154   8.026   0.444   6.133 -0.3412  0.5212  1.4227
  100MOL   C25730155   0.099   0.043   6.307  0.4210 -0.4780 -0.3990
  100MOL   C25830156   0.087   8.076   6.206 -0.2615  0.0057  0.3324
  100MOL   C25930157   8.110   8.076   6.128 -0.3662 -0.2950 -0.0332
  100MOL   C26030158   8.094   0.001   6.008 -0.5710 -0.1280 -0.2795
  100MOL   C26130159   7.981   8.125   5.927 -0.6322  0.3956 -0.4063
  100MOL   C26230160   7.895   8.026   5.973 -0.4242 -0.2387 -0.4388
  100MOL   C26330161   7.920   7.961   6.096 -0.3824  0.2159  0.4125
  100MOL   N26430162   8.024   7.984   6.168  0.2130 -0.6151 -0.0934
  100MOL   H26530163   0.158   0.016   6.394 -1.1202  1.5944  1.3700
  100MOL   H26630164   0.141   0.132   6.260  2.1181 -1.4022 -0.6508
  100MOL   H26730165   0.094   7.983   6.263 -0.4549  0.6164  1.3800
  100MOL   H26830166   0.008   0.079   5.973  2.0042 -2.6891 -1.3755
  100MOL   H26930167   7.958   0.025   5.835 -0.7575  1.5390  0.2638
  100MOL   H27030168   7.809   8.012   5.910  0.6923 -0.2893 -1.9755
  100MOL   H27130169   7.851   7.885   6.129 -0.2275  0.0416  0.3364
  100MOL   C27230170   0.208   8.076   6.115  0.8417  0.2300 -0.0283
  100MOL   C27330171   0.339   7.979   6.147 -0.0933  0.0222 -0.3342
  100MOL   C27430172   0.310   7.839   6.192  0.0293 -0.2738  0.0116
  100MOL   C27530173   0.366   7.778   6.311  0.2714 -0.3166  0.3660
  100MOL   C27630174   0.318   7.656   6.350  0.8612  0.0802 -0.1431
  100MOL   C27730175   0.227   7.585   6.272 -0.0710  0.8176 -0.5380
  100MOL   C27830176   0.189   7.641   6.148  0.1580 -0.0051 -0.5198
  100MOL   N27930177   0.229   7.768   6.113  0.2843  0.4305 -0.9040
  100MOL   H28030178   0.244   0.026   6.100  1.2018  0.2451  0.8876
  100MOL   H28130179   0.171   8.032   6.022  0.7197  1.0476 -0.3684
  100MOL   H28230180   0.388   8.026   6.233  1.1873  2.2338 -2.1970
  100MOL   H28330181   0.439   7.833   6.367 -1.1105  1.8835  0.0662
  100MOL   H28430182   0.340   7.622   6.450 -0.2673 -1.4641 -0.3874
  100MOL   H28530183   0.195   7.487   6.305 -1.5408  0.6669 -2.3231
  100MOL   H28630184   0.126   7.600   6.071  0.2342  0.4654 -0.8362
  100MOL   C28730185   0.437   7.989   6.025 -0.1308 -0.1683  0.3637
  100MOL   C28830186   0.568   7.915   6.041 -1.2443 -0.0787 -0.3203
  100MOL   C28930187   0.645   7.879   5.913  0.0091  0.2268  0.2004
  100MOL   C29030188   0.627   7.755   5.852 -0.0581  0.4677  0.4465
  100MOL   C29130189   0.705   7.720   5.740  0.1216 -0.1069 -0.5648
  100MOL   C29230190   0.791   7.823   5.692 -0.1291  0.1330  0.0920
  100MOL   C29330191   0.795   7.953   5.748  0.5922 -0.2253  0.1773
  100MOL   N29430192   0.719   7.982   5.854  0.1670  0.3206  0.3284
  100MOL   H29530193   0.458   8.095   6.012  0.9353  0.0073  3.0753
  100MOL   H29630194   0.387   7.961   5.932  1.1546 -1.4799  0.0602
  100MOL   H29730195   0.558   7.822   6.096  2.6355 -0.5153 -0.1891
  100MOL   H29830196   0.560   7.677   5.886  0.8036 -0.3779  0.2103
  100MOL   H29930197   0.698   7.624   5.692  1.8645  0.1272 -1.3181
  100MOL   H30030198   0.850   7.813   5.602 -0.0910 -2.8422  0.4033
  100MOL   H30130199   0.867   8.027   5.716  0.0766  0.0218 -0.4182
  100MOL   H30230200   0.630   7.970   6.112 -2.3097 -1.5256  1.7695
  101MOL     C130201   4.768   1.735   4.766  0.8431  0.3208  0.3550
  101MOL     C230202   4.675   1.624   4.802 -0.1233 -0.4806 -0.1098
  101MOL     C330203   4.582   1.601   4.685  0.6209  0.1117 -0.6972
  101MOL     C430204   4.452   1.655   4.685  0.0004 -0.0457 -0.4605
  101MOL     C530205   4.364   1.618   4.582  0.2695  0.0776  0.1958
  101MOL     C630206   4.422   1.535   4.482  0.4640 -0.2189  0.6650
  101MOL     C730207   4.553   1.488   4.483  0.3223 -0.0154 -0.3925
  101MOL     N830208   4.629   1.529   4.586 -0.5358  0.0109 -0.3865
  101MOL     H930209   4.837   1.695   4.692  4.0241  2.7144  1.8964
  101MOL    H1030210   4.715   1.821   4.725  2.2993  0.3123 -1.6331
  101MOL    H1130211   4.616   1.665   4.884 -0.7943 -1.7483  0.0518
  101MOL    H1230212   4.404   1.700   4.770  2.1834 -0.1434  0.8537
  101MOL    H1330213   4.265   1.658   4.568  0.7368  1.0040 -0.5688
  101MOL    H1430214   4.356   1.508   4.400 -0.1309  2.0732  0.3503
  101MOL    H1530215   4.596   1.422   4.410 -1.3557 -0.4443 -1.0111
  101MOL    H1630216   4.836   1.772   4.843  3.3172 -0.0197 -1.5852
  101MOL    C1730217   4.750   1.489   4.839 -0.5271  0.2435  0.7721
  101MOL    C1830218   4.858   1.495   4.960 -0.6985 -0.5916 -0.1330
  101MOL    C1930219   4.817   1.442   5.098 -0.1155  0.3247 -0.1882
  101MOL    C2030220   4.827   1.515   5.217  0.0887  0.3027  0.9425
  101MOL    C2130221   4.802   1.449   5.337  0.7640 -0.9439 -0.1786
  101MOL    C2230222   4.752   1.315   5.334 -0.0515 -0.2873 -0.1812
  101MOL    C2330223   4.730   1.258   5.208  0.3223  0.0986 -0.3862
  101MOL    N2430224   4.765   1.316   5.095 -0.1595 -0.4323 -0.1934
  101MOL    H2530225   4.796   1.457   4.746 -1.1413 -0.3951  0.6841
  101MOL    H2630226   4.683   1.407   4.864 -0.2851  0.3798  1.9219
  101MOL    H2730227   4.886   1.599   4.978 -1.6824 -0.3528  0.0353
  101MOL    H2830228   4.867   1.615   5.213 -0.2103  0.3900 -0.0695
  101MOL    H2930229   4.824   1.499   5.430 -0.1126  0.1208 -0.5426
  101MOL    H3030230   4.743   1.264   5.429 -1.2941  1.4727  0.6806
  101MOL    H3130231   4.690   1.158   5.205 -3.0433  1.3831  0.2416
  101MOL    C3230232   4.988   1.417   4.926  0.8482 -0.0904 -0.4418
  101MOL    C3330233   5.083   1.475   4.821 -0.3531  0.0021  0.9969
  101MOL    C3430234   5.128   1.619   4.840 -0.8894  0.6333 -0.4995
  101MOL    C3530235   5.110   1.725   4.760  0.1011  0.5800  0.2968
  101MOL    C3630236   5.164   1.846   4.793 -0.5593 -0.3373 -0.2226
  101MOL    C3730237   5.238   1.857   4.911  0.0963  0.2784 -0.3174
  101MOL    C3830238   5.266   1.742   4.984  0.1978  0.2778 -0.0284
  101MOL    N3930239   5.214   1.626   4.949 -0.1218 -0.8290 -0.0076
  101MOL    H4030240   4.962   1.314   4.902 -1.1030  0.7206 -1.8906
  101MOL    H4130241   5.045   1.418   5.019 -0.4545  0.9549  0.3552
  101MOL    H4230242   5.035   1.489   4.724 -0.5273  2.3371  1.3881
  101MOL    H4330243   5.051   1.707   4.671  0.5669  0.0153  0.0917
  101MOL    H4430244   5.150   1.928   4.724  0.9097 -0.0550 -0.2026
  101MOL    H4530245   5.282   1.952   4.938 -1.0433  0.5331  0.6901
  101MOL    H4630246   5.323   1.745   5.076 -1.6837 -0.4897  1.1974
  101MOL    C4730247   5.210   1.385   4.803  0.0560  0.4834  0.1341
  101MOL    C4830248   5.177   1.242   4.756  0.1960  0.3781 -0.1685
  101MOL    C4930249   5.069   1.235   4.646  0.4869 -0.0985 -0.3016
  101MOL    C5030250   4.944   1.175   4.674  0.0931 -0.3924 -0.3531
  101MOL    C5130251   4.852   1.158   4.573 -0.2856 -0.5447  0.3418
  101MOL    C5230252   4.867   1.222   4.455  0.4908 -0.0271  0.6018
  101MOL    C5330253   4.990   1.290   4.436  0.3611 -1.2132  0.2607
  101MOL    N5430254   5.091   1.298   4.527  0.2949 -0.2879  1.0870
  101MOL    H5530255   5.266   1.373   4.896 -0.2454 -2.5401 -0.0197
  101MOL    H5630256   5.284   1.435   4.741  0.1367 -1.5970 -1.5207
  101MOL    H5730257   5.128   1.180   4.832  1.8189 -1.6595 -0.7282
  101MOL    H5830258   4.919   1.134   4.771 -0.8964  2.4056  0.6110
  101MOL    H5930259   4.764   1.095   4.578  0.4641 -1.6552 -0.4353
  101MOL    H6030260   4.790   1.209   4.380  0.8911  2.8942 -0.3928
  101MOL    H6130261   4.999   1.332   4.337 -3.4764 -0.9051 -0.0215
  101MOL    C6230262   5.309   1.169   4.726  0.3218  0.3810  0.0615
  101MOL    C6330263   5.312   1.022   4.787 -0.0991 -0.3185  0.3060
  101MOL    C6430264   5.400   0.930   4.699  0.3828 -0.1639 -0.4542
  101MOL    C6530265   5.358   0.807   4.653 -0.0606 -0.6340 -0.1283
  101MOL    C6630266   5.457   0.717   4.596  0.6200  0.5407 -0.7632
  101MOL    C6730267   5.588   0.760   4.586  0.5495  0.0247  0.3002
  101MOL    C6830268   5.619   0.886   4.637  0.5773  0.1371  0.1082
  101MOL    N6930269   5.528   0.966   4.690  0.5238 -0.6211 -0.6788
  101MOL    H7030270   5.397   1.219   4.768 -0.3015  1.0962  0.5265
  101MOL    H7130271   5.340   1.168   4.622 -1.6408 -0.9845 -0.5315
  101MOL    H7230272   5.212   0.981   4.777 -0.2992  0.1240  0.4783
  101MOL    H7330273   5.261   0.769   4.679 -0.7044  0.5833 -0.7155
  101MOL    H7430274   5.428   0.616   4.571  0.8917  0.4339 -0.6451
  101MOL    H7530275   5.662   0.702   4.534  1.6109 -0.5750  2.4026
  101MOL    H7630276   5.719   0.926   4.629  0.2872  0.9039  0.2622
  101MOL    C7730277   5.359   0.999   4.926 -0.2015 -0.5906 -0.4819
  101MOL    C7830278   5.258   1.031   5.039 -0.2857  0.8816 -0.2645
  101MOL    C7930279   5.128   0.963   5.022  0.4846  0.1520  0.1682
  101MOL    C8030280   5.118   0.819   4.996 -0.2326  0.3693 -0.0403
  101MOL    C8130281   4.995   0.766   4.978 -0.1359 -0.4389 -0.1946
  101MOL    C8230282   4.878   0.852   4.985  0.4592  0.2770 -0.4961
  101MOL    C8330283   4.900   0.986   5.017  1.1634  0.7162  0.4239
  101MOL    N8430284   5.017   1.040   5.029 -0.2001  0.6775  0.1285
  101MOL    H8530285   5.456   1.045   4.940 -1.3417  1.9840 -0.7675
  101MOL    H8630286   5.380   0.892   4.937 -0.4281 -0.5658  0.2673
  101MOL    H8730287   5.232   1.137   5.030 -1.2554  0.5507 -1.5232
  101MOL    H8830288   5.205   0.755   4.988  1.4978  2.5992  0.5129
  101MOL    H8930289   4.987   0.660   4.955  2.0734 -0.9618  1.3094
  101MOL    H9030290   4.777   0.815   4.985  0.2987  0.6819  0.8444
  101MOL    H9130291   4.815   1.052   5.017 -0.3484 -1.1075 -2.6183
  101MOL    C9230292   5.316   0.991   5.175 -0.0032  0.2791  0.1002
  101MOL    C9330293   5.240   1.053   5.293  0.0929  0.2937  0.1592
  101MOL    C9430294   5.131   0.958   5.344  0.4419  0.4491  0.4615
  101MOL    C9530295   4.995   1.003   5.362  0.1470 -0.3504  0.1268
  101MOL    C9630296   4.901   0.911   5.401  0.5972  0.7049 -0.3165
  101MOL    C9730297   4.947   0.779   5.427  0.8629 -1.3852  0.0209
  101MOL    C9830298   5.077   0.733   5.404 -0.2497 -0.9939  0.2159
  101MOL    N9930299   5.168   0.829   5.370  0.2655 -0.0169  0.2556
  101MOL   H10030300   5.421   1.021   5.182  0.0362  0.4241 -0.9768
  101MOL   H10130301   5.308   0.883   5.182  1.5803 -0.1290 -3.1475
  101MOL   H10230302   5.195   1.145   5.256  0.7783  0.3161 -0.6491
  101MOL   H10330303   4.969   1.107   5.345  1.0833 -0.1142  0.1245
  101MOL   H10430304   4.801   0.945   5.420 -0.3806 -0.8134 -2.5576
  101MOL   H10530305   4.877   0.708   5.470 -0.1392 -0.7661 -0.5810
  101MOL   H10630306   5.106   0.630   5.409  0.4683 -0.8531 -0.9243
  101MOL   C10730307   5.333   1.089   5.410  0.4388  0.2861  0.0968
  101MOL   C10830308   5.424   1.217   5.387 -0.0276  0.6494 -0.1569
  101MOL   C10930309   5.361   1.342   5.426 -0.1852  0.3325  0.1735
  101MOL   C11030310   5.259   1.391   5.343 -0.3060 -0.4416 -0.4503
  101MOL   C11130311   5.192   1.504   5.383 -0.3434 -0.3022 -0.1950
  101MOL   C11230312   5.210   1.549   5.519  0.5002 -0.1036 -0.8333
  101MOL   C11330313   5.303   1.484   5.601 -0.0299  0.4045  0.3315
  101MOL   N11430314   5.374   1.376   5.555  0.3977 -0.3765 -0.4910
  101MOL   H11530315   5.389   0.996   5.415 -1.0545 -0.5531  2.0417
  101MOL   H11630316   5.290   1.097   5.510 -0.6855 -0.6975 -0.3037
  101MOL   H11730317   5.429   1.227   5.279  0.6605  1.4651 -0.0578
  101MOL   H11830318   5.244   1.357   5.242 -0.9187  0.5737 -0.7089
  101MOL   H11930319   5.128   1.550   5.309 -0.7609  0.0540  0.3830
  101MOL   H12030320   5.157   1.633   5.564 -0.7745 -0.2245 -2.0651
  101MOL   H12130321   5.330   1.526   5.697  2.0037  0.6829 -0.3322
  101MOL   C12230322   5.564   1.203   5.455  0.0605  0.3315  0.4916
  101MOL   C12330323   5.661   1.114   5.378 -0.1205  0.2905  0.9326
  101MOL   C12430324   5.686   1.170   5.243 -0.0433 -0.0985  0.3139
  101MOL   C12530325   5.667   1.093   5.124 -0.1081 -0.2321 -0.1405
  101MOL   C12630326   5.700   1.147   4.998  0.2346  0.1987 -0.0426
  101MOL   C12730327   5.746   1.277   4.999 -0.0147 -0.4127 -0.2230
  101MOL   C12830328   5.776   1.344   5.120  0.0988 -0.4341  0.0565
  101MOL   N12930329   5.747   1.292   5.240 -0.2056  0.1087  0.3390
  101MOL   H13030330   5.551   1.172   5.559 -0.0358  1.9360  0.9762
  101MOL   H13130331   5.602   1.305   5.452 -1.4865  0.8883 -0.6548
  101MOL   H13230332   5.618   1.015   5.364  0.2338 -0.0917  2.4353
  101MOL   H13330333   5.621   0.995   5.122  0.9783 -0.7333 -1.1442
  101MOL   H13430334   5.682   1.089   4.909 -1.6440 -0.0748  0.4990
  101MOL   H13530335   5.776   1.333   4.912  1.4560 -0.4315  0.2615
  101MOL   H13630336   5.831   1.437   5.117 -1.5139  0.4779 -1.9063
  101MOL   C13730337   5.795   1.085   5.452  0.4518  0.0360  0.6824
  101MOL   C13830338   5.789   1.019   5.592  0.0967  0.0991 -0.0600
  101MOL   C13930339   5.729   0.876   5.589  0.0917  0.8846  0.4378
  101MOL   C14030340   5.807   0.758   5.562  0.8487 -0.8687 -0.0306
  101MOL   C14130341   5.732   0.638   5.537 -0.0024  0.2060  0.0088
  101MOL   C14230342   5.592   0.638   5.531 -0.1567 -0.3894  0.1867
  101MOL   C14330343   5.531   0.758   5.568  0.1554 -0.1393  0.9982
  101MOL   N14430344   5.593   0.877   5.599  0.3777 -1.1237 -0.6100
  101MOL   H14530345   5.846   1.182   5.447  1.2543 -0.4840 -2.1591
  101MOL   H14630346   5.845   1.012   5.388 -0.7644 -1.4067  1.3587
  101MOL   H14730347   5.715   1.069   5.656 -0.0368 -0.4826  0.2381
  101MOL   H14830348   5.913   0.762   5.546  0.9519 -2.1834  0.2039
  101MOL   H14930349   5.790   0.550   5.514  0.4474 -0.0047  1.8827
  101MOL   H15030350   5.539   0.545   5.514  1.7185 -1.1676 -1.6269
  101MOL   H15130351   5.425   0.766   5.581  0.3461  3.0310  0.8158
  101MOL   C15230352   5.927   1.031   5.661 -0.5097  0.8022  0.2930
  101MOL   C15330353   5.939   1.000   5.810 -0.5989 -0.6000  0.1855
  101MOL   C15430354   6.088   0.993   5.846 -0.3752 -0.3431  0.4225
  101MOL   C15530355   6.156   1.121   5.859 -0.0385  0.3639 -0.0884
  101MOL   C15630356   6.297   1.119   5.872 -0.6519 -0.0247 -0.0113
  101MOL   C15730357   6.358   0.998   5.888  0.0932  0.2534  0.1815
  101MOL   C15830358   6.283   0.881   5.887  0.0126  0.0603 -0.5124
  101MOL   N15930359   6.150   0.873   5.861  1.0933  0.1537  0.2520
  101MOL   H16030360   5.963   1.132   5.644 -1.7025  1.5128  1.8593
  101MOL   H16130361   6.007   0.980   5.608 -1.3794 -1.0697  0.7445
  101MOL   H16230362   5.893   0.901   5.820  1.2201 -1.3991  0.9368
  101MOL   H16330363   6.107   1.218   5.855 -2.1083 -0.6665 -0.5379
  101MOL   H16430364   6.357   1.208   5.888 -0.7121  0.0787 -0.3657
  101MOL   H16530365   6.465   0.999   5.896  0.1574 -0.1448 -0.5195
  101MOL   H16630366   6.338   0.789   5.896 -0.6061 -0.1748  0.9422
  101MOL   C16730367   5.852   1.091   5.905 -0.4172  0.0915 -0.0449
  101MOL   C16830368   5.715   1.037   5.956  0.1192 -0.2177 -0.4902
  101MOL   C16930369   5.734   0.920   6.052 -0.7536 -0.3898  0.2796
  101MOL   C17030370   5.682   0.794   6.018 -0.4852  0.3656 -0.5470
  101MOL   C17130371   5.685   0.687   6.110 -0.9245 -0.2634  0.5273
  101MOL   C17230372   5.758   0.715   6.228  0.0586  0.3575 -0.1674
  101MOL   C17330373   5.814   0.842   6.250 -0.0315 -0.3525  0.5755
  101MOL   N17430374   5.794   0.952   6.172 -0.1369  0.1366  0.8600
  101MOL   H17530375   5.831   1.186   5.856  0.3606  1.5272  2.3047
  101MOL   H17630376   5.910   1.127   5.991  1.0946 -0.7138 -0.7176
  101MOL   H17730377   5.659   1.008   5.867 -0.9001  2.9434 -0.9718
  101MOL   H17830378   5.621   0.773   5.932 -0.7708 -1.1101 -0.0013
  101MOL   H17930379   5.629   0.595   6.100 -2.7440  0.8284  0.3309
  101MOL   H18030380   5.774   0.640   6.304 -0.6438  0.3455 -0.0283
  101MOL   H18130381   5.862   0.859   6.345  1.0267  1.7855 -0.3069
  101MOL   C18230382   5.633   1.149   6.021 -0.0254  0.2865 -0.9521
  101MOL   C18330383   5.502   1.107   6.086  0.3735  0.0986  0.3832
  101MOL   C18430384   5.445   1.211   6.180  0.2194 -0.4394 -0.7930
  101MOL   C18530385   5.459   1.205   6.320 -0.0453  0.0336  0.3368
  101MOL   C18630386   5.395   1.306   6.398  0.2942  0.4471  0.3877
  101MOL   C18730387   5.329   1.414   6.342  0.4414  0.5492  0.1326
  101MOL   C18830388   5.338   1.427   6.203  0.7899 -0.3146 -0.9711
  101MOL   N18930389   5.391   1.331   6.129 -0.2140 -0.0063  0.2410
  101MOL   H19030390   5.610   1.223   5.944 -1.8884 -1.3085 -1.9935
  101MOL   H19130391   5.702   1.186   6.097 -0.5237 -0.0316 -0.3398
  101MOL   H19230392   5.514   1.022   6.153 -0.8455 -0.4154 -0.0375
  101MOL   H19330393   5.502   1.117   6.366  1.2512  0.1445 -0.6373
  101MOL   H19430394   5.377   1.293   6.504 -2.3732 -1.9223 -0.2880
  101MOL   H19530395   5.288   1.487   6.409 -2.4330 -1.8620  1.1080
  101MOL   H19630396   5.302   1.512   6.146 -0.4222  0.2688  0.6273
  101MOL   C19730397   5.401   1.065   5.980  0.0519 -0.2651  0.1830
  101MOL   C19830398   5.272   0.993   6.037  0.2888 -0.3277  0.6811
  101MOL   C19930399   5.163   0.994   5.931  0.7996 -1.3863 -0.3425
  101MOL   C20030400   5.186   1.005   5.792  0.0216  1.6662  0.2747
  101MOL   C20130401   5.082   1.008   5.702 -0.4063  0.0828 -0.0469
  101MOL   C20230402   4.949   1.009   5.751 -0.1203  0.0378  0.4605
  101MOL   C20330403   4.933   1.003   5.888  0.4194 -1.0052  0.1577
  101MOL   N20430404   5.039   1.007   5.977 -0.3488 -0.4560  0.5599
  101MOL   H20530405   5.432   0.988   5.910  1.1007  0.9689 -0.7357
  101MOL   H20630406   5.385   1.156   5.921 -0.8021  1.1851  2.6020
  101MOL   H20730407   5.235   1.051   6.121  1.1307 -1.6534  1.9977
  101MOL   H20830408   5.287   1.013   5.755  0.9341  0.2378  2.3327
  101MOL   H20930409   5.106   1.015   5.597  0.4915  1.0162  0.2184
  101MOL   H21030410   4.869   1.025   5.680  0.8067  1.9276 -0.1900
  101MOL   H21130411   4.842   0.992   5.945  1.4113  0.0995  2.0195
  101MOL   C21230412   5.303   0.850   6.096  0.6169  0.0198 -0.1720
  101MOL   C21330413   5.205   0.783   6.196 -0.2375  0.5243  0.7053
  101MOL   C21430414   5.202   0.633   6.178 -0.5471  0.5141 -0.7845
  101MOL   C21530415   5.089   0.567   6.134  0.3976 -0.3290 -0.1520
  101MOL   C21630416   5.093   0.428   6.115  0.4928  0.1661 -0.9714
  101MOL   C21730417   5.211   0.357   6.144 -0.2852  0.3170  0.8305
  101MOL   C21830418   5.325   0.436   6.174  0.5006 -0.0529 -0.1208
  101MOL   N21930419   5.320   0.568   6.194 -0.1151 -0.0407 -0.1486
  101MOL   H22030420   5.406   0.842   6.130  0.2945 -1.9110  0.3814
  101MOL   H22130421   5.308   0.783   6.011  0.4048 -0.1210 -0.0739
  101MOL   H22230422   5.111   0.833   6.170 -0.8796 -0.5014  1.0122
  101MOL   H22330423   5.001   0.626   6.116  0.2975 -0.1911  0.7607
  101MOL   H22430424   5.004   0.373   6.085  0.2269 -0.7442  1.3111
  101MOL   H22530425   5.221   0.252   6.118 -0.6705  0.1484  1.3637
  101MOL   H22630426   5.426   0.399   6.182  0.8650  0.5774 -1.6129
  101MOL   C22730427   5.236   0.829   6.341 -0.0477  0.7739  0.0173
  101MOL   C22830428   5.116   0.839   6.434  0.4503  0.2214  0.4636
  101MOL   C22930429   5.008   0.738   6.422  0.0921  0.1314 -0.5523
  101MOL   C23030430   5.035   0.596   6.453 -0.5409 -0.2481 -0.4605
  101MOL   C23130431   4.927   0.513   6.454  0.7199 -0.1213  0.1574
  101MOL   C23230432   4.801   0.557   6.418 -0.2958  0.6317 -0.2364
  101MOL   C23330433   4.781   0.692   6.405  0.8000 -0.5833  0.0532
  101MOL   N23430434   4.884   0.782   6.394 -0.3766  0.0117  0.0440
  101MOL   H23530435   5.290   0.924   6.342  1.6281 -0.1106 -2.0913
  101MOL   H23630436   5.305   0.756   6.384  0.8976  2.6398  1.7474
  101MOL   H23730437   5.079   0.941   6.419 -0.3157  0.1617  1.8892
  101MOL   H23830438   5.132   0.557   6.480 -1.5065 -0.0514  3.4669
  101MOL   H23930439   4.933   0.407   6.478 -1.4232 -0.6785 -1.6275
  101MOL   H24030440   4.712   0.495   6.416  0.2453 -0.1228 -1.4542
  101MOL   H24130441   4.684   0.733   6.381  1.4676  2.1222  1.7784
  101MOL   C24230442   5.176   0.850   6.582  0.5695  0.5677  0.3042
  101MOL   C24330443   5.083   0.907   6.689  0.4708  0.7490  0.4856
  101MOL   C24430444   4.979   0.806   6.739  0.7635 -1.0008  1.0392
  101MOL   C24530445   4.841   0.833   6.720  0.3577 -0.0341 -0.0905
  101MOL   C24630446   4.743   0.748   6.777 -0.1807  0.1171 -0.6280
  101MOL   C24730447   4.790   0.639   6.846 -0.0173  0.6792 -0.3748
  101MOL   C24830448   4.929   0.607   6.852  0.1332 -0.3051 -0.4132
  101MOL   N24930449   5.018   0.692   6.801  0.4366  0.1189  0.1248
  101MOL   H25030450   5.266   0.910   6.587  0.0592  1.2372  1.4230
  101MOL   H25130451   5.219   0.754   6.610 -0.9707 -0.0198  0.7219
  101MOL   H25230452   5.012   0.980   6.649 -1.1385 -1.0311 -0.0123
  101MOL   H25330453   4.808   0.909   6.651 -2.4362 -0.3386  0.8497
  101MOL   H25430454   4.638   0.768   6.762 -0.7218 -2.2545 -0.2947
  101MOL   H25530455   4.717   0.566   6.877  0.9357  0.0439  0.4274
  101MOL   H25630456   4.964   0.518   6.901  1.1015  1.0109  1.3350
  101MOL   C25730457   5.148   0.974   6.809  0.0323  0.3034  0.6475
  101MOL   C25830458   5.193   1.123   6.795  0.1177 -0.2867 -0.1348
  101MOL   C25930459   5.083   1.219   6.754 -0.2730  0.2614 -0.6604
  101MOL   C26030460   4.994   1.286   6.846  0.0398 -0.0961  0.5024
  101MOL   C26130461   4.913   1.391   6.799  0.2317  0.0869  0.0854
  101MOL   C26230462   4.934   1.434   6.666 -0.0926 -0.2640  0.0157
  101MOL   C26330463   5.020   1.361   6.585 -0.7456 -0.1408  0.0900
  101MOL   N26430464   5.094   1.251   6.624  0.3560 -0.2998  0.3904
  101MOL   H26530465   5.226   0.904   6.840 -1.3049 -0.5326  2.1933
  101MOL   H26630466   5.082   0.957   6.893 -0.3253 -1.0304  0.1102
  101MOL   H26730467   5.271   1.130   6.719  2.6318  0.9464  2.4788
  101MOL   H26830468   4.982   1.250   6.947 -0.0491  1.1482  0.9436
  101MOL   H26930469   4.827   1.427   6.853  0.2358 -1.2338  0.9827
  101MOL   H27030470   4.879   1.513   6.616 -0.8567 -0.7783  0.0469
  101MOL   H27130471   5.019   1.382   6.479  1.3846  0.7927  0.2248
  101MOL   C27230472   5.258   1.163   6.931 -0.8026  0.1470  0.3792
  101MOL   C27330473   5.406   1.124   6.954  0.3136  0.0340  0.4399
  101MOL   C27430474   5.503   1.191   6.857  0.7995 -0.4178 -0.8105
  101MOL   C27530475   5.511   1.333   6.845 -0.7407  0.7779 -0.3787
  101MOL   C27630476   5.606   1.383   6.756 -0.1684  0.2130 -0.1386
  101MOL   C27730477   5.694   1.299   6.684 -0.0171  0.0851  0.1004
  101MOL   C27830478   5.676   1.160   6.700  0.7952 -0.0552 -0.1835
  101MOL   N27930479   5.574   1.109   6.785 -0.0582 -0.3111 -0.5360
  101MOL   H28030480   5.208   1.112   7.014 -0.4714  0.9944  1.1032
  101MOL   H28130481   5.250   1.271   6.942 -2.0117  0.1298 -0.1987
  101MOL   H28230482   5.423   1.017   6.940 -0.3642  0.2379 -2.3667
  101MOL   H28330483   5.441   1.384   6.909 -1.5489 -0.9015  0.1001
  101MOL   H28430484   5.604   1.491   6.751  2.3846  0.2168 -1.8890
  101MOL   H28530485   5.773   1.337   6.622  1.7859  0.0064  2.2731
  101MOL   H28630486   5.743   1.092   6.650 -0.8809 -1.7541 -0.2025
  101MOL   C28730487   5.463   1.143   7.095  0.0289 -1.0254 -0.5487
  101MOL   C28830488   5.390   1.061   7.207 -0.5874  0.0462 -0.3615
  101MOL   C28930489   5.476   1.054   7.334 -0.0712  0.2411  0.2165
  101MOL   C29030490   5.592   0.969   7.334  0.1297  0.0650 -0.2148
  101MOL   C29130491   5.670   0.965   7.452  0.0591  0.7269 -0.7354
  101MOL   C29230492   5.644   1.057   7.552 -0.0349 -0.3031 -0.9267
  101MOL   C29330493   5.529   1.142   7.542 -0.5527 -0.0633  1.0161
  101MOL   N29430494   5.442   1.134   7.436  0.2677 -0.1985 -0.9961
  101MOL   H29530495   5.464   1.247   7.128 -0.7005 -1.3590  0.5517
  101MOL   H29630496   5.569   1.121   7.084  0.4393 -0.0635  1.2650
  101MOL   H29730497   5.364   0.961   7.169 -0.8218  0.7396 -2.0961
  101MOL   H29830498   5.622   0.912   7.247  1.5780  0.5298 -0.0304
  101MOL   H29930499   5.760   0.905   7.462 -0.8247 -0.0770  2.9647
  101MOL   H30030500   5.692   1.067   7.648 -1.1914  3.3153 -0.6694
  101MOL   H30130501   5.499   1.209   7.621  1.6765  1.7871  0.3448
  101MOL   H30230502   5.298   1.111   7.238 -1.3445 -0.0525 -2.3579
  102MOL     C130503   0.654   3.023   1.607 -0.1751 -0.3105  0.0541
  102MOL     C230504   0.803   2.988   1.603  0.4854 -0.0784 -0.7790
  102MOL     C330505   0.834   2.847   1.548 -0.5039 -0.2211  0.2326
  102MOL     C430506   0.883   2.752   1.639 -0.9339  0.0533  0.0946
  102MOL     C530507   0.902   2.620   1.595 -0.0452  0.6367 -0.1017
  102MOL     C630508   0.876   2.586   1.459 -0.1667  0.3051  0.0673
  102MOL     C730509   0.840   2.692   1.374 -0.8108  0.2243 -0.8671
  102MOL     N830510   0.821   2.819   1.415  0.1880  0.1015 -0.8636
  102MOL     H930511   0.607   3.008   1.510 -1.0167 -0.0321  0.4184
  102MOL    H1030512   0.588   2.975   1.679 -1.3393  0.7793 -0.2664
  102MOL    H1130513   0.841   2.975   1.705  1.0514 -0.9883 -1.0935
  102MOL    H1230514   0.913   2.777   1.740  1.1846 -1.4720 -0.1180
  102MOL    H1330515   0.941   2.556   1.673 -0.5783 -1.1458 -1.2669
  102MOL    H1430516   0.886   2.486   1.419  0.0007 -1.4474  4.1778
  102MOL    H1530517   0.828   2.672   1.269  0.0354 -0.5484 -0.8248
  102MOL    H1630518   0.638   3.129   1.628  1.7142 -0.2160  1.1496
  102MOL    C1730519   0.892   3.100   1.546  0.6628 -0.0429 -0.4286
  102MOL    C1830520   1.040   3.068   1.560  0.0923  0.4352 -0.8368
  102MOL    C1930521   1.104   3.137   1.438 -0.4912 -0.3817 -0.3422
  102MOL    C2030522   1.126   3.075   1.320  0.5545 -0.0680 -0.0585
  102MOL    C2130523   1.164   3.144   1.199  0.5381 -0.2366 -0.0568
  102MOL    C2230524   1.168   3.285   1.208 -0.0174  0.3577 -0.0717
  102MOL    C2330525   1.127   3.341   1.329 -0.2095  0.3286  0.4673
  102MOL    N2430526   1.104   3.274   1.444 -0.4053  0.2262 -0.1448
  102MOL    H2530527   0.861   3.193   1.594 -0.7250 -1.3556  1.3194
  102MOL    H2630528   0.862   3.115   1.443 -0.6100  0.5465  0.0161
  102MOL    H2730529   1.053   2.960   1.552  0.7976  0.4231  0.2776
  102MOL    H2830530   1.111   2.969   1.307  1.0526 -0.0691 -0.6472
  102MOL    H2930531   1.200   3.097   1.109  0.1027  2.7981 -1.8692
  102MOL    H3030532   1.181   3.340   1.116  0.8183 -0.7045 -0.6076
  102MOL    H3130533   1.104   3.447   1.332  0.6182  0.5265  0.2285
  102MOL    C3230534   1.101   3.113   1.693  0.1358 -0.6986 -0.0214
  102MOL    C3330535   1.234   3.048   1.744  0.7914  0.1198 -0.7047
  102MOL    C3430536   1.296   3.119   1.864  0.3607 -0.7062  1.0221
  102MOL    C3530537   1.437   3.157   1.858  0.1390  0.6092 -0.2645
  102MOL    C3630538   1.490   3.217   1.975 -0.2526  0.7490  0.9168
  102MOL    C3730539   1.407   3.220   2.092 -0.0928  0.9934 -0.3291
  102MOL    C3830540   1.273   3.170   2.085  0.6537  0.3295  0.1226
  102MOL    N3930541   1.222   3.124   1.974 -0.3278  0.0436  0.8594
  102MOL    H4030542   1.016   3.096   1.759 -1.3006 -0.5884 -1.8071
  102MOL    H4130543   1.111   3.222   1.697 -0.8920 -0.3611 -4.0495
  102MOL    H4230544   1.296   3.072   1.657 -0.6732  3.2192 -0.9506
  102MOL    H4330545   1.491   3.142   1.766  0.5851  0.9605 -0.0586
  102MOL    H4430546   1.593   3.248   1.976  1.1084 -3.2387 -2.2299
  102MOL    H4530547   1.444   3.254   2.188 -1.4971  0.7016  0.3281
  102MOL    H4630548   1.222   3.157   2.179 -2.4467  1.0409 -1.3930
  102MOL    C4730549   1.228   2.897   1.770 -0.2700  0.6612  0.8535
  102MOL    C4830550   1.331   2.812   1.856 -0.3202 -0.0450  0.0749
  102MOL    C4930551   1.277   2.673   1.886  0.0752  0.5210 -0.6280
  102MOL    C5030552   1.213   2.652   2.011  0.2293  0.5214  0.3058
  102MOL    C5130553   1.161   2.526   2.043 -0.7200  0.6157  0.4423
  102MOL    C5230554   1.171   2.424   1.946 -0.3464 -0.5215  0.1617
  102MOL    C5330555   1.226   2.456   1.821  0.0171 -0.7846 -0.0760
  102MOL    N5430556   1.276   2.578   1.795  0.8955  0.4406  0.5038
  102MOL    H5530557   1.211   2.837   1.680  1.9312  0.8499  0.2817
  102MOL    H5630558   1.133   2.885   1.821 -0.1629 -1.5750  0.5790
  102MOL    H5730559   1.357   2.862   1.950  0.6483  0.4461 -0.4449
  102MOL    H5830560   1.214   2.724   2.092  0.6113 -0.4134  1.1446
  102MOL    H5930561   1.124   2.511   2.144  0.0239  1.7028  0.8903
  102MOL    H6030562   1.141   2.321   1.957 -2.0113 -0.1763 -1.0055
  102MOL    H6130563   1.248   2.371   1.758  1.5772 -1.6095  1.5200
  102MOL    C6230564   1.462   2.804   1.777  0.1466  0.2456  0.2378
  102MOL    C6330565   1.579   2.713   1.835 -0.4709  0.3028  0.1077
  102MOL    C6430566   1.666   2.657   1.723 -0.2519  0.9993  1.0532
  102MOL    C6530567   1.675   2.519   1.695 -0.2109  0.0227  0.1901
  102MOL    C6630568   1.756   2.482   1.589 -0.3326 -0.7527  0.7150
  102MOL    C6730569   1.814   2.579   1.505  0.0861  0.0538 -0.2999
  102MOL    C6830570   1.798   2.712   1.546 -0.2649  0.0740 -0.0696
  102MOL    N6930571   1.727   2.753   1.652  0.5819 -0.2057 -0.0824
  102MOL    H7030572   1.496   2.906   1.756  0.3099 -0.3814 -2.7323
  102MOL    H7130573   1.446   2.751   1.683  1.5373 -0.1452  0.2113
  102MOL    H7230574   1.536   2.624   1.882  0.6658 -0.6384 -0.6089
  102MOL    H7330575   1.619   2.445   1.751 -0.1443  0.1362  0.4072
  102MOL    H7430576   1.768   2.378   1.563  0.3623 -0.1560 -1.4520
  102MOL    H7530577   1.866   2.547   1.416 -2.4769 -0.6336 -1.5972
  102MOL    H7630578   1.859   2.788   1.500  0.9285 -0.9654 -0.2566
  102MOL    C7730579   1.662   2.776   1.942  0.1266 -0.3625  0.1528
  102MOL    C7830580   1.696   2.688   2.063  0.1756  0.1287  0.1911
  102MOL    C7930581   1.820   2.739   2.141 -0.3207 -0.1749  0.6619
  102MOL    C8030582   1.922   2.648   2.186  0.5116  0.4276  0.2503
  102MOL    C8130583   2.015   2.705   2.272  0.9684 -0.6082  0.2462
  102MOL    C8230584   2.006   2.835   2.318 -0.1597 -0.4264 -0.7630
  102MOL    C8330585   1.905   2.911   2.260  0.5349 -0.3668 -0.0583
  102MOL    N8430586   1.815   2.866   2.173  0.3028 -0.3468 -0.0486
  102MOL    H8530587   1.618   2.869   1.978 -3.8451 -2.0954  0.1104
  102MOL    H8630588   1.751   2.823   1.902  0.1319 -0.8217 -0.3806
  102MOL    H8730589   1.715   2.590   2.019  1.3488  0.3896  0.0983
  102MOL    H8830590   1.926   2.545   2.152  1.6369  0.7954 -0.7493
  102MOL    H8930591   2.102   2.647   2.299  0.9628  0.1813  2.0036
  102MOL    H9030592   2.081   2.866   2.389 -0.6094  0.5184 -0.6888
  102MOL    H9130593   1.891   3.015   2.285  1.5458 -0.3204  0.3594
  102MOL    C9230594   1.570   2.697   2.162  0.6108  0.6415  0.4119
  102MOL    C9330595   1.584   2.637   2.303 -0.2513  0.3855  0.0496
  102MOL    C9430596   1.473   2.693   2.398 -0.5942 -0.1361 -0.2712
  102MOL    C9530597   1.343   2.648   2.373  0.3200  0.9564 -0.5372
  102MOL    C9630598   1.247   2.680   2.475 -0.7767 -0.5119  0.9906
  102MOL    C9730599   1.289   2.760   2.587  0.5715 -0.1196  0.4895
  102MOL    C9830600   1.422   2.805   2.592 -0.4553 -0.3527 -0.4477
  102MOL    N9930601   1.513   2.768   2.502 -0.1091  0.4176  0.0642
  102MOL   H10030602   1.484   2.659   2.107 -0.8806  1.0630  2.3944
  102MOL   H10130603   1.542   2.801   2.181 -0.9667  0.2337  0.3562
  102MOL   H10230604   1.679   2.676   2.341 -0.2228 -0.3427  0.7343
  102MOL   H10330605   1.315   2.593   2.284  0.6267  0.9393 -0.6209
  102MOL   H10430606   1.153   2.630   2.462 -0.8521  0.3775 -2.3148
  102MOL   H10530607   1.225   2.781   2.671  0.8817  0.2653  0.6302
  102MOL   H10630608   1.469   2.865   2.668 -0.6702 -0.5682 -0.1437
  102MOL   C10730609   1.576   2.481   2.299 -0.3271 -0.0635 -0.5637
  102MOL   C10830610   1.608   2.401   2.434 -0.6356  0.1441 -0.6165
  102MOL   C10930611   1.551   2.262   2.432 -0.0687 -0.1211  0.4122
  102MOL   C11030612   1.490   2.194   2.538  0.2037  0.1292 -0.4003
  102MOL   C11130613   1.469   2.054   2.524 -0.2007 -0.6942  0.2693
  102MOL   C11230614   1.511   1.988   2.407 -0.7856 -0.5974 -0.9910
  102MOL   C11330615   1.570   2.065   2.303  0.6564 -0.3707 -0.1151
  102MOL   N11430616   1.581   2.199   2.317  0.2124 -0.0497  0.1286
  102MOL   H11530617   1.637   2.441   2.218 -1.1333 -0.8907 -0.7665
  102MOL   H11630618   1.476   2.445   2.276 -0.7139  0.9305 -0.4715
  102MOL   H11730619   1.567   2.458   2.517 -0.3668 -3.6207  2.2371
  102MOL   H11830620   1.464   2.249   2.627 -3.1544 -0.7416 -0.7840
  102MOL   H11930621   1.429   1.993   2.603 -0.8547  0.6109  0.9656
  102MOL   H12030622   1.500   1.881   2.399  1.7526 -0.8685 -1.1875
  102MOL   H12130623   1.598   2.033   2.204  1.5058 -0.8780  0.2888
  102MOL   C12230624   1.765   2.388   2.453  0.4609  0.2429  0.6880
  102MOL   C12330625   1.811   2.294   2.569  0.1473 -0.1912  0.2792
  102MOL   C12430626   1.961   2.280   2.559 -0.4132 -0.3791 -0.1369
  102MOL   C12530627   2.025   2.156   2.567  0.2794  0.0018 -0.1009
  102MOL   C12630628   2.164   2.151   2.561  0.0560  0.5829  0.0070
  102MOL   C12730629   2.238   2.269   2.563  0.3424  0.3144 -0.3712
  102MOL   C12830630   2.161   2.392   2.560 -0.7646  0.6196  0.5046
  102MOL   N12930631   2.029   2.398   2.558  0.2191 -0.4279  0.0336
  102MOL   H13030632   1.799   2.492   2.459  0.8946  0.3166 -2.2285
  102MOL   H13130633   1.809   2.344   2.364 -0.4398  0.3806  0.1760
  102MOL   H13230634   1.769   2.196   2.543  1.0046 -0.2873 -0.7588
  102MOL   H13330635   1.976   2.061   2.578 -0.5057  0.3945 -0.1152
  102MOL   H13430636   2.205   2.052   2.552 -3.2223 -0.8319  0.0013
  102MOL   H13530637   2.346   2.267   2.559  0.4673  2.6625  1.0438
  102MOL   H13630638   2.213   2.487   2.555  2.0057 -0.8077  1.1858
  102MOL   C13730639   1.767   2.343   2.713  1.1302 -0.2131 -0.1767
  102MOL   C13830640   1.798   2.251   2.831 -0.5891 -0.0883  0.2658
  102MOL   C13930641   1.769   2.316   2.964 -0.3297  0.2832 -0.2012
  102MOL   C14030642   1.863   2.349   3.067 -0.4771 -0.6820  0.1816
  102MOL   C14130643   1.812   2.394   3.193  0.7742  0.0048  0.0839
  102MOL   C14230644   1.675   2.407   3.211  0.2345 -0.4961  0.0266
  102MOL   C14330645   1.593   2.375   3.110 -0.1704 -0.4401  0.1727
  102MOL   N14430646   1.636   2.330   2.988 -1.4985 -0.0265 -0.5841
  102MOL   H14530647   1.659   2.354   2.705  0.8767 -2.7044 -0.6965
  102MOL   H14630648   1.817   2.437   2.737  1.8990 -0.7295  0.2620
  102MOL   H14730649   1.907   2.242   2.829 -0.4650  0.6113  2.3951
  102MOL   H14830650   1.968   2.336   3.047 -0.4288 -0.3615  0.2111
  102MOL   H14930651   1.883   2.424   3.269  0.8993  2.9895 -1.1393
  102MOL   H15030652   1.630   2.445   3.302 -0.0830  1.8315 -1.0732
  102MOL   H15130653   1.487   2.376   3.129 -0.2554  0.8029 -0.3114
  102MOL   C15230654   1.736   2.107   2.820 -0.0419  0.5212  0.3595
  102MOL   C15330655   1.759   2.020   2.947 -0.8147 -0.1741  0.1697
  102MOL   C15430656   1.694   1.889   2.922  0.1207 -0.2808  0.4618
  102MOL   C15530657   1.570   1.867   2.974  0.4168 -1.1115  0.3542
  102MOL   C15630658   1.497   1.751   2.945  0.7094  0.0182 -0.2361
  102MOL   C15730659   1.554   1.661   2.856  0.5332  1.1416 -0.0544
  102MOL   C15830660   1.686   1.682   2.813  0.2944 -0.1287  0.0675
  102MOL   N15930661   1.755   1.797   2.844 -0.6951  0.2783  0.0763
  102MOL   H16030662   1.764   2.059   2.726  0.8642  0.1706  0.8002
  102MOL   H16130663   1.628   2.121   2.814 -0.0110  0.7517  0.3510
  102MOL   H16230664   1.704   2.075   3.023  0.1981  0.0642  0.7458
  102MOL   H16330665   1.527   1.955   3.020  3.8080 -0.1978  1.9082
  102MOL   H16430666   1.399   1.744   2.989  0.8648 -2.6183 -0.2421
  102MOL   H16530667   1.502   1.570   2.830 -1.0722  2.4222 -1.4422
  102MOL   H16630668   1.739   1.606   2.758  2.1949  1.8027 -0.8574
  102MOL   C16730669   1.908   2.004   2.985 -0.1152 -0.6065 -0.6558
  102MOL   C16830670   1.944   1.921   3.109  0.6840 -0.0014  0.6370
  102MOL   C16930671   2.088   1.868   3.086 -0.3680 -0.3184 -0.8428
  102MOL   C17030672   2.120   1.733   3.066 -0.2725 -0.6067  0.3506
  102MOL   C17130673   2.253   1.699   3.038  0.4413 -0.2633  0.5185
  102MOL   C17230674   2.348   1.804   3.033  0.3537  0.9409  0.2633
  102MOL   C17330675   2.309   1.930   3.061 -0.8172 -0.9369 -0.1219
  102MOL   N17430676   2.184   1.964   3.085  0.4272 -0.3969  0.4234
  102MOL   H17530677   1.958   2.100   3.004 -0.6573 -0.8733  2.5049
  102MOL   H17630678   1.963   1.977   2.895  1.2386  0.1595 -0.0735
  102MOL   H17730679   1.876   1.839   3.088  0.0752  0.8618 -0.7903
  102MOL   H17830680   2.045   1.656   3.072  0.2697 -1.0308  1.9063
  102MOL   H17930681   2.298   1.603   3.021  0.5545  0.4625 -3.6998
  102MOL   H18030682   2.452   1.785   3.010  0.1703 -1.3613  1.2572
  102MOL   H18130683   2.379   2.012   3.066 -1.9606  0.2429 -2.6150
  102MOL   C18230684   1.907   1.977   3.249 -0.2857 -0.1697 -0.2336
  102MOL   C18330685   1.768   1.941   3.303  0.0341  0.8269  0.1047
  102MOL   C18430686   1.763   1.831   3.414 -0.0573  0.2750 -0.3663
  102MOL   C18530687   1.791   1.847   3.554 -0.6473 -0.3068  0.2663
  102MOL   C18630688   1.811   1.734   3.636 -0.0291 -0.3356  0.5017
  102MOL   C18730689   1.783   1.609   3.585 -0.3968 -0.3690 -0.1577
  102MOL   C18830690   1.750   1.604   3.450  0.2980  0.0233  1.3069
  102MOL   N18930691   1.759   1.710   3.364 -0.1747  0.3865  0.0136
  102MOL   H19030692   1.922   2.085   3.239  0.0081 -0.1670  0.2085
  102MOL   H19130693   1.978   1.948   3.327 -1.0278  0.4565  0.6987
  102MOL   H19230694   1.717   1.901   3.215 -0.2590  0.2713  0.5267
  102MOL   H19330695   1.817   1.939   3.605  0.1214 -0.4110  0.0737
  102MOL   H19430696   1.844   1.732   3.738 -1.3742  0.3488  0.9569
  102MOL   H19530697   1.776   1.524   3.652  1.0704  0.4924  1.1080
  102MOL   H19630698   1.723   1.504   3.417  1.0012 -0.0853  1.0451
  102MOL   C19730699   1.670   2.058   3.334 -0.5522 -0.0632 -0.0120
  102MOL   C19830700   1.530   2.009   3.392  0.8649 -0.2549 -0.4373
  102MOL   C19930701   1.445   2.127   3.439 -0.1587 -0.1836  0.8979
  102MOL   C20030702   1.399   2.134   3.571  0.3512  0.3211 -0.0923
  102MOL   C20130703   1.292   2.223   3.603 -0.5874  0.0663  0.3134
  102MOL   C20230704   1.246   2.309   3.504 -0.5296 -0.2297 -0.1618
  102MOL   C20330705   1.298   2.298   3.373 -0.0674 -0.6726 -0.5233
  102MOL   N20430706   1.395   2.209   3.343 -0.1277  0.5147  0.2751
  102MOL   H20530707   1.644   2.118   3.247  2.4830 -1.3222 -1.8602
  102MOL   H20630708   1.731   2.121   3.399 -0.3472 -0.6858  0.4151
  102MOL   H20730709   1.552   1.960   3.487 -2.6156 -0.9193  0.0891
  102MOL   H20830710   1.433   2.066   3.648  0.4450 -0.0203 -0.4330
  102MOL   H20930711   1.241   2.228   3.698 -0.2202  0.5633  0.4862
  102MOL   H21030712   1.173   2.386   3.520 -0.3121  0.4676 -2.3372
  102MOL   H21130713   1.275   2.370   3.295  2.5914  1.6917  0.7883
  102MOL   C21230714   1.443   1.910   3.296  0.1237  0.5728  0.1996
  102MOL   C21330715   1.335   1.819   3.369 -0.3390 -0.7604  0.0533
  102MOL   C21430716   1.290   1.708   3.272 -0.0193 -0.5304  0.1720
  102MOL   C21530717   1.381   1.608   3.247  0.3913  0.6691 -0.5121
  102MOL   C21630718   1.345   1.499   3.159  0.7788  0.3975  0.1610
  102MOL   C21730719   1.214   1.502   3.113 -0.3372  0.5344 -0.1857
  102MOL   C21830720   1.133   1.613   3.139  0.5083  0.1298 -0.3737
  102MOL   N21930721   1.163   1.710   3.225  0.3299  0.5294  0.1224
  102MOL   H22030722   1.522   1.842   3.264 -1.0293 -1.2683  1.1854
  102MOL   H22130723   1.406   1.953   3.203 -1.8918  1.0277  1.1834
  102MOL   H22230724   1.245   1.881   3.371 -0.4225 -0.8574 -0.5976
  102MOL   H22330725   1.480   1.601   3.290 -0.0377 -0.9594  0.2689
  102MOL   H22430726   1.419   1.423   3.142  0.0760  0.0116 -1.3181
  102MOL   H22530727   1.192   1.420   3.047 -1.3534  0.2781  0.4632
  102MOL   H22630728   1.031   1.618   3.103  0.6582  2.0028 -0.5377
  102MOL   C22730729   1.366   1.770   3.516  0.2906  0.0003  0.6335
  102MOL   C22830730   1.277   1.651   3.573 -0.2531 -0.0700  0.5781
  102MOL   C22930731   1.368   1.570   3.661  0.3947 -0.2141 -0.0161
  102MOL   C23030732   1.443   1.460   3.613  0.3320  0.4575 -0.8173
  102MOL   C23130733   1.541   1.404   3.693  0.0891 -0.2388  0.1140
  102MOL   C23230734   1.556   1.456   3.826  0.0934 -0.4156 -0.3085
  102MOL   C23330735   1.479   1.566   3.864 -0.2357 -0.9130 -0.1334
  102MOL   N23430736   1.390   1.623   3.782  0.1324 -0.0341  0.4681
  102MOL   H23530737   1.384   1.855   3.582  0.5260  2.4062 -2.4162
  102MOL   H23630738   1.469   1.734   3.509 -0.2254 -1.1531 -1.5874
  102MOL   H23730739   1.241   1.596   3.486  0.1443 -1.3536  1.2155
  102MOL   H23830740   1.428   1.418   3.514  0.0929 -1.8059  0.1402
  102MOL   H23930741   1.606   1.323   3.665  1.0091 -0.6461  3.1756
  102MOL   H24030742   1.616   1.415   3.906  1.4555  1.8379 -0.1367
  102MOL   H24130743   1.484   1.601   3.966 -0.0891  0.2206 -0.5251
  102MOL   C24230744   1.150   1.693   3.644 -0.8331  0.9024  0.5341
  102MOL   C24330745   1.064   1.580   3.695 -0.4668 -0.1320 -0.1097
  102MOL   C24430746   0.951   1.642   3.772  0.2338 -0.6967 -0.0554
  102MOL   C24530747   0.933   1.632   3.913  0.5485  0.6345  0.2113
  102MOL   C24630748   0.826   1.704   3.971  0.4132  0.6835 -1.0422
  102MOL   C24730749   0.732   1.780   3.888  0.1786  0.1004 -0.0474
  102MOL   C24830750   0.765   1.779   3.754  0.2073 -0.5079 -0.3716
  102MOL   N24930751   0.867   1.712   3.698  0.4817 -0.0005 -0.4924
  102MOL   H25030752   1.091   1.759   3.580 -0.3116  1.1602  0.3083
  102MOL   H25130753   1.183   1.760   3.724  1.2998  1.2557 -0.5957
  102MOL   H25230754   1.123   1.537   3.775 -0.7582  1.0314  0.7536
  102MOL   H25330755   1.002   1.571   3.969 -0.8114 -2.4669 -1.3361
  102MOL   H25430756   0.803   1.693   4.076  0.5340  0.8054 -1.0034
  102MOL   H25530757   0.638   1.819   3.924  1.6020  2.1567  1.5799
  102MOL   H25630758   0.695   1.841   3.699  0.8738  0.7988  0.2293
  102MOL   C25730759   1.022   1.465   3.598 -1.4398  0.3002 -0.5178
  102MOL   C25830760   0.941   1.361   3.669  0.0489 -0.1009  0.0835
  102MOL   C25930761   0.848   1.290   3.574 -0.1354 -0.1411 -0.4486
  102MOL   C26030762   0.707   1.308   3.591 -0.5710 -0.3165  0.2874
  102MOL   C26130763   0.624   1.247   3.504 -0.0763  0.1672  0.0747
  102MOL   C26230764   0.681   1.178   3.397 -0.0617  0.0446  0.1980
  102MOL   C26330765   0.818   1.169   3.383 -0.0373  0.0244 -0.1368
  102MOL   N26430766   0.901   1.226   3.470  0.2033 -0.1975 -0.4228
  102MOL   H26530767   1.109   1.429   3.543 -1.0488  1.6828 -0.8183
  102MOL   H26630768   0.950   1.505   3.526 -2.2227 -2.1932 -1.1772
  102MOL   H26730769   0.866   1.404   3.736  0.7674 -0.9720  1.4472
  102MOL   H26830770   0.667   1.365   3.675  0.6221  0.4119  0.3781
  102MOL   H26930771   0.517   1.249   3.515 -0.1088 -0.4513 -0.0804
  102MOL   H27030772   0.618   1.143   3.317 -2.8099 -0.6476  2.5736
  102MOL   H27130773   0.868   1.130   3.295  0.4090  1.9550 -0.7599
  102MOL   C27230774   1.040   1.269   3.742 -0.3013 -0.2406 -0.4458
  102MOL   C27330775   0.974   1.144   3.823  0.0725 -0.8556 -0.0138
  102MOL   C27430776   0.985   1.020   3.737 -0.1662  0.3671 -0.0571
  102MOL   C27530777   1.104   0.970   3.684 -0.5923  0.4564 -0.0007
  102MOL   C27630778   1.102   0.864   3.595  0.5495  0.9529  0.1055
  102MOL   C27730779   0.970   0.812   3.561 -0.4197  0.4261 -0.2071
  102MOL   C27830780   0.859   0.859   3.628 -0.1931  0.1249 -0.1798
  102MOL   N27930781   0.867   0.962   3.714 -0.3725 -0.0132  0.7749
  102MOL   H28030782   1.103   1.315   3.818  1.1510 -1.5278 -0.8501
  102MOL   H28130783   1.110   1.232   3.668 -0.1292 -2.0532  0.5855
  102MOL   H28230784   0.868   1.169   3.829 -1.0490 -5.0815 -0.7113
  102MOL   H28330785   1.193   1.024   3.715 -0.5496 -0.7564  2.0692
  102MOL   H28430786   1.187   0.819   3.546 -2.0427 -0.3383 -3.3691
  102MOL   H28530787   0.951   0.739   3.483 -0.4221  0.2785 -0.0694
  102MOL   H28630788   0.756   0.843   3.599 -0.5892 -1.2156  1.8287
  102MOL   C28730789   1.022   1.126   3.968  0.3880 -0.3996 -0.2726
  102MOL   C28830790   0.962   1.232   4.071 -0.2376 -0.3043  0.6461
  102MOL   C28930791   1.045   1.242   4.196 -0.4011  0.1876  0.1055
  102MOL   C29030792   1.004   1.165   4.308 -0.1632 -0.1073  0.3150
  102MOL   C29130793   1.077   1.180   4.428  0.2885  0.2883 -0.3767
  102MOL   C29230794   1.183   1.271   4.430 -0.4348  0.5986  0.3910
  102MOL   C29330795   1.211   1.348   4.316  0.2554 -0.0437  0.1425
  102MOL   N29430796   1.136   1.334   4.202  0.3638 -0.8791  0.5921
  102MOL   H29530797   1.129   1.141   3.962  0.2250  1.5358  1.0077
  102MOL   H29630798   0.996   1.027   4.004 -0.6808 -0.8805 -2.2952
  102MOL   H29730799   0.862   1.205   4.105 -1.4198  0.9134 -1.6724
  102MOL   H29830800   0.926   1.091   4.301 -0.5272  0.3651 -0.7518
  102MOL   H29930801   1.035   1.132   4.515 -0.1967  0.7844 -0.3319
  102MOL   H30030802   1.244   1.277   4.519  0.8519  2.1857 -0.5638
  102MOL   H30130803   1.290   1.421   4.322  0.4396  0.0248 -2.4715
  102MOL   H30230804   0.953   1.330   4.023  0.4527 -0.1366  0.8641
  103MOL     C130805   5.561   2.898   6.304 -0.0266  0.0024 -0.2740
  103MOL     C230806   5.481   3.023   6.297  0.8099 -0.0523 -0.7761
  103MOL     C330807   5.337   2.982   6.343  0.3738 -0.4406  0.7432
  103MOL     C430808   5.239   3.047   6.264  0.1168 -0.4729 -0.1180
  103MOL     C530809   5.105   3.030   6.305  0.1833  0.2274 -0.8817
  103MOL     C630810   5.075   2.962   6.420 -0.3882  0.7040 -0.7896
  103MOL     C730811   5.182   2.892   6.487 -0.0310 -0.4618 -0.5593
  103MOL     N830812   5.312   2.905   6.448 -0.1702  0.2440 -0.6470
  103MOL     H930813   5.657   2.901   6.253 -0.3889  0.5703 -0.9287
  103MOL    H1030814   5.567   2.854   6.404  1.9150  0.8661  0.0123
  103MOL    H1130815   5.481   3.044   6.191  1.8973  0.9654 -0.5735
  103MOL    H1230816   5.247   3.123   6.187 -0.4725 -0.9431 -0.6394
  103MOL    H1330817   5.021   3.084   6.265 -3.0140 -1.8358  2.6656
  103MOL    H1430818   4.974   2.951   6.458  0.6164 -0.4287  1.7162
  103MOL    H1530819   5.159   2.841   6.579  1.5678  0.0372  0.1256
  103MOL    H1630820   5.513   2.821   6.243  2.4556 -1.2099 -0.7616
  103MOL    C1730821   5.535   3.131   6.391 -0.4312 -0.3286  0.6448
  103MOL    C1830822   5.680   3.165   6.365  0.4949 -0.3062  0.4808
  103MOL    C1930823   5.707   3.213   6.224 -0.1858  0.4997  0.5077
  103MOL    C2030824   5.772   3.135   6.125  0.2985  0.0585 -0.2288
  103MOL    C2130825   5.797   3.193   5.997  0.2580  0.3226 -0.3099
  103MOL    C2230826   5.740   3.316   5.970 -0.0577 -0.1256  0.3553
  103MOL    C2330827   5.676   3.382   6.071  0.6919  0.0323  0.1030
  103MOL    N2430828   5.661   3.332   6.197 -0.1094 -0.1953  0.3177
  103MOL    H2530829   5.533   3.098   6.495 -1.2077  0.5515  0.9175
  103MOL    H2630830   5.466   3.214   6.375 -1.2789 -0.9288  1.1473
  103MOL    H2730831   5.743   3.076   6.364  1.4020  0.3180 -1.2866
  103MOL    H2830832   5.816   3.038   6.143  2.7589  1.0385 -0.8102
  103MOL    H2930833   5.854   3.135   5.925  1.5639 -0.2711  1.1864
  103MOL    H3030834   5.756   3.363   5.874 -2.6728 -0.6914 -0.4079
  103MOL    H3130835   5.638   3.483   6.057  0.0470 -0.6063 -3.2681
  103MOL    C3230836   5.750   3.254   6.470 -0.9865 -0.3598  0.0480
  103MOL    C3330837   5.803   3.182   6.595  0.1485  0.5556  0.3517
  103MOL    C3430838   5.914   3.080   6.558 -0.2875 -0.2476  0.3893
  103MOL    C3530839   5.897   2.948   6.595 -0.1334  0.4610 -0.0478
  103MOL    C3630840   5.988   2.855   6.538 -0.0449 -0.3231 -0.4743
  103MOL    C3730841   6.092   2.898   6.457  0.4329 -0.5406 -0.0878
  103MOL    C3830842   6.095   3.033   6.427  0.6476 -0.2880  0.1175
  103MOL    N3930843   6.007   3.125   6.470  0.1168  0.9109  0.0118
  103MOL    H4030844   5.683   3.336   6.497 -1.2160  0.5229 -3.0050
  103MOL    H4130845   5.837   3.305   6.430 -1.9132  2.1418  1.1110
  103MOL    H4230846   5.712   3.134   6.631  0.6755 -0.8236 -0.1408
  103MOL    H4330847   5.815   2.910   6.654  0.4418 -1.0505 -0.1824
  103MOL    H4430848   5.983   2.750   6.561 -0.2448 -0.1250  0.4104
  103MOL    H4530849   6.171   2.829   6.433  0.2347 -0.7951 -0.0145
  103MOL    H4630850   6.158   3.083   6.356 -1.8544  1.9227 -0.6510
  103MOL    C4730851   5.851   3.284   6.701 -0.4921 -0.1484  0.5150
  103MOL    C4830852   5.927   3.233   6.826 -0.3933  0.4323 -0.4665
  103MOL    C4930853   5.970   3.346   6.921 -0.3805  0.0631  1.0405
  103MOL    C5030854   5.912   3.477   6.923 -0.1505  0.6216 -0.7621
  103MOL    C5130855   5.954   3.566   7.020  0.2973 -0.1877  0.1031
  103MOL    C5230856   6.051   3.534   7.112  0.1513 -0.3994  0.7824
  103MOL    C5330857   6.108   3.406   7.097  0.2877  1.3227 -0.2559
  103MOL    N5430858   6.061   3.312   7.016  0.1046  0.1075 -0.1553
  103MOL    H5530859   5.771   3.350   6.734 -1.0478 -0.9863  0.8555
  103MOL    H5630860   5.926   3.352   6.659  0.2583 -1.4577 -0.2922
  103MOL    H5730861   6.017   3.183   6.791  0.3509  2.7741 -2.0229
  103MOL    H5830862   5.836   3.511   6.854 -0.6528  2.2428  0.5492
  103MOL    H5930863   5.915   3.667   7.023  1.7025  0.3294  2.6271
  103MOL    H6030864   6.087   3.613   7.177  1.8290 -1.1753  0.8376
  103MOL    H6130865   6.177   3.368   7.171 -0.2421  1.0248  0.0899
  103MOL    C6230866   5.841   3.140   6.912 -0.1371 -0.5195  0.8379
  103MOL    C6330867   5.725   3.195   6.992  0.2938 -0.0864 -0.1672
  103MOL    C6430868   5.609   3.246   6.908 -0.5034  0.4062 -0.2118
  103MOL    C6530869   5.574   3.379   6.897 -0.5174  0.2335 -0.1677
  103MOL    C6630870   5.466   3.418   6.815 -0.1322 -0.0931  0.1353
  103MOL    C6730871   5.383   3.324   6.756  0.0725  0.7318  0.7596
  103MOL    C6830872   5.419   3.188   6.781 -0.4292 -0.6306 -0.5421
  103MOL    N6930873   5.531   3.151   6.848  0.0306 -0.0630 -0.2143
  103MOL    H7030874   5.913   3.085   6.972 -0.3588 -0.6689  0.9649
  103MOL    H7130875   5.813   3.058   6.845 -1.5132  0.9995 -0.5030
  103MOL    H7230876   5.759   3.276   7.056 -0.5608  0.7699 -0.7803
  103MOL    H7330877   5.641   3.449   6.944  2.9308 -0.3176 -3.9881
  103MOL    H7430878   5.461   3.524   6.798  0.9315 -0.3585 -1.9476
  103MOL    H7530879   5.293   3.344   6.700  0.7910  1.3834 -0.1781
  103MOL    H7630880   5.365   3.115   6.724  0.3808 -2.5383  1.0786
  103MOL    C7730881   5.665   3.085   7.086 -0.2202 -0.3271  0.0512
  103MOL    C7830882   5.747   3.043   7.213 -0.3237  0.2987  0.2539
  103MOL    C7930883   5.752   3.158   7.318  0.0993  0.0633  0.0053
  103MOL    C8030884   5.860   3.250   7.301  0.9210  0.0399 -0.1093
  103MOL    C8130885   5.869   3.359   7.389 -0.4604  0.3098  0.9488
  103MOL    C8230886   5.772   3.372   7.488  0.1787 -0.3387 -0.4190
  103MOL    C8330887   5.663   3.281   7.487 -0.4481  0.4592  0.0700
  103MOL    N8430888   5.656   3.169   7.409  0.7231 -0.2192 -0.3549
  103MOL    H8530889   5.654   2.998   7.020  0.3173  1.0030 -1.8290
  103MOL    H8630890   5.568   3.121   7.121  0.2830  1.9155 -0.7479
  103MOL    H8730891   5.848   3.024   7.177 -1.0912 -2.0804 -0.7484
  103MOL    H8830892   5.935   3.242   7.225 -0.1788  0.2176 -1.2381
  103MOL    H8930893   5.955   3.425   7.385 -0.6399  0.4931  0.1478
  103MOL    H9030894   5.772   3.459   7.552 -0.8107 -0.6559  0.0144
  103MOL    H9130895   5.594   3.296   7.569  1.4684 -2.4987  2.3423
  103MOL    C9230896   5.697   2.911   7.277 -0.8454  0.0609  1.1377
  103MOL    C9330897   5.716   2.776   7.198  0.3196 -0.4906 -0.1950
  103MOL    C9430898   5.861   2.757   7.159 -0.0154 -0.2691  0.2630
  103MOL    C9530899   5.952   2.725   7.260  0.2594 -0.1211  0.3037
  103MOL    C9630900   6.083   2.708   7.214  0.4440 -0.1459 -0.0381
  103MOL    C9730901   6.124   2.714   7.079  0.1114  1.1048  0.5945
  103MOL    C9830902   6.019   2.754   6.993 -1.1976 -0.5719 -0.1235
  103MOL    N9930903   5.895   2.783   7.028  0.1904 -0.6510  0.7950
  103MOL   H10030904   5.595   2.917   7.314 -1.6874  1.4793 -1.3297
  103MOL   H10130905   5.749   2.894   7.371  2.3455 -2.0333 -0.8835
  103MOL   H10230906   5.665   2.791   7.102  0.6205  3.2143  0.1469
  103MOL   H10330907   5.931   2.709   7.365 -0.1124 -1.6577  0.0151
  103MOL   H10430908   6.157   2.690   7.291  1.1812  1.9256 -0.2365
  103MOL   H10530909   6.227   2.698   7.052 -0.1709 -0.1187  0.1894
  103MOL   H10630910   6.037   2.768   6.887 -1.9251 -0.4624 -0.2332
  103MOL   C10730911   5.654   2.656   7.272  0.5392 -0.3535  0.9144
  103MOL   C10830912   5.667   2.519   7.211  0.1630 -0.2135  0.2924
  103MOL   C10930913   5.812   2.450   7.227 -0.5805 -0.2967 -0.0401
  103MOL   C11030914   5.873   2.435   7.355  0.1376 -0.0130  0.2668
  103MOL   C11130915   6.001   2.380   7.366 -0.5246 -0.2974  0.0696
  103MOL   C11230916   6.074   2.350   7.251 -0.3562 -0.4537  0.5200
  103MOL   C11330917   6.010   2.371   7.126 -0.2117  0.1997 -0.0816
  103MOL   N11430918   5.884   2.417   7.116 -0.0715  0.0797 -0.3448
  103MOL   H11530919   5.549   2.686   7.264  1.4158  2.0087 -3.5803
  103MOL   H11630920   5.682   2.643   7.376  0.7360  0.4809  0.9664
  103MOL   H11730921   5.659   2.549   7.107  0.4061  2.4113  0.9953
  103MOL   H11830922   5.818   2.469   7.442  0.3021 -1.4201  0.9322
  103MOL   H11930923   6.051   2.385   7.462  1.3709  0.3221 -0.9202
  103MOL   H12030924   6.175   2.313   7.261 -0.5117 -0.5125  1.9345
  103MOL   H12130925   6.056   2.325   7.040  0.8578 -0.1641  0.6846
  103MOL   C12230926   5.553   2.411   7.237  0.3699 -0.6120  0.4551
  103MOL   C12330927   5.553   2.268   7.181  0.3723 -0.0059  0.5330
  103MOL   C12430928   5.655   2.185   7.259 -0.7064  0.2487  0.5451
  103MOL   C12530929   5.764   2.136   7.200  0.4801  0.0222  0.4418
  103MOL   C12630930   5.863   2.074   7.277 -0.0434  0.7839 -0.5064
  103MOL   C12730931   5.843   2.052   7.419 -0.3075  0.1807  0.2508
  103MOL   C12830932   5.717   2.098   7.468 -0.0433  0.1465 -0.2475
  103MOL   N12930933   5.632   2.167   7.387 -0.5722 -0.5416 -0.3205
  103MOL   H13030934   5.466   2.457   7.188  2.8722  2.0465 -1.6672
  103MOL   H13130935   5.531   2.395   7.342 -3.1725  0.6918 -0.0159
  103MOL   H13230936   5.582   2.256   7.076  1.5019 -3.9568  1.2409
  103MOL   H13330937   5.789   2.159   7.098 -0.4041  1.7727  0.6118
  103MOL   H13430938   5.958   2.047   7.234  0.6332  0.0037  1.4154
  103MOL   H13530939   5.919   2.015   7.485  1.8345  2.8681 -0.6104
  103MOL   H13630940   5.696   2.095   7.574  0.5698 -0.0760 -0.1304
  103MOL   C13730941   5.412   2.198   7.202 -0.2917  0.2033  0.0613
  103MOL   C13830942   5.390   2.048   7.180  0.6635  0.3985 -0.0188
  103MOL   C13930943   5.246   2.007   7.194 -0.0222  0.0615  0.2531
  103MOL   C14030944   5.147   2.055   7.102  0.1968 -0.5803 -0.0996
  103MOL   C14130945   5.009   2.017   7.125  0.1542 -0.2503 -0.2922
  103MOL   C14230946   4.988   1.941   7.243 -0.1414  0.3637 -0.3588
  103MOL   C14330947   5.098   1.889   7.315  0.2695  0.1203  0.2192
  103MOL   N14430948   5.221   1.926   7.296  0.1339  0.1424  0.0011
  103MOL   H14530949   5.348   2.261   7.139 -0.9289 -0.1120  0.3861
  103MOL   H14630950   5.370   2.225   7.299  1.9138  0.2597  1.0364
  103MOL   H14730951   5.445   2.007   7.265  1.4427 -2.0251 -1.6377
  103MOL   H14830952   5.164   2.112   7.012  1.7770 -0.4938  0.2412
  103MOL   H14930953   4.929   2.052   7.062  1.0020 -0.8691 -1.7233
  103MOL   H15030954   4.885   1.915   7.262  0.2970 -2.7139 -1.8270
  103MOL   H15130955   5.092   1.820   7.399  0.2036  0.1606  0.2472
  103MOL   C15230956   5.455   1.992   7.050  0.2445 -0.0679 -0.4662
  103MOL   C15330957   5.464   1.843   7.034  0.3019 -0.0704  0.5501
  103MOL   C15430958   5.422   1.807   6.895  0.3054 -0.8680  0.5060
  103MOL   C15530959   5.310   1.719   6.868 -0.3518  1.0397  0.2965
  103MOL   C15630960   5.282   1.687   6.735  0.0395  0.8166 -0.4592
  103MOL   C15730961   5.359   1.745   6.631  0.6509 -0.1163  0.3656
  103MOL   C15830962   5.467   1.825   6.666 -0.8622  0.5993 -0.4465
  103MOL   N15930963   5.500   1.861   6.795 -0.1985 -0.1749  0.1836
  103MOL   H16030964   5.558   2.030   7.051 -0.2851  1.4247 -0.6288
  103MOL   H16130965   5.399   2.030   6.965 -0.1798  0.2699 -0.0406
  103MOL   H16230966   5.386   1.800   7.097  1.2605  0.8094  2.3784
  103MOL   H16330967   5.269   1.668   6.954  1.2403  0.1686  0.5768
  103MOL   H16430968   5.203   1.617   6.711  1.2314  0.1625 -2.6720
  103MOL   H16530969   5.345   1.728   6.526  2.9209 -1.8745  0.3029
  103MOL   H16630970   5.535   1.857   6.589 -0.4103 -0.3412 -0.4479
  103MOL   C16730971   5.603   1.774   7.070  0.5218  0.2800 -0.7004
  103MOL   C16830972   5.638   1.754   7.218 -0.0775  0.4271  0.2201
  103MOL   C16930973   5.551   1.656   7.292 -0.5432 -0.1368  0.4630
  103MOL   C17030974   5.459   1.698   7.387 -0.6294 -0.3371 -0.4295
  103MOL   C17130975   5.392   1.595   7.460  0.4174  0.0050  0.7283
  103MOL   C17230976   5.424   1.460   7.438 -0.3661  0.2537 -0.1217
  103MOL   C17330977   5.506   1.434   7.330 -0.6109 -0.5732  0.2732
  103MOL   N17430978   5.570   1.527   7.256  0.5962  0.0627  0.1140
  103MOL   H17530979   5.684   1.823   7.017  0.3576  0.7078 -0.5614
  103MOL   H17630980   5.603   1.676   7.023  0.4319  0.7015 -1.5841
  103MOL   H17730981   5.612   1.849   7.264 -0.9206  1.9316 -3.1660
  103MOL   H17830982   5.441   1.802   7.409  0.0130 -0.6428  1.6515
  103MOL   H17930983   5.312   1.616   7.528 -0.3185 -1.3541  0.2872
  103MOL   H18030984   5.373   1.382   7.493  0.6128  0.3035  0.8742
  103MOL   H18130985   5.529   1.332   7.304 -1.6169 -0.6065 -0.4703
  103MOL   C18230986   5.784   1.721   7.245 -0.3708 -0.6655 -0.1317
  103MOL   C18330987   5.863   1.621   7.157 -1.0114  0.0202 -0.3453
  103MOL   C18430988   5.889   1.676   7.017 -0.2710 -0.4430 -0.3936
  103MOL   C18530989   5.825   1.614   6.910 -0.5602  0.9702  0.2224
  103MOL   C18630990   5.835   1.670   6.782 -0.1510 -0.0171 -0.1567
  103MOL   C18730991   5.905   1.795   6.771 -0.0464  0.5121 -0.3530
  103MOL   C18830992   5.962   1.850   6.883 -0.2264 -0.1859 -0.0499
  103MOL   N18930993   5.959   1.792   7.006  0.5240 -0.0543  0.1538
  103MOL   H19030994   5.793   1.688   7.349 -1.9170 -3.2018 -0.7683
  103MOL   H19130995   5.831   1.819   7.234 -1.0803 -0.0013  2.4180
  103MOL   H19230996   5.794   1.537   7.151 -0.3571 -0.5241 -0.2795
  103MOL   H19330997   5.776   1.518   6.921 -0.9337  0.8608 -2.1348
  103MOL   H19430998   5.792   1.627   6.693  1.7920  0.9869 -1.6207
  103MOL   H19530999   5.906   1.848   6.677  0.4914 -1.5096 -1.5191
  103MOL   H19631000   6.020   1.940   6.873  0.9289 -0.9613 -0.4522
  103MOL   C19731001   5.994   1.572   7.230 -0.0311 -0.1082  0.5492
  103MOL   C19831002   5.989   1.423   7.277 -0.2802  0.3141 -0.2989
  103MOL   C19931003   5.971   1.327   7.161  0.4219  0.3968 -0.8989
  103MOL   C20031004   5.883   1.217   7.168  0.0106  0.2387  0.2068
  103MOL   C20131005   5.874   1.123   7.057  0.0825  0.1559  0.2221
  103MOL   C20231006   5.969   1.144   6.957 -0.8050 -0.4771 -0.6154
  103MOL   C20331007   6.046   1.259   6.949 -0.1670  0.1585 -0.2406
  103MOL   N20431008   6.050   1.345   7.051  0.5050  0.0625 -0.0494
  103MOL   H20531009   6.010   1.632   7.320 -2.9187 -0.7890  1.5670
  103MOL   H20631010   6.090   1.592   7.182  1.2393 -1.0563  2.5836
  103MOL   H20731011   5.911   1.405   7.351  2.1019 -1.4454  1.8306
  103MOL   H20831012   5.834   1.193   7.262  3.1036 -2.9549  1.0993
  103MOL   H20931013   5.810   1.036   7.053 -0.5132  0.5761  0.5344
  103MOL   H21031014   5.980   1.063   6.886 -0.2008 -0.7160 -0.2522
  103MOL   H21131015   6.109   1.274   6.862 -0.0682 -0.0240 -0.2006
  103MOL   C21231016   6.113   1.387   7.364  0.0173 -0.6603  0.3278
  103MOL   C21331017   6.158   1.241   7.368  0.1037 -0.1548  0.5878
  103MOL   C21431018   6.308   1.241   7.383 -0.7474  0.1512 -0.1945
  103MOL   C21531019   6.390   1.224   7.271  0.0992  0.0767 -0.4478
  103MOL   C21631020   6.526   1.217   7.289 -0.5615  0.0623 -0.6950
  103MOL   C21731021   6.579   1.221   7.419  0.4976  0.3781 -0.6541
  103MOL   C21831022   6.490   1.249   7.525 -0.4830 -0.5812 -0.0027
  103MOL   N21931023   6.356   1.254   7.512 -0.2727  0.3090  0.2691
  103MOL   H22031024   6.117   1.426   7.466  1.9763  3.0462 -1.0670
  103MOL   H22131025   6.199   1.435   7.317 -2.2422  1.3899 -1.8180
  103MOL   H22231026   6.149   1.197   7.268 -3.2294 -2.2177  1.7246
  103MOL   H22331027   6.351   1.227   7.170 -0.0854 -0.4168 -0.3951
  103MOL   H22431028   6.587   1.210   7.200  1.0753 -2.1005  0.5207
  103MOL   H22531029   6.679   1.205   7.456 -0.6011 -2.4896  1.2755
  103MOL   H22631030   6.520   1.260   7.628  0.4666 -0.3702 -0.2972
  103MOL   C22731031   6.072   1.150   7.463  0.0100  1.0495  0.5995
  103MOL   C22831032   6.127   1.006   7.488 -0.0577  0.5391  0.0762
  103MOL   C22931033   6.098   0.968   7.630  0.4291 -0.0276 -0.3897
  103MOL   C23031034   6.212   0.919   7.704 -0.8230 -0.4652 -0.0589
  103MOL   C23131035   6.182   0.881   7.837 -0.2049 -0.0798 -0.7827
  103MOL   C23231036   6.054   0.905   7.896  1.1949 -0.3247  0.2734
  103MOL   C23331037   5.953   0.962   7.814  0.6422 -0.6206  0.2777
  103MOL   N23431038   5.975   0.991   7.684  0.4614  0.3386  0.1071
  103MOL   H23531039   5.967   1.152   7.434  0.1175  0.3137  0.1675
  103MOL   H23631040   6.067   1.194   7.562 -1.3437 -2.6476  2.2664
  103MOL   H23731041   6.233   1.009   7.463  0.3458  2.3283  1.8682
  103MOL   H23831042   6.308   0.902   7.659 -0.1322  1.3067  0.6866
  103MOL   H23931043   6.258   0.844   7.904 -1.1957  0.0761  0.4380
  103MOL   H24031044   6.049   0.885   8.002  0.8565  3.2880  1.0193
  103MOL   H24131045   5.858   0.978   7.863  1.9489  0.6474  2.4733
  103MOL   C24231046   6.063   0.902   7.387  0.3242  1.1323 -0.2633
  103MOL   C24331047   6.148   0.776   7.349  0.1653 -0.2228 -0.6788
  103MOL   C24431048   6.163   0.683   7.467 -0.1973  0.2423  0.4662
  103MOL   C24531049   6.288   0.635   7.509 -0.0357 -1.1725 -0.3808
  103MOL   C24631050   6.301   0.553   7.622 -1.0255  0.5093  0.2443
  103MOL   C24731051   6.184   0.512   7.685 -0.6033 -0.5019 -0.3376
  103MOL   C24831052   6.061   0.558   7.635  0.0253  0.2011  0.6335
  103MOL   N24931053   6.052   0.642   7.529 -0.2933 -0.0489 -0.3976
  103MOL   H25031054   6.038   0.951   7.293 -2.0049  0.8081  0.1429
  103MOL   H25131055   5.964   0.873   7.423  0.9052  2.6385  2.7336
  103MOL   H25231056   6.247   0.810   7.319 -0.5871  3.2084  0.5766
  103MOL   H25331057   6.374   0.659   7.449 -0.5295 -1.0747 -1.0552
  103MOL   H25431058   6.397   0.521   7.658  0.8889  2.8292 -2.6194
  103MOL   H25531059   6.180   0.456   7.778 -2.1172  0.1689  0.0033
  103MOL   H25631060   5.974   0.544   7.697  1.2121 -0.7843  2.0982
  103MOL   C25731061   6.073   0.699   7.232  0.5286 -0.1978 -0.4638
  103MOL   C25831062   6.149   0.569   7.185 -0.8087 -0.0555 -0.4707
  103MOL   C25931063   6.079   0.440   7.212  0.0475  0.0858 -0.0037
  103MOL   C26031064   6.116   0.360   7.317  0.0766  0.5000 -0.4491
  103MOL   C26131065   6.048   0.241   7.349 -0.1735 -0.5289  0.1406
  103MOL   C26231066   5.924   0.228   7.287 -0.8976  0.3649 -0.4681
  103MOL   C26331067   5.888   0.313   7.183  0.1040 -0.4479  0.4045
  103MOL   N26431068   5.970   0.408   7.139 -0.5780 -0.0907 -0.2478
  103MOL   H26531069   6.084   0.774   7.153  1.4333  0.9813  0.7620
  103MOL   H26631070   5.966   0.685   7.242  1.1466 -6.5165 -1.0949
  103MOL   H26731071   6.234   0.561   7.253 -0.2167  0.5605 -1.1221
  103MOL   H26831072   6.206   0.378   7.374 -1.5561  1.0097  2.0515
  103MOL   H26931073   6.083   0.176   7.428 -1.3542 -0.2778  0.9018
  103MOL   H27031074   5.861   0.145   7.319  0.0677 -0.6904 -1.2793
  103MOL   H27131075   5.800   0.292   7.123  1.4738 -2.0643 -1.1124
  103MOL   C27231076   6.222   0.578   7.047  0.6971 -0.3391 -0.4162
  103MOL   C27331077   6.274   0.451   6.979 -0.3551 -0.7963 -0.4417
  103MOL   C27431078   6.350   0.493   6.851  1.1937  0.0072  0.5266
  103MOL   C27531079   6.284   0.481   6.724  0.1076  0.1421 -0.4156
  103MOL   C27631080   6.351   0.530   6.613  0.3172  0.2154  0.0603
  103MOL   C27731081   6.481   0.581   6.633 -0.1133 -0.5355  0.2969
  103MOL   C27831082   6.535   0.587   6.759 -0.5631 -0.0372  0.1732
  103MOL   N27931083   6.469   0.542   6.864  0.2538  0.2355 -1.0989
  103MOL   H28031084   6.297   0.657   7.056  0.3334 -0.1443  1.0206
  103MOL   H28131085   6.162   0.626   6.969 -1.2648  0.9252  1.8020
  103MOL   H28231086   6.184   0.396   6.954 -0.2342 -0.9364 -0.5646
  103MOL   H28331087   6.184   0.441   6.720 -0.7286  2.2054 -0.4827
  103MOL   H28431088   6.298   0.543   6.520 -0.5805 -0.5925  0.4539
  103MOL   H28531089   6.533   0.614   6.544  2.7164  0.3781  2.2289
  103MOL   H28631090   6.631   0.635   6.773 -1.4830  1.6313  0.8710
  103MOL   C28731091   6.368   0.350   7.057  0.1884  0.1902  0.3730
  103MOL   C28831092   6.391   0.222   6.982  0.3511  0.0787 -0.8676
  103MOL   C28931093   6.490   0.135   7.061  0.2537  0.3739  0.4397
  103MOL   C29031094   6.429   0.031   7.131 -0.7985 -0.7990  0.3966
  103MOL   C29131095   6.516   8.106   7.209  0.5644  0.7178 -0.0155
  103MOL   C29231096   6.651   8.137   7.207 -0.1966 -0.2575  0.3580
  103MOL   C29331097   6.699   0.096   7.137  0.3105  0.0981 -0.4400
  103MOL   N29431098   6.621   0.163   7.055 -0.3732  0.0783  0.3755
  103MOL   H29531099   6.323   0.323   7.153 -0.7593 -0.5036 -0.2664
  103MOL   H29631100   6.456   0.412   7.075 -1.4428  2.4613  0.6488
  103MOL   H29731101   6.431   0.250   6.884 -2.2852 -0.7445 -2.2104
  103MOL   H29831102   6.323   0.012   7.131 -1.0585  0.5147 -0.8062
  103MOL   H29931103   6.486   8.024   7.273  1.1894  1.6402  1.4804
  103MOL   H30031104   6.723   8.081   7.266 -0.6318  0.3141  1.4556
  103MOL   H30131105   6.803   0.123   7.146  0.1706  0.1181  1.1714
  103MOL   H30231106   6.302   0.166   6.955  1.3659 -1.8736 -0.2253
  104MOL     C131107   7.767   0.425   2.612  0.1048 -0.3259  0.1266
  104MOL     C231108   7.837   0.347   2.499 -0.1320  0.0749  0.8229
  104MOL     C331109   7.749   0.256   2.415  0.2051  0.9793 -0.6446
  104MOL     C431110   7.697   0.301   2.300 -0.5331 -0.3034 -0.2582
  104MOL     C531111   7.607   0.224   2.233  0.4180  0.0179 -0.0617
  104MOL     C631112   7.564   0.099   2.278 -0.5175  0.7888  0.1995
  104MOL     C731113   7.632   0.057   2.399 -0.0734  0.6710 -0.0953
  104MOL     N831114   7.722   0.129   2.464  0.1511 -0.0399  0.0015
  104MOL     H931115   7.732   0.354   2.688 -5.6076  2.0379 -0.0534
  104MOL    H1031116   7.840   0.490   2.659  2.0172 -2.2244 -0.1702
  104MOL    H1131117   7.903   0.274   2.545  2.1375  0.8626 -1.0764
  104MOL    H1231118   7.716   0.403   2.271  1.1844 -0.9751 -1.5678
  104MOL    H1331119   7.569   0.265   2.140  1.0434  0.2946 -0.1975
  104MOL    H1431120   7.480   0.053   2.228 -1.2976  2.9347 -0.5086
  104MOL    H1531121   7.608   8.112   2.442  0.2350  1.2018  1.2842
  104MOL    H1631122   7.682   0.483   2.576  0.4151  0.5872  0.8269
  104MOL    C1731123   7.937   0.437   2.422 -0.2478  0.4519 -0.1683
  104MOL    C1831124   8.076   0.481   2.490 -0.6324  0.0200 -0.3363
  104MOL    C1931125   0.019   0.365   2.491  0.3658 -0.0346  0.4138
  104MOL    C2031126   0.046   0.295   2.609  0.3434  0.2863  0.1308
  104MOL    C2131127   0.118   0.175   2.596 -0.3511 -0.9592  0.3789
  104MOL    C2231128   0.170   0.143   2.472  0.0835  0.1245 -0.0252
  104MOL    C2331129   0.138   0.222   2.359 -1.0159 -0.4344 -0.0879
  104MOL    N2431130   0.067   0.333   2.368  0.1247 -0.0449  0.2269
  104MOL    H2531131   7.882   0.524   2.386  0.6354 -0.1969 -3.2276
  104MOL    H2631132   7.964   0.384   2.330 -1.1305 -1.8456  0.8362
  104MOL    H2731133   8.052   0.507   2.593  1.6639  2.3401 -0.3281
  104MOL    H2831134   0.006   0.338   2.699  0.7772 -0.2826  0.5947
  104MOL    H2931135   0.139   0.116   2.684  0.6786  0.3992  1.0680
  104MOL    H3031136   0.235   0.057   2.458 -0.2209 -0.3438  1.3660
  104MOL    H3131137   0.186   0.205   2.264 -0.7440 -1.7485  0.2655
  104MOL    C3231138   8.149   0.597   2.415 -0.5959 -0.1027 -0.0238
  104MOL    C3331139   8.082   0.737   2.434  0.5391 -0.8505  0.8886
  104MOL    C3431140   8.062   0.774   2.580  0.5994  0.0966 -0.2592
  104MOL    C3531141   7.932   0.793   2.632  0.0090  0.2744  0.1172
  104MOL    C3631142   7.916   0.840   2.765 -0.1630 -0.2264  0.0477
  104MOL    C3731143   8.035   0.858   2.836 -0.1671 -0.4764 -0.6956
  104MOL    C3831144   0.006   0.860   2.767 -0.3730  0.6158  0.7997
  104MOL    N3931145   0.026   0.805   2.647 -0.3305  0.0160  0.2078
  104MOL    H4031146   0.017   0.569   2.311 -1.1419  0.6976 -0.3444
  104MOL    H4131147   0.091   0.602   2.471 -0.3580  0.4173 -0.4687
  104MOL    H4231148   7.985   0.731   2.385  1.0308 -0.3649 -0.1664
  104MOL    H4331149   7.844   0.764   2.576  2.1877 -1.8479 -2.2972
  104MOL    H4431150   7.814   0.857   2.796 -0.1347 -0.2425  0.1455
  104MOL    H4531151   8.033   0.890   2.939 -1.2609 -0.8241 -0.6060
  104MOL    H4631152   0.096   0.899   2.813 -0.6079 -0.1350  1.9504
  104MOL    C4731153   8.151   0.844   2.342  0.0629 -0.5451  0.5275
  104MOL    C4831154   8.071   0.975   2.317  0.0592  0.0814 -0.9076
  104MOL    C4931155   7.931   0.961   2.261 -0.0055  0.2462  0.3829
  104MOL    C5031156   7.902   1.007   2.132  0.0823  0.1685 -0.9445
  104MOL    C5131157   7.768   0.989   2.085 -0.2931  0.1618 -0.0195
  104MOL    C5231158   7.670   0.926   2.174 -0.2321  1.1772  0.0108
  104MOL    C5331159   7.711   0.896   2.306  0.6076 -0.0547 -0.5280
  104MOL    N5431160   7.839   0.916   2.348  0.9778 -0.3087  0.3210
  104MOL    H5531161   0.022   0.796   2.247  0.8567 -0.1549  0.5177
  104MOL    H5631162   0.095   0.870   2.387 -0.7429  0.8538  1.4988
  104MOL    H5731163   8.119   1.016   2.229  0.7222  1.8853  0.2620
  104MOL    H5831164   7.977   1.053   2.069  0.3426 -1.6511 -1.9916
  104MOL    H5931165   7.729   1.000   1.985 -2.4464 -1.4312  0.5970
  104MOL    H6031166   7.564   0.907   2.160  0.3875 -0.2731 -3.2298
  104MOL    H6131167   7.636   0.862   2.376  1.4610  0.7459  0.7932
  104MOL    C6231168   8.087   1.066   2.446  0.6398 -0.7606 -0.9370
  104MOL    C6331169   8.047   1.222   2.440  0.0500  0.4712  0.3017
  104MOL    C6431170   8.085   1.284   2.578  0.3232 -0.0041  0.0586
  104MOL    C6531171   7.992   1.358   2.657  0.0161  0.2888  0.3254
  104MOL    C6631172   8.038   1.421   2.778 -0.0273  0.3302  0.7733
  104MOL    C6731173   0.019   1.393   2.813 -0.4509 -0.0422  0.0230
  104MOL    C6831174   0.102   1.320   2.732  0.0607 -0.5907  0.1954
  104MOL    N6931175   0.061   1.274   2.614  0.8327  0.4693  0.1871
  104MOL    H7031176   0.037   1.060   2.485 -0.0216 -1.1316  0.8183
  104MOL    H7131177   8.016   1.031   2.522 -1.5652  1.9837 -1.6870
  104MOL    H7231178   7.938   1.230   2.441  0.0231  0.0504  0.9921
  104MOL    H7331179   7.887   1.364   2.632  0.2703  0.5912 -0.6800
  104MOL    H7431180   7.974   1.473   2.847  0.8731 -1.0087  2.6593
  104MOL    H7531181   0.060   1.423   2.909 -2.4955  1.4616  0.4639
  104MOL    H7631182   0.206   1.302   2.752 -0.2643 -1.3892  1.2045
  104MOL    C7731183   8.111   1.300   2.325 -0.3132 -0.1652 -0.1304
  104MOL    C7831184   8.050   1.441   2.302  0.4589 -0.2044  0.6126
  104MOL    C7931185   8.132   1.502   2.181 -0.3296 -0.5932 -0.1261
  104MOL    C8031186   0.048   1.622   2.183 -0.0615  0.8694 -0.7109
  104MOL    C8131187   0.101   1.679   2.070 -0.5549  0.2222  0.3455
  104MOL    C8231188   0.098   1.599   1.955  0.8138  0.2737 -0.3408
  104MOL    C8331189   0.025   1.481   1.952  0.3890 -0.0758  0.3115
  104MOL    N8431190   8.127   1.430   2.065  0.9080 -0.1836 -0.0771
  104MOL    H8531191   8.082   1.245   2.235 -0.3630 -0.5482  0.1203
  104MOL    H8631192   0.068   1.294   2.330 -0.4158 -1.0646  1.2039
  104MOL    H8731193   8.072   1.498   2.392  0.5265  0.1822  0.3571
  104MOL    H8831194   0.057   1.676   2.276  0.1135 -0.9799  0.3695
  104MOL    H8931195   0.153   1.773   2.062  2.1155 -1.1242  1.2978
  104MOL    H9031196   0.142   1.624   1.859  2.8946  1.3097  0.8537
  104MOL    H9131197   0.002   1.420   1.866 -1.3022  1.5137 -0.4005
  104MOL    C9231198   7.891   1.445   2.274  0.8215 -0.3291 -0.4084
  104MOL    C9331199   7.841   1.573   2.201 -0.5608  0.2054 -0.1000
  104MOL    C9431200   7.700   1.563   2.145 -0.8298 -0.2856 -0.5282
  104MOL    C9531201   7.674   1.549   2.006  0.3108  0.8050 -0.0349
  104MOL    C9631202   7.536   1.546   1.966 -0.7060  0.2241 -0.1939
  104MOL    C9731203   7.439   1.556   2.059  0.1010  0.2879 -0.0117
  104MOL    C9831204   7.468   1.565   2.193 -0.0405 -0.0925  0.7996
  104MOL    N9931205   7.597   1.576   2.233  0.1867  0.5823 -0.3636
  104MOL   H10031206   7.833   1.437   2.367  1.7567  2.1528  0.4198
  104MOL   H10131207   7.868   1.354   2.219  0.2007 -0.5051  0.1318
  104MOL   H10231208   7.893   1.591   2.107 -0.9174 -0.2166 -0.3849
  104MOL   H10331209   7.742   1.555   1.923 -0.2741 -1.0789 -0.6839
  104MOL   H10431210   7.507   1.543   1.862 -2.7864 -1.1144  0.4000
  104MOL   H10531211   7.336   1.564   2.027  0.1563 -0.6161 -0.4320
  104MOL   H10631212   7.388   1.590   2.262  1.0667 -0.6333  2.2985
  104MOL   C10731213   7.864   1.694   2.296 -0.7485  0.2421 -0.7417
  104MOL   C10831214   7.837   1.835   2.243  0.0984  0.5024 -0.9648
  104MOL   C10931215   7.759   1.911   2.349  0.4733 -0.0669  0.8678
  104MOL   C11031216   7.652   1.991   2.304 -0.1530 -0.2090 -0.3598
  104MOL   C11131217   7.590   2.076   2.398 -0.2456  0.0949 -0.1755
  104MOL   C11231218   7.645   2.083   2.531  0.1198 -0.2626 -0.6673
  104MOL   C11331219   7.760   2.007   2.564 -0.6733 -0.1147  0.4526
  104MOL   N11431220   7.813   1.920   2.472 -0.2994 -0.4171  0.2761
  104MOL   H11531221   7.959   1.692   2.349 -0.6908 -1.9089 -0.9016
  104MOL   H11631222   7.792   1.677   2.376  2.0135 -0.1726  1.7446
  104MOL   H11731223   7.770   1.823   2.158  0.9287 -1.4664 -1.3727
  104MOL   H11831224   7.605   2.000   2.208 -1.7423  1.9153  0.5677
  104MOL   H11931225   7.510   2.139   2.362 -0.1878 -0.6327 -1.5668
  104MOL   H12031226   7.603   2.146   2.608  2.7846 -1.3073  1.7042
  104MOL   H12131227   7.793   2.006   2.667  0.4951  1.0594  0.0927
  104MOL   C12231228   7.979   1.905   2.189  0.2825  0.3855 -0.7552
  104MOL   C12331229   7.956   2.037   2.103 -0.1114 -0.2667  0.3581
  104MOL   C12431230   8.082   2.117   2.098 -0.8794 -0.0994  0.1065
  104MOL   C12531231   8.103   2.237   2.164  0.3903 -0.3461 -0.0974
  104MOL   C12631232   0.074   2.307   2.148 -0.0675  0.0857 -0.3932
  104MOL   C12731233   0.177   2.246   2.073  0.7708  0.0439 -0.0875
  104MOL   C12831234   0.148   2.126   2.009  0.2884  0.7883 -0.2435
  104MOL   N12931235   0.030   2.068   2.021  0.3206  0.3669  0.0200
  104MOL   H13031236   8.029   1.824   2.136 -0.2417 -0.2237 -0.3422
  104MOL   H13131237   8.042   1.940   2.271  0.5778 -1.5649 -0.1225
  104MOL   H13231238   7.888   2.094   2.165 -2.0543 -2.4765  0.3560
  104MOL   H13331239   8.023   2.291   2.212 -0.2536 -0.0034 -1.5309
  104MOL   H13431240   0.087   2.403   2.195  0.0789 -0.4671  0.7081
  104MOL   H13531241   0.274   2.289   2.058  0.8392  0.0522  0.3920
  104MOL   H13631242   0.220   2.072   1.950  1.5568  4.3844 -2.1409
  104MOL   C13731243   7.889   2.022   1.966 -0.1612 -0.2687  0.3485
  104MOL   C13831244   7.766   2.108   1.946 -0.2380  0.6722  0.6180
  104MOL   C13931245   7.784   2.252   1.986 -0.4942 -0.1835  0.0825
  104MOL   C14031246   7.868   2.343   1.919  0.2311  0.4707 -0.2502
  104MOL   C14131247   7.884   2.471   1.982  0.1047 -0.3822 -0.0978
  104MOL   C14231248   7.816   2.510   2.105 -0.4096  0.4203 -0.2930
  104MOL   C14331249   7.733   2.409   2.157 -0.1499  0.7381  0.1370
  104MOL   N14431250   7.719   2.284   2.098 -0.2874 -0.0500 -0.1150
  104MOL   H14531251   7.873   1.915   1.951  2.8606 -0.7471  0.3142
  104MOL   H14631252   7.963   2.058   1.895 -0.1559  0.1463  0.5607
  104MOL   H14731253   7.690   2.063   2.010 -1.1698  0.0658 -0.8869
  104MOL   H14831254   7.922   2.320   1.829  3.1460 -0.4963  1.6883
  104MOL   H14931255   7.948   2.543   1.933 -0.8318 -1.5271 -3.1707
  104MOL   H15031256   7.838   2.603   2.155  2.4719  0.5690 -1.7116
  104MOL   H15131257   7.690   2.435   2.252 -1.0240  1.9110 -0.5659
  104MOL   C15231258   7.706   2.097   1.807  0.0043 -0.0221 -0.0439
  104MOL   C15331259   7.642   1.963   1.771  0.3509 -0.2305 -0.1702
  104MOL   C15431260   7.511   1.947   1.850 -0.2499 -0.5223 -0.3434
  104MOL   C15531261   7.513   1.881   1.976  0.3793 -0.0833  0.2266
  104MOL   C15631262   7.389   1.876   2.046 -0.7163  0.0904 -0.5335
  104MOL   C15731263   7.279   1.940   1.988  0.0611  0.1554 -0.3947
  104MOL   C15831264   7.292   2.012   1.868  0.6277 -0.1250 -0.1701
  104MOL   N15931265   7.410   2.018   1.799 -0.3611  0.2366  0.3625
  104MOL   H16031266   7.795   2.109   1.746  1.3423 -1.6247  1.5302
  104MOL   H16131267   7.643   2.182   1.780 -0.2703  0.9723  3.4747
  104MOL   H16231268   7.721   1.894   1.802  0.8040 -0.1068 -1.0419
  104MOL   H16331269   7.599   1.838   2.026 -0.6228  0.3626  2.4017
  104MOL   H16431270   7.392   1.838   2.147 -1.5119  0.7718 -0.2495
  104MOL   H16531271   7.181   1.939   2.033  0.8137  4.4409  1.6272
  104MOL   H16631272   7.216   2.068   1.816 -0.7027 -1.0612  0.7436
  104MOL   C16731273   7.625   1.943   1.615 -0.1192 -0.5947  0.6937
  104MOL   C16831274   7.761   1.899   1.545 -0.2164 -0.4935  0.5009
  104MOL   C16931275   7.796   1.760   1.587 -0.0759  0.8363 -0.3866
  104MOL   C17031276   7.715   1.657   1.551 -0.6113  0.3961  0.1343
  104MOL   C17131277   7.747   1.524   1.593  0.3401 -0.4944 -0.2426
  104MOL   C17231278   7.853   1.510   1.687  0.0170 -0.3737 -0.8535
  104MOL   C17331279   7.930   1.627   1.715  0.2026  0.6725 -0.5562
  104MOL   N17431280   7.901   1.753   1.673  0.0961  0.1939 -0.1449
  104MOL   H17531281   7.585   2.034   1.571  1.0370 -0.5695 -0.3173
  104MOL   H17631282   7.557   1.858   1.607  0.5849 -1.3397  2.2699
  104MOL   H17731283   7.836   1.967   1.587  0.2327 -0.8170  0.2241
  104MOL   H17831284   7.647   1.661   1.467  1.2101  0.0757 -1.3809
  104MOL   H17931285   7.685   1.440   1.568 -0.8134  0.4801 -0.6911
  104MOL   H18031286   7.881   1.414   1.729  0.5603 -0.0547 -0.4778
  104MOL   H18131287   8.015   1.615   1.781 -1.3626 -1.3758  1.1716
  104MOL   C18231288   7.767   1.922   1.395  0.2053 -0.0540  0.1747
  104MOL   C18331289   7.895   1.884   1.313  0.5886  0.1811 -0.7048
  104MOL   C18431290   7.868   1.775   1.214  0.3385 -0.1068 -0.6309
  104MOL   C18531291   7.910   1.641   1.227 -0.1497 -0.3683 -0.2818
  104MOL   C18631292   7.890   1.550   1.120  0.3564 -0.8851  0.5950
  104MOL   C18731293   7.809   1.591   1.012  0.0047  0.1490 -0.5638
  104MOL   C18831294   7.759   1.721   1.017  0.1894 -0.4658  0.7806
  104MOL   N18931295   7.792   1.816   1.110  0.1935 -0.9317 -0.1165
  104MOL   H19031296   7.757   2.029   1.376 -1.0062 -0.2333 -0.2324
  104MOL   H19131297   7.679   1.881   1.345  0.3249 -1.3285  1.0031
  104MOL   H19231298   7.957   1.828   1.383  1.5836  0.9903 -0.9254
  104MOL   H19331299   7.971   1.615   1.313 -1.5859  2.7995  1.7754
  104MOL   H19431300   7.951   1.461   1.124  0.9426 -0.4974  0.4002
  104MOL   H19531301   7.785   1.538   0.922 -0.5386 -0.6370  0.0376
  104MOL   H19631302   7.687   1.754   0.943  3.5322  1.5064 -1.6979
  104MOL   C19731303   7.976   2.007   1.269 -0.3651 -0.2563  0.0563
  104MOL   C19831304   8.016   2.117   1.369 -0.1651 -0.2959  0.1879
  104MOL   C19931305   8.149   2.081   1.432  0.1436  0.0768 -0.6513
  104MOL   C20031306   0.003   2.022   1.564 -0.5723 -0.3696 -0.6902
  104MOL   C20131307   0.130   1.996   1.617 -0.3403  0.4261 -0.0620
  104MOL   C20231308   0.247   2.025   1.546  0.8871 -0.4262 -0.9131
  104MOL   C20331309   0.235   2.079   1.424 -1.0066 -0.2122 -0.1137
  104MOL   N20431310   0.114   2.097   1.362  0.2305  0.0931 -0.0637
  104MOL   H20531311   7.910   2.058   1.199 -0.6607  1.8742  1.8398
  104MOL   H20631312   8.061   1.971   1.211 -0.3629  0.1043 -0.1642
  104MOL   H20731313   7.949   2.122   1.455  1.2326  0.1414  1.2646
  104MOL   H20831314   8.065   2.001   1.620 -0.7326 -2.2276 -1.6019
  104MOL   H20931315   0.137   1.945   1.712 -0.4987  0.2362 -0.1504
  104MOL   H21031316   0.347   2.015   1.585  0.5880 -0.4301 -0.1462
  104MOL   H21131317   0.328   2.102   1.374 -0.8042  1.8665  1.1876
  104MOL   C21231318   8.034   2.258   1.300 -0.2159  0.4185  0.7619
  104MOL   C21331319   7.906   2.329   1.242 -0.3077  0.3394  0.3207
  104MOL   C21431320   7.787   2.321   1.334  1.3809  0.2850  0.3445
  104MOL   C21531321   7.795   2.347   1.470 -0.1639 -0.0476  0.5471
  104MOL   C21631322   7.680   2.343   1.551  0.5373  0.1863 -0.0408
  104MOL   C21731323   7.557   2.308   1.487  0.1945  0.2415 -0.4524
  104MOL   C21831324   7.557   2.291   1.347  0.4752  0.6255 -0.3503
  104MOL   N21931325   7.669   2.299   1.274 -0.6341 -0.7129  0.0616
  104MOL   H22031326   8.117   2.272   1.231 -1.9958  0.1847 -1.4726
  104MOL   H22131327   8.063   2.310   1.392  0.2528 -0.2520  0.9978
  104MOL   H22231328   7.880   2.285   1.145  1.5222  1.7787 -0.8656
  104MOL   H22331329   7.885   2.391   1.512  0.3846 -1.8655  1.3012
  104MOL   H22431330   7.676   2.380   1.652  0.4119 -1.9480  0.7655
  104MOL   H22531331   7.466   2.307   1.546  1.9190  0.2039  2.2833
  104MOL   H22631332   7.468   2.278   1.287  0.8475  0.7240 -0.9259
  104MOL   C22731333   7.922   2.475   1.192  0.0214 -0.5785 -0.2435
  104MOL   C22831334   8.041   2.501   1.098 -0.1215 -0.4866 -0.4111
  104MOL   C22931335   8.007   2.442   0.962  0.4450  0.0596 -0.2642
  104MOL   C23031336   8.088   2.354   0.891 -0.5056 -0.1096  0.3001
  104MOL   C23131337   8.054   2.322   0.758  0.2090  0.3193 -0.9218
  104MOL   C23231338   7.926   2.369   0.708 -0.2122  0.4079  0.2485
  104MOL   C23331339   7.841   2.446   0.789  0.8859  0.4173  0.7491
  104MOL   N23431340   7.891   2.495   0.904 -1.3452 -0.0389  0.1496
  104MOL   H23531341   7.948   2.536   1.279  1.4552  1.0969 -1.7980
  104MOL   H23631342   7.827   2.516   1.157  0.5419  1.5346  0.6866
  104MOL   H23731343   8.131   2.450   1.133 -0.1190 -0.9487 -1.0699
  104MOL   H23831344   0.031   2.315   0.925 -0.6087  0.1460  0.8841
  104MOL   H23931345   8.115   2.255   0.699  1.4110  0.5843  0.0123
  104MOL   H24031346   7.901   2.356   0.604  1.9031  0.5973 -0.3017
  104MOL   H24131347   7.759   2.502   0.746  0.8564  1.2182  1.8230
  104MOL   C24231348   8.074   2.656   1.095 -0.7721 -0.2108 -0.4818
  104MOL   C24331349   8.149   2.711   0.973  0.4977  1.5247  0.0374
  104MOL   C24431350   0.008   2.856   0.982  0.7061  0.4872  0.2182
  104MOL   C24531351   8.089   2.937   0.890 -0.1409 -0.1181 -0.3571
  104MOL   C24631352   8.094   3.076   0.900 -0.1318  0.0635  0.2712
  104MOL   C24731353   0.018   3.123   1.010 -0.1327  0.5166  0.1495
  104MOL   C24831354   0.081   3.037   1.101  0.4390 -0.2696 -0.2265
  104MOL   N24931355   0.073   2.905   1.087  0.2061  0.5638 -0.0158
  104MOL   H25031356   8.142   2.668   1.180 -0.9198 -1.4739 -0.1864
  104MOL   H25131357   7.989   2.723   1.106  0.4102  1.2135  0.2426
  104MOL   H25231358   8.087   2.686   0.887 -1.7822  3.0145  1.2059
  104MOL   H25331359   8.032   2.891   0.810  1.3423 -1.0656 -0.8951
  104MOL   H25431360   8.035   3.142   0.837 -0.3007  1.1739  1.5677
  104MOL   H25531361   0.037   3.228   1.024 -0.7207  0.5838  0.4555
  104MOL   H25631362   0.127   3.081   1.189  1.3021 -1.9876  0.2030
  104MOL   C25731363   0.139   2.656   0.957  0.0303  0.2550 -0.4851
  104MOL   C25831364   0.206   2.684   0.822 -1.1522 -0.1878 -0.1963
  104MOL   C25931365   0.344   2.738   0.838  0.2916  0.3672 -0.4330
  104MOL   C26031366   0.368   2.868   0.775  0.0938  0.3315 -0.0878
  104MOL   C26131367   0.494   2.926   0.783  0.6445  0.2255  0.2632
  104MOL   C26231368   0.587   2.856   0.857  0.3076  0.5476  0.2049
  104MOL   C26331369   0.565   2.729   0.914  0.0306  0.2568 -0.1841
  104MOL   N26431370   0.440   2.673   0.908 -0.7036  0.2319  0.4822
  104MOL   H26531371   0.126   2.548   0.958  0.8824  0.1491 -0.1686
  104MOL   H26631372   0.204   2.686   1.039  1.8852  0.3775 -1.9682
  104MOL   H26731373   0.155   2.765   0.771  1.3765  1.1164 -0.7409
  104MOL   H26831374   0.291   2.924   0.723  2.0296  1.6948 -1.5793
  104MOL   H26931375   0.511   3.019   0.730 -0.5493  0.2212 -0.1506
  104MOL   H27031376   0.683   2.905   0.863  0.1398  0.8063  0.8806
  104MOL   H27131377   0.647   2.679   0.963 -0.0428 -1.1508 -1.4603
  104MOL   C27231378   0.202   2.558   0.727 -0.3742  0.6851 -0.3694
  104MOL   C27331379   0.267   2.570   0.592 -0.5807 -0.0450 -0.1206
  104MOL   C27431380   0.417   2.546   0.599  0.2244 -0.3282 -0.0555
  104MOL   C27531381   0.509   2.634   0.541  0.7030  0.6315  0.1931
  104MOL   C27631382   0.646   2.609   0.556 -0.2592  0.5110  0.3211
  104MOL   C27731383   0.683   2.492   0.624 -0.5064  0.5893  0.5596
  104MOL   C27831384   0.585   2.409   0.682  0.2404 -0.5252 -0.5504
  104MOL   N27931385   0.453   2.430   0.659  0.5435 -0.3335 -0.3313
  104MOL   H28031386   0.100   2.525   0.706  0.5918 -3.6122  1.1783
  104MOL   H28131387   0.248   2.478   0.785 -3.0639  0.5703  1.6734
  104MOL   H28231388   0.251   2.672   0.558  0.7764  0.5814  1.0790
  104MOL   H28331389   0.476   2.723   0.489  0.5124  0.3263 -0.2068
  104MOL   H28431390   0.725   2.675   0.522 -0.4763  1.2487  1.2168
  104MOL   H28531391   0.785   2.459   0.638 -0.5237 -0.5719 -1.7641
  104MOL   H28631392   0.607   2.310   0.721 -1.4401 -0.7681 -0.1549
  104MOL   C28731393   0.195   2.495   0.473  0.9250 -0.3383 -0.1152
  104MOL   C28831394   0.044   2.499   0.456  0.8877 -0.3529  0.3795
  104MOL   C28931395   8.151   2.640   0.467 -0.8980 -1.0381 -0.0686
  104MOL   C29031396   8.046   2.665   0.554  0.0683 -0.2601  0.2002
  104MOL   C29131397   7.981   2.791   0.545  0.1136  0.3380 -0.3107
  104MOL   C29231398   8.029   2.892   0.469  0.5936 -0.0025  0.2820
  104MOL   C29331399   8.140   2.866   0.397  0.0713  0.3965 -0.1491
  104MOL   N29431400   0.045   2.741   0.385  0.6964  0.6071 -0.1833
  104MOL   H29531401   0.220   2.393   0.499  0.9620  0.1765  1.9799
  104MOL   H29631402   0.249   2.519   0.381  0.4681  3.9363  0.6086
  104MOL   H29731403   8.142   2.440   0.530 -1.4510 -0.1783 -1.1209
  104MOL   H29831404   8.002   2.589   0.617 -2.8197  2.0523  1.0905
  104MOL   H29931405   7.905   2.795   0.622 -0.1426 -1.0004 -0.4854
  104MOL   H30031406   7.984   2.991   0.471  0.3257 -0.1195  0.0960
  104MOL   H30131407   0.016   2.940   0.323 -0.8746 -0.0840 -1.0032
  104MOL   H30231408   0.019   2.466   0.355  1.8071  1.4089 -0.4700
  105MOL     C131409   1.579   0.523   5.124 -0.3298 -0.1914 -0.0291
  105MOL     C231410   1.480   0.530   5.005  0.5468  0.3573 -0.0913
  105MOL     C331411   1.364   0.434   5.022  0.4214 -0.4195  0.0906
  105MOL     C431412   1.244   0.471   5.093 -0.4208 -0.3891  0.0446
  105MOL     C531413   1.141   0.372   5.109 -0.9923  0.1497 -1.0102
  105MOL     C631414   1.155   0.250   5.040  0.6129 -0.2904 -0.3160
  105MOL     C731415   1.279   0.230   4.975  0.4736  0.0841 -0.0315
  105MOL     N831416   1.385   0.314   4.971 -0.3859 -0.1863  0.6130
  105MOL     H931417   1.667   0.580   5.093 -0.3221 -1.1809 -1.9158
  105MOL    H1031418   1.533   0.549   5.219 -2.0136  3.0206 -1.6351
  105MOL    H1131419   1.529   0.495   4.914  1.2837  0.5902  0.2099
  105MOL    H1231420   1.244   0.565   5.146  0.0322 -0.2079 -0.2732
  105MOL    H1331421   1.054   0.383   5.172 -0.3499 -1.7520  0.2492
  105MOL    H1431422   1.078   0.175   5.046 -0.5061  0.6759 -2.1966
  105MOL    H1531423   1.295   0.127   4.946  1.4330 -0.0483  0.9677
  105MOL    H1631424   1.614   0.420   5.125 -2.4179 -0.9389  2.3321
  105MOL    C1731425   1.439   0.678   4.963 -0.5146 -0.1974 -0.0569
  105MOL    C1831426   1.338   0.685   4.841 -0.0941  0.3432  0.0596
  105MOL    C1931427   1.308   0.834   4.810  0.7329 -0.1000  0.0612
  105MOL    C2031428   1.188   0.896   4.845  0.3191 -0.4961 -0.7651
  105MOL    C2131429   1.172   1.038   4.832 -0.6419  0.2506 -0.1066
  105MOL    C2231430   1.277   1.107   4.778 -0.1116 -0.4507 -0.8277
  105MOL    C2331431   1.389   1.039   4.742  0.0827  0.1455  0.4697
  105MOL    N2431432   1.408   0.903   4.750  0.2268 -0.2030 -0.6583
  105MOL    H2531433   1.526   0.740   4.944 -1.5691  1.3054 -0.0302
  105MOL    H2631434   1.402   0.728   5.053  3.0231  0.1573  1.2734
  105MOL    H2731435   1.249   0.631   4.873 -0.0965  0.8374  0.8854
  105MOL    H2831436   1.110   0.846   4.900  1.3307  1.6489  2.7821
  105MOL    H2931437   1.083   1.079   4.877 -0.0282  0.2476  1.1377
  105MOL    H3031438   1.277   1.215   4.772 -3.6563 -0.0820  3.3285
  105MOL    H3131439   1.470   1.100   4.707 -0.8400  0.3321 -1.3957
  105MOL    C3231440   1.397   0.614   4.715 -0.2885  0.3370  0.0407
  105MOL    C3331441   1.307   0.631   4.593  0.9660 -0.1339 -0.1948
  105MOL    C3431442   1.375   0.624   4.464 -0.1229  0.5256  0.2717
  105MOL    C3531443   1.374   0.728   4.366  0.0178 -0.3092  0.0983
  105MOL    C3631444   1.459   0.718   4.257  0.5255  0.1268  0.7987
  105MOL    C3731445   1.541   0.602   4.244  0.4561  0.3909  0.3848
  105MOL    C3831446   1.539   0.512   4.342 -0.0198 -0.5428  0.4457
  105MOL    N3931447   1.465   0.521   4.457  0.3151 -0.2627  0.3256
  105MOL    H4031448   1.410   0.507   4.727 -0.4711  0.1714 -1.2556
  105MOL    H4131449   1.496   0.657   4.697 -0.0471 -0.2447 -0.0332
  105MOL    H4231450   1.257   0.728   4.589  2.8826  0.9189  0.6245
  105MOL    H4331451   1.319   0.818   4.386 -0.1804 -0.7875  1.8097
  105MOL    H4431452   1.460   0.794   4.181  2.9470 -1.2649 -0.6183
  105MOL    H4531453   1.595   0.587   4.151  0.3546 -1.6665  0.6485
  105MOL    H4631454   1.615   0.436   4.333 -0.9766 -1.1710 -2.9900
  105MOL    C4731455   1.189   0.523   4.592 -0.1982  0.1169  0.2612
  105MOL    C4831456   1.080   0.534   4.480  0.0172  0.6051  0.3542
  105MOL    C4931457   1.005   0.407   4.459  0.7620 -0.4717 -0.6464
  105MOL    C5031458   1.049   0.312   4.367 -0.0299  0.7873 -0.0982
  105MOL    C5131459   0.984   0.191   4.349  0.2027  0.3250  0.2188
  105MOL    C5231460   0.869   0.171   4.428  0.0101  0.2061 -0.6540
  105MOL    C5331461   0.818   0.278   4.513 -0.3909 -0.1970 -0.0215
  105MOL    N5431462   0.893   0.393   4.530 -0.2424  0.1788  0.0007
  105MOL    H5531463   1.135   0.519   4.686 -0.4383 -1.7871  0.0659
  105MOL    H5631464   1.222   0.419   4.585  1.6569  0.7430 -0.7518
  105MOL    H5731465   1.138   0.550   4.389  0.2521  1.0130  0.5710
  105MOL    H5831466   1.142   0.331   4.316  0.1493  0.0924 -0.0250
  105MOL    H5931467   1.039   0.115   4.295 -0.5971  1.6666 -2.5747
  105MOL    H6031468   0.811   0.081   4.414 -2.1159  1.1151  1.8343
  105MOL    H6131469   0.733   0.258   4.575 -0.0730  1.0984  0.8412
  105MOL    C6231470   0.992   0.657   4.511 -0.5752 -0.4773 -0.1764
  105MOL    C6331471   0.904   0.692   4.390 -0.2135 -0.6385  0.3231
  105MOL    C6431472   0.799   0.799   4.435 -0.5092 -0.1629 -0.0203
  105MOL    C6531473   0.664   0.767   4.412 -0.6768 -0.0753  0.2701
  105MOL    C6631474   0.567   0.868   4.444 -0.0803 -0.0016 -0.4035
  105MOL    C6731475   0.614   0.984   4.504 -0.1140 -0.1479 -0.2488
  105MOL    C6831476   0.749   1.010   4.512  0.0264  0.7157  0.8716
  105MOL    N6931477   0.843   0.919   4.479  0.8925  0.3909  0.2595
  105MOL    H7031478   1.049   0.746   4.536 -0.6416 -0.3986 -0.3045
  105MOL    H7131479   0.930   0.633   4.598  1.0400 -0.7908  0.9050
  105MOL    H7231480   0.848   0.605   4.355 -2.2049  1.1093 -0.9508
  105MOL    H7331481   0.629   0.677   4.363  0.3709  0.2283 -1.0747
  105MOL    H7431482   0.464   0.840   4.432 -0.0479  0.5250 -2.0815
  105MOL    H7531483   0.543   1.063   4.525  0.2172 -1.0086  4.8094
  105MOL    H7631484   0.783   1.112   4.523  3.5311 -0.2060 -0.8485
  105MOL    C7731485   0.993   0.749   4.272 -0.5484  0.4691  0.6902
  105MOL    C7831486   1.022   0.650   4.158  0.1809  0.0852  0.3078
  105MOL    C7931487   0.897   0.628   4.066  0.1484  0.2518  0.1067
  105MOL    C8031488   0.834   0.497   4.055  0.0361  0.5202  0.3316
  105MOL    C8131489   0.711   0.483   3.985 -0.8658  0.1328  1.4378
  105MOL    C8231490   0.665   0.600   3.916 -0.3220 -0.2462  0.4177
  105MOL    C8331491   0.739   0.719   3.929  0.0268 -0.2871 -0.5664
  105MOL    N8431492   0.849   0.739   4.003 -0.7704  0.4974  0.0409
  105MOL    H8531493   1.085   0.787   4.316  1.7899 -1.8166 -2.0957
  105MOL    H8631494   0.932   0.827   4.227 -0.5794 -0.4193 -0.8380
  105MOL    H8731495   1.039   0.547   4.188  0.4767 -0.6880 -2.3538
  105MOL    H8831496   0.870   0.409   4.106  0.6422  0.6004  0.0507
  105MOL    H8931497   0.649   0.395   3.980 -0.5218 -0.0063 -0.9213
  105MOL    H9031498   0.577   0.596   3.854  1.0505  1.6595 -1.7330
  105MOL    H9131499   0.696   0.806   3.881  0.9758 -0.2764 -1.4291
  105MOL    C9231500   1.152   0.685   4.069 -0.1955 -0.7342  0.9246
  105MOL    C9331501   1.197   0.585   3.962  0.3742  0.0127  0.0850
  105MOL    C9431502   1.304   0.639   3.869 -0.6762 -0.8039 -0.0250
  105MOL    C9531503   1.290   0.629   3.733 -1.0822 -0.7871  0.1877
  105MOL    C9631504   1.393   0.671   3.650  0.3764  0.3678 -0.5985
  105MOL    C9731505   1.518   0.707   3.702  0.2350 -0.1759 -0.0510
  105MOL    C9831506   1.521   0.720   3.842 -0.5025 -0.0604 -0.4341
  105MOL    N9931507   1.421   0.686   3.923  0.3630  0.7146 -1.1601
  105MOL   H10031508   1.231   0.721   4.135  0.3725  0.5574 -0.4414
  105MOL   H10131509   1.128   0.783   4.028 -0.9900 -1.9091 -1.5259
  105MOL   H10231510   1.110   0.567   3.900  1.3651 -1.1286 -0.9907
  105MOL   H10331511   1.204   0.588   3.682 -1.1092 -0.1028 -0.3214
  105MOL   H10431512   1.383   0.654   3.544  2.9160 -0.8835 -0.6858
  105MOL   H10531513   1.601   0.738   3.640 -0.9800  1.2382 -1.0018
  105MOL   H10631514   1.613   0.745   3.892 -1.4908  0.4053  1.1502
  105MOL   C10731515   1.236   0.456   4.035  0.3580  0.1384  0.1576
  105MOL   C10831516   1.306   0.343   3.948  0.7522  0.5985  0.1194
  105MOL   C10931517   1.443   0.303   4.006 -0.5449  0.0168  0.0489
  105MOL   C11031518   1.564   0.349   3.954 -0.5953 -0.2890  0.2446
  105MOL   C11131519   1.684   0.312   4.014  0.0982 -0.4696 -1.0438
  105MOL   C11231520   1.685   0.218   4.125  0.3415 -0.0041  0.5022
  105MOL   C11331521   1.554   0.188   4.170  0.0838  0.0417  0.0044
  105MOL   N11431522   1.433   0.226   4.119 -0.4665  0.5800  0.9363
  105MOL   H11531523   1.147   0.408   4.077 -0.8539  3.5268  1.6312
  105MOL   H11631524   1.308   0.477   4.115  2.4440  1.2369 -1.9370
  105MOL   H11731525   1.330   0.383   3.850  1.4479 -1.1563 -0.4406
  105MOL   H11831526   1.559   0.418   3.872 -1.5355 -0.5933  0.0366
  105MOL   H11931527   1.782   0.341   3.978  0.9505 -1.0250  0.7571
  105MOL   H12031528   1.780   0.182   4.161  0.0606  0.1904  1.4469
  105MOL   H12131529   1.550   0.110   4.245 -0.7282 -0.4032 -0.5020
  105MOL   C12231530   1.221   0.221   3.917 -0.5428  0.2463 -0.2161
  105MOL   C12331531   1.092   0.222   3.833 -0.0390 -0.1249 -0.1635
  105MOL   C12431532   1.133   0.253   3.686 -0.2370  0.7682 -0.2140
  105MOL   C12531533   1.086   0.370   3.622 -0.3366 -0.1395  0.4780
  105MOL   C12631534   1.113   0.391   3.486  0.0918 -0.4367  0.3150
  105MOL   C12731535   1.193   0.294   3.420  0.4408 -0.6263 -0.3460
  105MOL   C12831536   1.230   0.176   3.491  0.1689 -0.2619  0.6071
  105MOL   N12931537   1.204   0.157   3.621 -0.4659 -0.2342  0.8232
  105MOL   H13031538   1.197   0.185   4.017  1.3938  0.5239  0.3666
  105MOL   H13131539   1.286   0.144   3.877 -0.8096 -1.3586  2.3121
  105MOL   H13231540   1.036   0.310   3.863  0.0807 -0.2582  0.4663
  105MOL   H13331541   1.032   0.442   3.680  1.0660  0.3153  1.2505
  105MOL   H13431542   1.081   0.470   3.420 -0.4708 -0.6705  0.3034
  105MOL   H13531543   1.227   0.306   3.319  1.0945 -0.7399 -0.1439
  105MOL   H13631544   1.288   0.105   3.434  0.6463  1.2594 -0.8418
  105MOL   C13731545   1.005   0.103   3.841 -0.0053 -0.5418 -0.0374
  105MOL   C13831546   0.888   0.098   3.745  0.1768  0.7842  0.2535
  105MOL   C13931547   0.816   8.118   3.763  0.5590  0.1810 -0.0348
  105MOL   C14031548   0.705   8.109   3.845 -0.2135  0.2093 -0.0419
  105MOL   C14131549   0.633   7.984   3.855  0.3704 -0.7122  1.0631
  105MOL   C14231550   0.678   7.876   3.774  0.1531  0.5300  0.2561
  105MOL   C14331551   0.792   7.897   3.695  0.3778 -0.0874  0.0209
  105MOL   N14431552   0.856   8.017   3.688 -0.0088  0.0780 -0.1142
  105MOL   H14531553   0.970   0.106   3.944  0.2353 -0.5910  0.0456
  105MOL   H14631554   1.063   0.011   3.834 -1.8061 -1.8132  1.0064
  105MOL   H14731555   0.933   0.088   3.647  3.5427  0.9898  1.7235
  105MOL   H14831556   0.674   0.041   3.905  0.2939  1.2838 -1.2399
  105MOL   H14931557   0.548   7.978   3.921 -0.5196 -0.7863 -0.0644
  105MOL   H15031558   0.628   7.781   3.776 -0.0771  0.6647  2.0311
  105MOL   H15131559   0.833   7.817   3.635  1.2543  0.3574  0.0144
  105MOL   C15231560   0.793   0.219   3.748 -0.5016 -0.3945 -0.5400
  105MOL   C15331561   0.681   0.225   3.639  0.4777 -0.2891  1.0697
  105MOL   C15431562   0.542   0.228   3.701  0.5491  0.0972  0.5613
  105MOL   C15531563   0.447   0.134   3.668  0.6514 -0.5949 -0.0730
  105MOL   C15631564   0.321   0.138   3.730 -0.1488 -0.3711 -0.0216
  105MOL   C15731565   0.308   0.227   3.834  0.2068  0.6858  0.0990
  105MOL   C15831566   0.407   0.320   3.864  0.7551  0.0234 -0.6539
  105MOL   N15931567   0.521   0.316   3.801 -0.7135  0.7975  0.4949
  105MOL   H16031568   0.853   0.311   3.751  2.0843 -2.0689  0.6227
  105MOL   H16131569   0.751   0.222   3.848  1.6735 -4.1194  0.5846
  105MOL   H16231570   0.681   0.134   3.579  0.1380  0.9009 -0.7825
  105MOL   H16331571   0.467   0.058   3.594  0.5670 -3.4248  2.7236
  105MOL   H16431572   0.247   0.060   3.722 -1.2812  0.5659  1.2568
  105MOL   H16531573   0.215   0.243   3.886 -1.9275 -0.4121 -3.2597
  105MOL   H16631574   0.389   0.393   3.941  3.0821 -0.0203 -0.0264
  105MOL   C16731575   0.708   0.346   3.547  1.1231  0.0849  0.2334
  105MOL   C16831576   0.590   0.392   3.465 -0.4114 -0.9090  0.2564
  105MOL   C16931577   0.629   0.536   3.406 -0.4817  0.2519  0.2341
  105MOL   C17031578   0.568   0.652   3.450  0.3273 -0.0926 -0.3266
  105MOL   C17131579   0.603   0.776   3.394  0.6271  0.8796 -0.2455
  105MOL   C17231580   0.701   0.776   3.294  0.6331  0.3285  0.4571
  105MOL   C17331581   0.753   0.654   3.250  0.9749 -0.4361 -0.6186
  105MOL   N17431582   0.721   0.538   3.306  0.1159  0.1844  0.0424
  105MOL   H17531583   0.806   0.344   3.500  0.9774 -0.4864 -0.0604
  105MOL   H17631584   0.712   0.432   3.613 -1.2732  0.2748  0.1902
  105MOL   H17731585   0.504   0.417   3.527  0.1968  2.6519 -0.2267
  105MOL   H17831586   0.496   0.649   3.530  1.3528 -2.0396  0.5722
  105MOL   H17931587   0.548   0.865   3.423 -0.0994  0.3700 -0.0398
  105MOL   H18031588   0.732   0.868   3.248  2.7522 -0.9761 -0.7914
  105MOL   H18131589   0.828   0.648   3.171 -0.1724  3.4540 -2.1047
  105MOL   C18231590   0.538   0.284   3.360  0.7719 -0.5195  0.0732
  105MOL   C18331591   0.441   0.341   3.256 -0.5764  0.1616 -0.6050
  105MOL   C18431592   0.398   0.234   3.150 -0.4229  0.1664 -0.3083
  105MOL   C18531593   0.460   0.232   3.025  0.5325  0.3002 -0.4710
  105MOL   C18631594   0.411   0.141   2.930 -0.1264  0.4153 -0.1479
  105MOL   C18731595   0.307   0.057   2.966 -0.5369 -0.0287  0.6478
  105MOL   C18831596   0.256   0.063   3.091 -0.1699 -0.1796  0.0884
  105MOL   N18931597   0.296   0.158   3.180 -0.2715  0.3077 -0.3353
  105MOL   H19031598   0.481   0.217   3.424  1.2597 -0.5475  0.4901
  105MOL   H19131599   0.617   0.233   3.304 -0.6324 -0.9323 -1.5566
  105MOL   H19231600   0.497   0.420   3.206  0.3767  1.4135  2.3349
  105MOL   H19331601   0.539   0.302   3.001 -0.0635  0.4413 -2.0773
  105MOL   H19431602   0.452   0.135   2.830  1.5989  0.0139  0.5621
  105MOL   H19531603   0.256   0.004   2.887  1.4335  0.3450 -0.9335
  105MOL   H19631604   0.169   0.007   3.121  0.2045 -0.3765  0.8265
  105MOL   C19731605   0.322   0.418   3.329 -0.4480  0.3086 -0.4243
  105MOL   C19831606   0.198   0.459   3.246  0.3116  0.3339 -0.4930
  105MOL   C19931607   0.107   0.540   3.342  0.5161  0.0399  0.6589
  105MOL   C20031608   8.123   0.524   3.342 -0.7212  0.0546 -0.0097
  105MOL   C20131609   8.037   0.611   3.408 -0.2558  1.1751  0.2935
  105MOL   C20231610   8.096   0.717   3.477 -0.6030  0.2320  0.5908
  105MOL   C20331611   0.085   0.731   3.467  0.2454  0.0181 -0.2183
  105MOL   N20431612   0.162   0.647   3.399 -0.4132 -0.3544 -0.3825
  105MOL   H20531613   0.357   0.511   3.373 -0.6519 -0.3238  1.0898
  105MOL   H20631614   0.276   0.355   3.405  1.2151  0.6457  0.8740
  105MOL   H20731615   0.147   0.368   3.214  1.1470  0.1507 -1.3217
  105MOL   H20831616   8.078   0.449   3.278 -0.7868  0.4993 -0.4923
  105MOL   H20931617   7.930   0.599   3.407 -0.0306 -0.9934 -0.0440
  105MOL   H21031618   8.037   0.791   3.528 -1.2684 -1.6760  2.6583
  105MOL   H21131619   0.133   0.813   3.519 -0.1211  0.1741 -0.1281
  105MOL   C21231620   0.225   0.533   3.111  0.6842 -0.3165 -0.3679
  105MOL   C21331621   0.184   0.454   2.986  0.1645  0.1054 -0.4465
  105MOL   C21431622   0.034   0.421   2.980  0.2727 -0.3307  0.3281
  105MOL   C21531623   8.144   0.290   3.008 -0.2541  0.1936 -0.3248
  105MOL   C21631624   8.006   0.265   3.007 -0.4364 -0.4063 -0.0879
  105MOL   C21731625   7.920   0.371   2.967  0.5391 -0.0162  0.6233
  105MOL   C21831626   7.971   0.500   2.942 -0.0044 -0.4366  0.7276
  105MOL   N21931627   8.101   0.522   2.947  0.0868 -0.5338  0.2145
  105MOL   H22031628   0.332   0.554   3.109  0.6090  0.7169  3.1066
  105MOL   H22131629   0.173   0.628   3.111  3.3945  1.2123 -1.2485
  105MOL   H22231630   0.225   0.354   2.977 -0.5012 -0.0744 -1.6360
  105MOL   H22331631   0.060   0.215   3.045 -2.9976 -0.6122  3.3862
  105MOL   H22431632   7.964   0.167   3.023 -3.1306  1.1163  2.6412
  105MOL   H22531633   7.814   0.355   2.983  1.3419 -2.5213  4.1517
  105MOL   H22631634   7.903   0.580   2.919 -0.4034  0.0749  3.4642
  105MOL   C22731635   0.230   0.529   2.864 -0.3285 -0.7573  0.0079
  105MOL   C22831636   0.380   0.523   2.828  0.4610 -0.9136 -0.4410
  105MOL   C22931637   0.400   0.458   2.690 -0.6528  0.2300 -0.0128
  105MOL   C23031638   0.333   0.511   2.577  0.0531 -0.3384  0.0705
  105MOL   C23131639   0.354   0.448   2.454 -0.3297 -0.1053 -0.4287
  105MOL   C23231640   0.435   0.331   2.454  0.8630 -0.0385 -0.4571
  105MOL   C23331641   0.496   0.286   2.571 -0.7047  0.1922 -0.0129
  105MOL   N23431642   0.480   0.352   2.686  0.7246  0.4729 -0.1804
  105MOL   H23531643   0.194   0.632   2.871  0.9229 -0.3493  0.5864
  105MOL   H23631644   0.182   0.480   2.780  2.1678 -0.9155 -1.3613
  105MOL   H23731645   0.434   0.462   2.901  2.6717  0.0338 -1.2191
  105MOL   H23831646   0.264   0.593   2.591  1.3895  0.8687 -0.3648
  105MOL   H23931647   0.284   0.474   2.375 -1.0415  0.9315  0.5267
  105MOL   H24031648   0.449   0.271   2.365 -0.1597 -1.1193  0.0883
  105MOL   H24131649   0.550   0.192   2.573 -0.9597  0.0559  0.6407
  105MOL   C24231650   0.450   0.660   2.843 -0.8211 -0.0854 -0.2217
  105MOL   C24331651   0.599   0.673   2.795  0.1926  0.7457  0.2287
  105MOL   C24431652   0.648   0.817   2.802 -0.3332  0.1200 -0.7901
  105MOL   C24531653   0.664   0.888   2.685  0.0053 -0.4005 -0.2630
  105MOL   C24631654   0.696   1.029   2.697 -0.3126 -0.3935  1.0320
  105MOL   C24731655   0.715   1.087   2.821  0.5788 -1.2901 -0.2823
  105MOL   C24831656   0.686   1.005   2.932  0.7908 -0.0739 -0.0425
  105MOL   N24931657   0.655   0.877   2.926  0.3438  0.1321  0.5344
  105MOL   H25031658   0.436   0.694   2.946  0.8066  0.9596 -0.3211
  105MOL   H25131659   0.395   0.739   2.793 -0.5173  1.1043  1.2570
  105MOL   H25231660   0.600   0.635   2.693 -0.6709 -2.6111  1.4003
  105MOL   H25331661   0.636   0.850   2.589 -1.0509  2.2533 -1.0532
  105MOL   H25431662   0.718   1.085   2.607  0.7725  0.6569  1.9318
  105MOL   H25531663   0.749   1.190   2.821 -2.1309 -0.3507 -0.9630
  105MOL   H25631664   0.701   1.041   3.032  2.4304  0.0094 -0.2979
  105MOL   C25731665   0.697   0.575   2.871  0.7100 -0.1320 -0.4523
  105MOL   C25831666   0.838   0.554   2.813  0.1370 -0.1418 -1.1813
  105MOL   C25931667   0.929   0.680   2.807 -0.2806  0.5193 -0.0849
  105MOL   C26031668   0.992   0.713   2.685  0.2612 -0.0332 -0.5528
  105MOL   C26131669   1.078   0.823   2.680  0.1296 -0.2042  0.5892
  105MOL   C26231670   1.104   0.896   2.802  0.2357  0.3843 -0.1218
  105MOL   C26331671   1.034   0.852   2.919 -0.3123  0.5451 -0.0355
  105MOL   N26431672   0.956   0.739   2.926  0.0053 -0.3444 -0.3589
  105MOL   H26531673   0.646   0.481   2.851 -0.7745  0.5533  0.0831
  105MOL   H26631674   0.698   0.602   2.977 -1.3335  0.4568 -0.5712
  105MOL   H26731675   0.819   0.520   2.711 -0.1689 -0.1198 -1.1310
  105MOL   H26831676   0.976   0.653   2.597  0.8468 -1.9844  0.6304
  105MOL   H26931677   1.125   0.843   2.584 -0.2630  1.3170  0.7003
  105MOL   H27031678   1.175   0.977   2.797  1.0237 -0.3622 -1.2718
  105MOL   H27131679   1.056   0.912   3.006  4.7742  2.7451 -2.6235
  105MOL   C27231680   0.918   0.447   2.894  0.5774 -1.1235 -0.5325
  105MOL   C27331681   0.882   0.301   2.854 -0.8945 -0.3185 -0.1480
  105MOL   C27431682   0.925   0.275   2.707 -0.4765  0.1791  0.5832
  105MOL   C27531683   1.057   0.282   2.669 -0.3369  0.1963  0.0329
  105MOL   C27631684   1.086   0.285   2.532  0.5851 -0.0650  0.6837
  105MOL   C27731685   0.986   0.261   2.436 -0.0061 -0.2952 -0.4464
  105MOL   C27831686   0.858   0.251   2.486  0.0341  0.0371  0.3616
  105MOL   N27931687   0.826   0.264   2.613  0.1143 -0.2273 -0.1070
  105MOL   H28031688   0.905   0.464   3.001  1.6854 -1.0306 -0.4022
  105MOL   H28131689   1.025   0.464   2.881 -0.0958  2.3628 -2.1385
  105MOL   H28231690   0.773   0.306   2.855 -0.9955 -1.9788 -1.0356
  105MOL   H28331691   1.148   0.296   2.725  0.4582 -0.7018 -1.0056
  105MOL   H28431692   1.191   0.292   2.505  0.9705 -0.6251  2.0119
  105MOL   H28531693   1.009   0.267   2.331  1.0243 -0.4729 -0.2451
  105MOL   H28631694   0.780   0.256   2.412  2.1156 -0.1606 -1.9031
  105MOL   C28731695   0.937   0.195   2.948 -0.5301  0.3060  0.6138
  105MOL   C28831696   0.899   0.209   3.098 -0.4323 -0.9120  0.4909
  105MOL   C28931697   0.955   0.090   3.172 -0.4333 -0.1956 -0.0975
  105MOL   C29031698   0.863   0.012   3.246 -0.0378  0.4528  0.2880
  105MOL   C29131699   0.920   8.063   3.328  0.1550  0.5521  0.0308
  105MOL   C29231700   1.053   8.036   3.319  0.0513  0.3150  0.6254
  105MOL   C29331701   1.135   8.112   3.238 -0.1978 -0.8645 -0.8244
  105MOL   N29431702   1.092   0.064   3.171  0.3392 -0.9001  0.3112
  105MOL   H29531703   1.046   0.188   2.946 -0.6170 -2.3405  2.3765
  105MOL   H29631704   0.908   0.095   2.916  0.6434  0.2491 -0.2887
  105MOL   H29731705   0.791   0.204   3.108 -0.1883 -0.9885  3.6194
  105MOL   H29831706   0.758   0.032   3.254  0.1036  0.2321  3.7437
  105MOL   H29931707   0.861   8.002   3.395 -0.3666  1.4702  0.4181
  105MOL   H30031708   1.102   7.959   3.376  0.5420  0.1976  0.0517
  105MOL   H30131709   1.238   8.092   3.212 -0.4538 -1.4201 -1.4061
  105MOL   H30231710   0.943   0.300   3.140 -2.2095 -0.4353  1.3538
  106MOL     C131711   4.178   4.395   4.958 -0.0070 -0.9326 -0.8388
  106MOL     C231712   4.104   4.268   4.922 -0.2298  0.1991  0.0971
  106MOL     C331713   4.052   4.196   5.046  0.4165  0.1858  0.0781
  106MOL     C431714   4.059   4.058   5.051 -0.1345  0.0788  0.1395
  106MOL     C531715   3.997   3.990   5.164 -0.6655  0.0321 -0.7242
  106MOL     C631716   3.923   4.067   5.255  0.8388  0.1579  0.5356
  106MOL     C731717   3.925   4.206   5.240  0.1171  0.0110  0.1227
  106MOL     N831718   3.989   4.274   5.145 -0.2052  0.5405  0.2170
  106MOL     H931719   4.272   4.397   5.013 -1.8308  0.9008  2.3523
  106MOL    H1031720   4.195   4.447   4.864 -0.4046 -1.0908 -1.0007
  106MOL    H1131721   4.169   4.198   4.869  2.2809  2.1573  0.4851
  106MOL    H1231722   4.118   4.001   4.981 -1.6745  0.2653 -1.3353
  106MOL    H1331723   3.993   3.885   5.189 -2.1316  0.3230  0.3129
  106MOL    H1431724   3.867   4.022   5.336  1.0403 -1.2529 -0.0989
  106MOL    H1531725   3.882   4.265   5.319 -0.9821 -0.5164 -0.0804
  106MOL    H1631726   4.119   4.464   5.018  1.9258  0.1296 -0.1196
  106MOL    C1731727   3.994   4.301   4.812  0.4315 -0.0560 -0.1507
  106MOL    C1831728   3.860   4.371   4.853  0.0256  0.5685 -0.0693
  106MOL    C1931729   3.874   4.518   4.903 -0.1615  0.3035 -0.7942
  106MOL    C2031730   3.828   4.555   5.031  0.0147  0.3734 -0.0863
  106MOL    C2131731   3.834   4.691   5.053 -0.0472  0.6455 -0.3546
  106MOL    C2231732   3.899   4.780   4.961  0.3089  0.2092  0.0213
  106MOL    C2331733   3.938   4.727   4.841 -0.6154  0.0187 -0.1237
  106MOL    N2431734   3.926   4.598   4.813 -0.8150 -0.7508  0.8740
  106MOL    H2531735   3.962   4.200   4.787 -3.3748  1.1997 -0.7163
  106MOL    H2631736   4.026   4.344   4.718 -1.6263  1.6060 -0.1347
  106MOL    H2731737   3.830   4.318   4.943 -0.5122 -1.6053 -1.4781
  106MOL    H2831738   3.787   4.489   5.106 -1.1081  0.7217 -0.3850
  106MOL    H2931739   3.805   4.737   5.147  0.0879  2.4720 -1.1775
  106MOL    H3031740   3.914   4.883   4.990 -2.2696 -0.0306  2.4090
  106MOL    H3131741   3.990   4.785   4.766 -1.1064  2.4429  1.3405
  106MOL    C3231742   3.749   4.348   4.747 -0.7347  0.9347 -0.2261
  106MOL    C3331743   3.605   4.349   4.811 -0.3530 -0.2495  0.1494
  106MOL    C3431744   3.502   4.414   4.716  0.4305  0.2272  0.1179
  106MOL    C3531745   3.409   4.510   4.766  0.1446 -1.1880  0.2185
  106MOL    C3631746   3.317   4.569   4.682  0.0079 -0.5396  0.0268
  106MOL    C3731747   3.310   4.520   4.548  0.0241  0.3960 -0.6731
  106MOL    C3831748   3.400   4.423   4.505 -0.5096 -0.7170 -0.1524
  106MOL    N3931749   3.500   4.374   4.584  0.4342 -0.2604 -0.1026
  106MOL    H4031750   3.756   4.255   4.690 -0.6070  1.5906 -1.2987
  106MOL    H4131751   3.756   4.430   4.675 -1.6386  2.9551  1.9370
  106MOL    H4231752   3.621   4.425   4.887  1.2990  0.4088 -0.8440
  106MOL    H4331753   3.414   4.541   4.870 -0.2784 -0.3317 -0.0113
  106MOL    H4431754   3.248   4.645   4.715 -0.6111 -1.9138  2.0032
  106MOL    H4531755   3.236   4.556   4.477 -0.7996  1.5763  0.7597
  106MOL    H4631756   3.396   4.386   4.403  2.5064 -1.2672 -0.1260
  106MOL    C4731757   3.560   4.213   4.856  0.4177 -0.6155  0.3633
  106MOL    C4831758   3.437   4.206   4.948 -0.1943  0.2432 -0.0966
  106MOL    C4931759   3.367   4.071   4.930  0.1703  1.0352 -0.0214
  106MOL    C5031760   3.249   4.063   4.852  0.5695 -0.3351  0.8753
  106MOL    C5131761   3.187   3.938   4.850  0.1909 -0.0513  0.2027
  106MOL    C5231762   3.238   3.832   4.930 -0.1224  0.5062 -0.3848
  106MOL    C5331763   3.353   3.848   5.006  0.0940  0.2038  0.6893
  106MOL    N5431764   3.412   3.974   5.010  0.1810 -0.3208 -0.1039
  106MOL    H5531765   3.642   4.166   4.910  1.2465  0.6835  0.2780
  106MOL    H5631766   3.527   4.151   4.773  1.1292  0.3602 -0.6762
  106MOL    H5731767   3.366   4.273   4.901  0.5635  0.5700 -0.7821
  106MOL    H5831768   3.225   4.132   4.773  1.2760 -2.6205 -1.4216
  106MOL    H5931769   3.095   3.912   4.799  1.0375  1.6121 -2.2587
  106MOL    H6031770   3.191   3.736   4.916 -2.9018  1.2854  2.9865
  106MOL    H6131771   3.393   3.773   5.074  0.3463  1.5980  2.1219
  106MOL    C6231772   3.475   4.241   5.094 -0.2891 -0.0867 -0.3389
  106MOL    C6331773   3.361   4.277   5.193  0.3281 -0.0600  0.0615
  106MOL    C6431774   3.262   4.366   5.125  0.1378  0.0452 -1.1334
  106MOL    C6531775   3.263   4.505   5.143 -0.0629  0.2930 -0.0949
  106MOL    C6631776   3.176   4.589   5.074 -0.2679 -0.1683  0.4842
  106MOL    C6731777   3.096   4.533   4.975 -0.0778 -0.0682 -1.1221
  106MOL    C6831778   3.095   4.391   4.964  0.0727 -0.3176 -0.0466
  106MOL    N6931779   3.174   4.310   5.036 -0.0506  0.1985  0.3953
  106MOL    H7031780   3.544   4.323   5.076 -0.1546 -0.2020 -0.3505
  106MOL    H7131781   3.545   4.167   5.134  1.6366  0.3706 -2.7306
  106MOL    H7231782   3.397   4.345   5.271  0.0234  1.0564 -0.7640
  106MOL    H7331783   3.333   4.550   5.212 -1.9374 -0.4767  2.4107
  106MOL    H7431784   3.166   4.695   5.094  0.3944 -0.1328  0.6380
  106MOL    H7531785   3.033   4.588   4.907 -2.1438 -1.3042 -0.2490
  106MOL    H7631786   3.045   4.331   4.889  2.2286 -2.2253 -0.0330
  106MOL    C7731787   3.291   4.158   5.262 -0.8558 -0.0039 -0.5585
  106MOL    C7831788   3.384   4.068   5.353  0.3101  0.0146  0.0344
  106MOL    C7931789   3.468   4.145   5.448 -0.1170 -0.4147 -0.5056
  106MOL    C8031790   3.602   4.116   5.462 -0.8200 -1.7701  0.2144
  106MOL    C8131791   3.666   4.171   5.569 -0.0128  0.0768  0.0251
  106MOL    C8231792   3.597   4.249   5.661 -0.0748 -0.1377 -0.0648
  106MOL    C8331793   3.465   4.287   5.631 -0.1538  0.4816  0.4753
  106MOL    N8431794   3.399   4.236   5.525  0.2210  0.4685 -0.0973
  106MOL    H8531795   3.246   4.098   5.183  0.2064 -0.9914 -0.4172
  106MOL    H8631796   3.203   4.184   5.321 -0.4516 -0.1488  0.1055
  106MOL    H8731797   3.464   4.022   5.295  1.3339  1.8324 -0.0256
  106MOL    H8831798   3.652   4.054   5.389 -0.7538  0.9149 -2.1411
  106MOL    H8931799   3.772   4.157   5.582  0.2261  2.5234  0.9464
  106MOL    H9031800   3.648   4.285   5.750  3.3570  1.5660 -2.5846
  106MOL    H9131801   3.411   4.342   5.707  1.2280  0.7890  1.2552
  106MOL    C9231802   3.304   3.953   5.422  0.1287 -0.2310  0.6340
  106MOL    C9331803   3.386   3.862   5.512 -0.2549  0.2441  0.6271
  106MOL    C9431804   3.289   3.797   5.610 -0.1485 -0.1476  0.6781
  106MOL    C9531805   3.305   3.797   5.752 -0.4791 -0.7096  0.0166
  106MOL    C9631806   3.217   3.732   5.834 -0.2315  0.3235 -0.0077
  106MOL    C9731807   3.108   3.668   5.778  0.2465 -0.0341  0.3017
  106MOL    C9831808   3.095   3.666   5.638 -0.7902 -0.4238 -0.7105
  106MOL    N9931809   3.186   3.730   5.559 -0.2356 -0.3067 -0.2944
  106MOL   H10031810   3.248   3.891   5.353  1.0226  1.7189 -1.9074
  106MOL   H10131811   3.224   4.000   5.479 -0.3436  0.8100 -0.8879
  106MOL   H10231812   3.458   3.924   5.566 -1.2113  1.0933  0.9445
  106MOL   H10331813   3.393   3.848   5.790 -0.8189 -2.1549  2.8471
  106MOL   H10431814   3.235   3.738   5.940  2.4105  0.6546 -0.4625
  106MOL   H10531815   3.048   3.610   5.846  0.4627 -1.5518 -0.7697
  106MOL   H10631816   3.022   3.606   5.586 -1.8566  0.3084 -0.0756
  106MOL   C10731817   3.468   3.754   5.432  0.8574 -0.7817 -0.5635
  106MOL   C10831818   3.573   3.674   5.524  0.5966 -0.1202  0.7642
  106MOL   C10931819   3.583   3.526   5.483  0.2284  0.4140  0.1257
  106MOL   C11031820   3.562   3.427   5.578 -0.1692  0.5853  1.1163
  106MOL   C11131821   3.592   3.295   5.542 -0.6471  0.3327 -1.1429
  106MOL   C11231822   3.636   3.266   5.411 -0.3369  0.4322  0.7513
  106MOL   C11331823   3.665   3.370   5.328 -0.0514 -0.8625  0.5903
  106MOL   N11431824   3.645   3.502   5.363 -0.0690  0.1660  0.3189
  106MOL   H11531825   3.526   3.780   5.344  0.3970 -1.8651 -1.1880
  106MOL   H11631826   3.385   3.691   5.400  0.8604  0.1258 -2.4015
  106MOL   H11731827   3.529   3.658   5.622 -1.3407 -0.4839 -0.1347
  106MOL   H11831828   3.511   3.455   5.669  0.0200 -1.8636  2.0107
  106MOL   H11931829   3.577   3.207   5.602 -0.0723  0.8158 -0.2887
  106MOL   H12031830   3.655   3.163   5.383  0.2233  0.8329 -0.3365
  106MOL   H12131831   3.722   3.352   5.238  2.6760  0.9572  1.9013
  106MOL   C12231832   3.704   3.760   5.535  0.3244 -0.9298  0.3387
  106MOL   C12331833   3.803   3.705   5.632  0.0175 -0.2904  0.2870
  106MOL   C12431834   3.913   3.634   5.561  0.6580  0.0572  0.4443
  106MOL   C12531835   3.930   3.498   5.557  0.2246  0.2127  0.5623
  106MOL   C12631836   4.020   3.440   5.464  0.0705 -0.4556 -0.0102
  106MOL   C12731837   4.098   3.526   5.386 -0.2594 -0.7741  0.2875
  106MOL   C12831838   4.077   3.667   5.398  0.0539 -0.0731  0.0703
  106MOL   N12931839   3.976   3.714   5.473 -0.3313 -0.3320 -0.2275
  106MOL   H13031840   3.691   3.862   5.572 -0.5783 -1.2126  0.8069
  106MOL   H13131841   3.743   3.764   5.433  0.1404  1.1646  0.3147
  106MOL   H13231842   3.758   3.631   5.699  0.6236 -0.0019  1.0237
  106MOL   H13331843   3.870   3.433   5.620 -2.5041  1.9621 -0.1432
  106MOL   H13431844   4.035   3.334   5.452 -0.5244 -1.1388  4.3338
  106MOL   H13531845   4.178   3.492   5.322 -0.8801 -0.4842 -0.6427
  106MOL   H13631846   4.143   3.732   5.342  1.8900 -2.9302 -1.2014
  106MOL   C13731847   3.864   3.816   5.731  0.1209  0.1371  0.1689
  106MOL   C13831848   3.770   3.855   5.852  0.3008 -0.2780  0.6419
  106MOL   C13931849   3.723   3.732   5.935 -1.1673 -0.5784  1.0326
  106MOL   C14031850   3.813   3.651   6.008 -0.3271 -0.0914  0.1724
  106MOL   C14131851   3.755   3.534   6.067 -0.4596  0.3219 -0.5125
  106MOL   C14231852   3.620   3.506   6.053 -0.3511 -0.1016 -0.3350
  106MOL   C14331853   3.543   3.597   5.980  0.0685 -0.6620  0.5060
  106MOL   N14431854   3.596   3.704   5.918  0.8019 -0.5179 -0.4088
  106MOL   H14531855   3.894   3.906   5.677 -2.6255  0.8537 -0.2218
  106MOL   H14631856   3.958   3.779   5.772  1.0699  0.7642 -1.4278
  106MOL   H14731857   3.687   3.919   5.823  1.3169  0.4215 -0.8085
  106MOL   H14831858   3.915   3.676   6.034 -0.9739  1.4705  1.3435
  106MOL   H14931859   3.815   3.461   6.119 -1.4443 -1.1342 -1.4040
  106MOL   H15031860   3.570   3.428   6.108  2.4860 -0.3200  2.0138
  106MOL   H15131861   3.437   3.580   5.964  0.0546 -0.3565  0.2855
  106MOL   C15231862   3.836   3.972   5.939 -1.0148  0.1896  0.2144
  106MOL   C15331863   3.774   4.005   6.079 -0.8371 -0.1305  0.9059
  106MOL   C15431864   3.880   4.056   6.172 -0.8463 -0.3428 -0.3845
  106MOL   C15531865   3.948   4.168   6.135 -0.2083 -0.5113  0.6181
  106MOL   C15631866   4.070   4.212   6.205 -0.0464 -0.1958  0.0424
  106MOL   C15731867   4.098   4.138   6.323  0.1582 -0.2399  0.0210
  106MOL   C15831868   4.011   4.035   6.364 -1.3857  0.1839 -0.6283
  106MOL   N15931869   3.911   3.992   6.288  0.2662 -0.7812  0.1971
  106MOL   H16031870   3.849   4.063   5.879  0.0434  0.8146  1.3529
  106MOL   H16131871   3.937   3.941   5.966 -1.1974 -1.7000 -1.2061
  106MOL   H16231872   3.738   3.912   6.124 -1.0931 -0.6658 -0.3831
  106MOL   H16331873   3.921   4.206   6.038  2.6139 -0.3203 -0.1562
  106MOL   H16431874   4.122   4.299   6.168  0.4421 -0.7817 -0.6461
  106MOL   H16531875   4.180   4.160   6.390 -0.2801 -1.0447  0.8421
  106MOL   H16631876   4.017   3.988   6.461 -1.0477  1.7267  0.1283
  106MOL   C16731877   3.661   4.109   6.046  0.3642  0.1955 -0.1380
  106MOL   C16831878   3.616   4.203   6.159 -0.1780 -0.0618 -0.0809
  106MOL   C16931879   3.576   4.339   6.099 -0.0035 -0.8949  0.1862
  106MOL   C17031880   3.656   4.458   6.102  0.2548  0.1119  0.0539
  106MOL   C17131881   3.609   4.574   6.045  0.3119  0.6014  0.2115
  106MOL   C17231882   3.483   4.577   5.983  0.7948 -0.1904 -0.5661
  106MOL   C17331883   3.411   4.454   5.983 -0.1826 -0.4295  0.5630
  106MOL   N17431884   3.460   4.340   6.038  0.6907 -0.2228 -0.1201
  106MOL   H17531885   3.568   4.060   6.020  1.2971 -1.1943 -0.8781
  106MOL   H17631886   3.679   4.162   5.953 -0.7023 -0.7256 -0.8780
  106MOL   H17731887   3.699   4.238   6.220 -1.5501  0.7393  1.3734
  106MOL   H17831888   3.757   4.450   6.140  0.9050 -0.8003 -1.7799
  106MOL   H17931889   3.665   4.665   6.034 -0.0282  0.5073 -2.6816
  106MOL   H18031890   3.455   4.664   5.925 -0.2684  1.6621  2.5985
  106MOL   H18131891   3.327   4.433   5.919 -0.2128  1.7220 -0.1327
  106MOL   C18231892   3.506   4.157   6.258 -0.0435 -0.3448  0.5805
  106MOL   C18331893   3.514   4.211   6.405 -0.6981 -0.4297 -0.1385
  106MOL   C18431894   3.548   4.358   6.422  0.1380 -0.7035 -0.3048
  106MOL   C18531895   3.450   4.450   6.387  0.1435 -1.1669  0.2320
  106MOL   C18631896   3.482   4.586   6.368  0.0388 -0.4014 -0.5749
  106MOL   C18731897   3.607   4.633   6.408  0.3747  0.3744  0.4207
  106MOL   C18831898   3.699   4.537   6.449 -0.1062  1.1744  0.3911
  106MOL   N18931899   3.675   4.404   6.451 -0.4828 -0.8065  0.3071
  106MOL   H19031900   3.516   4.048   6.261 -0.5723 -0.3783  1.6183
  106MOL   H19131901   3.405   4.178   6.224  1.8972  2.8563 -3.5530
  106MOL   H19231902   3.596   4.156   6.452 -0.8896  0.7776  1.6442
  106MOL   H19331903   3.356   4.412   6.349  0.3574 -3.7145  2.1247
  106MOL   H19431904   3.405   4.658   6.343 -0.1010  0.4726  2.1518
  106MOL   H19531905   3.635   4.737   6.402 -1.1147  0.7128 -0.8877
  106MOL   H19631906   3.800   4.567   6.470  1.3015 -2.7414 -0.2346
  106MOL   C19731907   3.399   4.162   6.496 -0.9907 -0.1700  0.5075
  106MOL   C19831908   3.373   4.010   6.515  0.2374  0.4814  0.1877
  106MOL   C19931909   3.507   3.936   6.535 -0.6583  0.5996  0.0934
  106MOL   C20031910   3.577   3.930   6.657  0.6205  0.0987  0.2202
  106MOL   C20131911   3.702   3.858   6.665 -0.5203 -0.0321 -0.7608
  106MOL   C20231912   3.752   3.798   6.549  0.8151 -0.1048 -0.0877
  106MOL   C20331913   3.683   3.809   6.423 -1.0476  0.3038  0.2905
  106MOL   N20431914   3.561   3.874   6.422 -0.1412  0.3858  0.0250
  106MOL   H20531915   3.309   4.215   6.465 -1.1453 -1.0542 -0.6362
  106MOL   H20631916   3.431   4.202   6.592  1.3759  0.1593 -0.3841
  106MOL   H20731917   3.331   3.980   6.420  1.7844 -1.8916  0.2031
  106MOL   H20831918   3.540   3.972   6.750  0.4391  0.1351  0.1317
  106MOL   H20931919   3.754   3.857   6.760  0.4041  0.0547 -1.2578
  106MOL   H21031920   3.842   3.737   6.549 -0.1997 -1.6544  1.5191
  106MOL   H21131921   3.720   3.773   6.328  0.7470  0.2960  0.9565
  106MOL   C21231922   3.272   3.971   6.622 -0.3740  0.0528  0.7693
  106MOL   C21331923   3.143   3.902   6.573 -0.7209 -1.1679  0.8231
  106MOL   C21431924   3.173   3.774   6.506 -0.3277  0.6090 -0.3113
  106MOL   C21531925   3.241   3.674   6.574 -0.4228 -0.8599 -0.2907
  106MOL   C21631926   3.258   3.549   6.502 -0.1089  0.0302 -0.0576
  106MOL   C21731927   3.218   3.539   6.366  0.3738 -0.7210  0.1100
  106MOL   C21831928   3.155   3.644   6.312  0.1714 -0.4792 -0.3152
  106MOL   N21931929   3.128   3.763   6.379  0.0636 -0.2988  0.0414
  106MOL   H22031930   3.237   4.062   6.670 -1.8658 -1.6370  3.0189
  106MOL   H22131931   3.325   3.909   6.695 -0.7881 -0.9549  0.2329
  106MOL   H22231932   3.103   3.976   6.503 -0.8148 -1.2871  0.7501
  106MOL   H22331933   3.261   3.675   6.680 -1.8733 -0.7869 -0.0032
  106MOL   H22431934   3.309   3.468   6.552  1.8151 -0.0873 -2.1558
  106MOL   H22531935   3.231   3.452   6.303 -1.4186  0.3753 -1.8448
  106MOL   H22631936   3.110   3.631   6.214  0.9611  0.6851 -0.8488
  106MOL   C22731937   3.042   3.883   6.690 -0.5577 -0.7683  0.0546
  106MOL   C22831938   2.900   3.934   6.664 -0.8811 -0.2314  0.5318
  106MOL   C22931939   2.889   4.076   6.696 -0.0230  0.0762  0.6646
  106MOL   C23031940   2.816   4.125   6.804 -0.3919  0.7886  0.2430
  106MOL   C23131941   2.816   4.265   6.832  0.3429  0.5157  0.2947
  106MOL   C23231942   2.898   4.342   6.751  0.1336 -0.1977  0.2692
  106MOL   C23331943   2.967   4.287   6.640 -0.2542 -0.3846 -0.5972
  106MOL   N23431944   2.955   4.157   6.611 -0.1288  0.4439 -0.3930
  106MOL   H23531945   3.078   3.932   6.781  0.7604 -3.7304  1.2000
  106MOL   H23631946   3.040   3.776   6.713  0.2584 -0.3016  2.4821
  106MOL   H23731947   2.828   3.890   6.733 -1.0271  0.0191  0.5429
  106MOL   H23831948   2.763   4.052   6.863  0.2685  0.3956  0.3563
  106MOL   H23931949   2.760   4.291   6.920  0.8068 -1.4109  1.1751
  106MOL   H24031950   2.890   4.447   6.775 -2.5430 -0.4379  0.6273
  106MOL   H24131951   3.025   4.346   6.572 -0.2136  1.5588  1.0861
  106MOL   C24231952   2.842   3.892   6.529 -0.3385  0.5903 -0.1038
  106MOL   C24331953   2.694   3.917   6.507  0.4228  0.0562  0.8092
  106MOL   C24431954   2.671   4.023   6.394  0.0967 -0.1423 -0.5995
  106MOL   C24531955   2.623   4.150   6.430 -0.6031 -0.0005 -0.1520
  106MOL   C24631956   2.617   4.253   6.333 -0.3503  0.8745  0.2581
  106MOL   C24731957   2.652   4.213   6.202 -0.2832  0.1549  0.1739
  106MOL   C24831958   2.701   4.084   6.174 -0.6160  0.0724 -0.2822
  106MOL   N24931959   2.714   3.991   6.269 -0.1013  0.7856  0.4057
  106MOL   H25031960   2.876   3.792   6.499  1.2731  1.1177 -0.0783
  106MOL   H25131961   2.891   3.942   6.446  1.0021  0.9635  0.9002
  106MOL   H25231962   2.653   3.963   6.596 -0.2732 -0.6949  0.8797
  106MOL   H25331963   2.590   4.159   6.533  0.4218 -2.5306  0.4375
  106MOL   H25431964   2.591   4.357   6.342  1.3439  1.3131  0.3372
  106MOL   H25531965   2.653   4.292   6.127 -3.0158  0.1479  0.0987
  106MOL   H25631966   2.748   4.068   6.078 -0.6831  0.1907 -0.3348
  106MOL   C25731967   2.609   3.790   6.489 -0.2441  0.1803  0.2253
  106MOL   C25831968   2.614   3.685   6.597 -0.1904  0.0434  0.7573
  106MOL   C25931969   2.568   3.747   6.724  0.1538 -0.4689  0.1091
  106MOL   C26031970   2.648   3.744   6.838  0.1279  0.4018 -0.5759
  106MOL   C26131971   2.602   3.804   6.956 -0.5401 -0.1670  0.1159
  106MOL   C26231972   2.472   3.854   6.966  0.2208  0.2679 -0.4293
  106MOL   C26331973   2.399   3.855   6.849  0.4883  0.5982 -0.2650
  106MOL   N26431974   2.438   3.797   6.738 -0.0285  0.1486  0.4030
  106MOL   H26531975   2.655   3.742   6.403 -0.3581  0.7135 -0.1293
  106MOL   H26631976   2.510   3.830   6.469 -0.4110  0.5634  1.7118
  106MOL   H26731977   2.719   3.658   6.599 -0.2137 -0.5322 -2.7853
  106MOL   H26831978   2.742   3.691   6.842 -1.3410 -2.4008 -1.7271
  106MOL   H26931979   2.659   3.802   7.048  0.1407  0.4408 -0.2937
  106MOL   H27031980   2.427   3.887   7.058  0.4251  0.3397 -0.3542
  106MOL   H27131981   2.300   3.899   6.848 -0.5585 -1.6622  0.2600
  106MOL   C27231982   2.543   3.549   6.563 -0.3664 -0.6679 -0.0920
  106MOL   C27331983   2.581   3.430   6.657 -0.1692  0.4195 -0.6427
  106MOL   C27431984   2.729   3.388   6.652  0.5490  0.3642  0.2468
  106MOL   C27531985   2.777   3.270   6.593 -0.0087  0.1565  0.5643
  106MOL   C27631986   2.914   3.242   6.589  0.0337 -0.5247 -0.5634
  106MOL   C27731987   3.002   3.330   6.655 -0.1237  0.4002  0.7164
  106MOL   C27831988   2.945   3.450   6.706 -0.2268  0.3323  0.0851
  106MOL   N27931989   2.815   3.475   6.709 -0.0146  0.6010 -0.1865
  106MOL   H28031990   2.572   3.517   6.463  0.0368 -1.3451  0.2380
  106MOL   H28131991   2.436   3.568   6.557 -0.3747 -1.0057 -1.2550
  106MOL   H28231992   2.542   3.341   6.608  0.5185 -0.1679 -0.1259
  106MOL   H28331993   2.702   3.199   6.562 -0.8644  1.6642 -0.8686
  106MOL   H28431994   2.941   3.154   6.534  2.4601  1.5234 -2.7951
  106MOL   H28531995   3.107   3.308   6.645  0.0951  1.6901  0.1068
  106MOL   H28631996   3.001   3.531   6.751 -0.3339  0.1976  0.4661
  106MOL   C28731997   2.518   3.426   6.797  0.6410  0.1330 -0.2110
  106MOL   C28831998   2.367   3.427   6.796  0.4532  0.0485 -0.5683
  106MOL   C28931999   2.313   3.424   6.941  0.3849 -0.1525  0.3265
  106MOL   C29032000   2.246   3.544   6.998 -0.6281 -0.0174  0.0233
  106MOL   C29132001   2.202   3.524   7.132 -0.2028  0.8298 -0.3455
  106MOL   C29232002   2.224   3.400   7.204  0.6886  0.5706 -0.7073
  106MOL   C29332003   2.290   3.295   7.137 -0.0342 -0.0447  0.2531
  106MOL   N29432004   2.343   3.307   7.011 -0.0155  0.3311  0.1219
  106MOL   H29532005   2.557   3.504   6.862 -0.9217  0.1262  0.7654
  106MOL   H29632006   2.542   3.327   6.835 -2.5670 -0.1312  1.2976
  106MOL   H29732007   2.333   3.334   6.751 -0.7143  0.6089 -0.8715
  106MOL   H29832008   2.231   3.633   6.938 -1.7321  0.5973  1.1853
  106MOL   H29932009   2.146   3.596   7.191  0.3041 -0.6735  2.0138
  106MOL   H30032010   2.189   3.380   7.304 -0.7963 -3.9302 -1.9985
  106MOL   H30132011   2.328   3.211   7.193  1.0370  0.5576  0.4565
  106MOL   H30232012   2.323   3.505   6.734  2.0611  0.4968 -1.1880
  107MOL     C132013   0.406   7.267   7.635  0.0018  0.4018  1.0747
  107MOL     C232014   0.272   7.329   7.615  0.0804 -0.8725 -0.0385
  107MOL     C332015   0.298   7.477   7.571  0.2144  0.2942 -0.0620
  107MOL     C432016   0.255   7.588   7.648  0.7103  0.1432 -0.1275
  107MOL     C532017   0.264   7.716   7.598  0.0860  0.1056 -0.0949
  107MOL     C632018   0.315   7.739   7.471  0.5743 -0.9255  0.0520
  107MOL     C732019   0.350   7.622   7.399 -0.4513  0.2216  0.1269
  107MOL     N832020   0.349   7.493   7.445 -0.0328 -0.3420  0.5313
  107MOL     H932021   0.467   7.264   7.545  2.0952 -0.7895  2.4879
  107MOL    H1032022   0.460   7.326   7.710  1.5573  0.6248 -0.1788
  107MOL    H1132023   0.229   7.317   7.715 -0.0410 -1.2576 -0.1339
  107MOL    H1232024   0.210   7.571   7.744 -0.4097 -2.1896 -1.0200
  107MOL    H1332025   0.222   7.794   7.660 -1.5104  0.1758 -1.2164
  107MOL    H1432026   0.317   7.838   7.427  0.3094 -1.8412 -2.0926
  107MOL    H1532027   0.388   7.632   7.298  2.3839  1.8474  1.2832
  107MOL    H1632028   0.385   7.164   7.664 -1.8797  0.3941 -0.2508
  107MOL    C1732029   0.176   7.247   7.523 -0.7996  0.3433 -0.2814
  107MOL    C1832030   0.049   7.316   7.473  0.8933  0.3424  0.2518
  107MOL    C1932031   8.144   7.231   7.355 -0.1292  0.6862 -0.6660
  107MOL    C2032032   0.004   7.290   7.230 -0.0574 -0.4705  0.1148
  107MOL    C2132033   8.145   7.218   7.113 -0.7231 -0.5351  0.4031
  107MOL    C2232034   8.131   7.078   7.134 -0.3094 -0.4490  0.5638
  107MOL    C2332035   8.096   7.024   7.262 -0.2677  0.3807  0.4852
  107MOL    N2432036   8.097   7.104   7.374 -0.0273  0.0442  0.1555
  107MOL    H2532037   0.150   7.159   7.582 -2.8982  1.2968  0.2743
  107MOL    H2632038   0.234   7.206   7.440  1.3675 -0.2669  1.4874
  107MOL    H2732039   0.079   7.403   7.415  2.6285  1.5018  2.7842
  107MOL    H2832040   0.043   7.391   7.227  0.2869 -0.6255 -1.2276
  107MOL    H2932041   0.013   7.264   7.017  1.8040  0.9940  1.6061
  107MOL    H3032042   8.122   7.004   7.055 -1.1590  1.0412 -0.7516
  107MOL    H3132043   8.061   6.925   7.286  0.1802  0.1808  0.2981
  107MOL    C3232044   8.100   7.343   7.587  0.2206 -0.2311 -0.6947
  107MOL    C3332045   7.980   7.431   7.550 -0.6847 -0.4222 -0.1252
  107MOL    C3432046   7.873   7.431   7.653 -0.2948 -0.4536 -1.5655
  107MOL    C3532047   7.743   7.391   7.612  0.9713  0.6392 -0.0814
  107MOL    C3632048   7.644   7.383   7.713 -0.1577 -0.1386 -0.8106
  107MOL    C3732049   7.666   7.434   7.840  0.0047 -0.9469 -0.2061
  107MOL    C3832050   7.792   7.487   7.865  0.0908 -0.4230 -0.1469
  107MOL    N3932051   7.894   7.481   7.777 -0.0023 -0.2511  0.0021
  107MOL    H4032052   0.003   7.383   7.672 -0.3940  1.2036 -0.9676
  107MOL    H4132053   8.056   7.245   7.608 -0.3313  0.1182 -0.2257
  107MOL    H4232054   7.934   7.381   7.464 -2.0595  0.1418  0.2822
  107MOL    H4332055   7.716   7.344   7.519 -2.4484  3.9469 -0.8949
  107MOL    H4432056   7.551   7.333   7.690  0.8408 -1.9197 -1.1026
  107MOL    H4532057   7.581   7.434   7.907  0.2878 -0.2329  0.1618
  107MOL    H4632058   7.803   7.550   7.952  0.8448  0.0791 -0.6000
  107MOL    C4732059   8.020   7.576   7.534  0.4894  0.4039  0.2092
  107MOL    C4832060   7.909   7.669   7.480 -0.3025 -0.4527  0.1180
  107MOL    C4932061   7.956   7.815   7.486  0.2761 -0.2089 -0.5077
  107MOL    C5032062   8.055   7.868   7.398  0.2316  0.0629 -0.0688
  107MOL    C5132063   8.108   7.999   7.426  0.4037  0.0099 -0.3229
  107MOL    C5232064   8.058   8.072   7.528  0.1358 -0.6805  0.1916
  107MOL    C5332065   7.947   8.017   7.603  0.4660 -0.0118 -0.7954
  107MOL    N5432066   7.895   7.893   7.580 -0.0513 -0.0008  0.1066
  107MOL    H5532067   8.106   7.591   7.468  1.1273 -0.9960  0.6975
  107MOL    H5632068   8.042   7.620   7.631 -0.7027  1.6393 -0.0842
  107MOL    H5732069   7.820   7.679   7.542 -2.0552  0.1396 -2.4348
  107MOL    H5832070   8.097   7.807   7.319  0.5402 -0.9399  0.8569
  107MOL    H5932071   0.027   8.047   7.359 -1.8842  2.2330 -1.2604
  107MOL    H6032072   8.106   0.015   7.547 -1.6503  0.5654 -1.2477
  107MOL    H6132073   7.909   8.076   7.685 -0.5770 -0.7505 -0.7350
  107MOL    C6232074   7.858   7.628   7.342  0.1138 -0.4879 -0.0967
  107MOL    C6332075   7.754   7.728   7.283 -0.1165 -0.0876  0.5207
  107MOL    C6432076   7.812   7.806   7.168  0.4778 -0.7506 -0.2898
  107MOL    C6532077   7.811   7.949   7.165 -0.0016  0.0577  0.5383
  107MOL    C6632078   7.872   8.011   7.054  0.0505 -0.1305 -0.0436
  107MOL    C6732079   7.929   7.937   6.952 -0.4095 -0.0768  0.3317
  107MOL    C6832080   7.913   7.797   6.958 -0.5735  0.4989 -0.4268
  107MOL    N6932081   7.857   7.733   7.067  0.1644  0.1975 -0.2508
  107MOL    H7032082   7.813   7.529   7.347 -1.6744  0.3650  1.0591
  107MOL    H7132083   7.944   7.621   7.275 -0.0720 -1.1707 -0.2779
  107MOL    H7232084   7.731   7.806   7.356  0.0555 -1.1352  1.7246
  107MOL    H7332085   7.762   8.006   7.242  0.5155  1.4230 -0.1293
  107MOL    H7432086   7.872   8.119   7.054  0.4789 -0.1271  0.5945
  107MOL    H7532087   7.970   7.987   6.866 -0.0046 -1.7338 -0.4512
  107MOL    H7632088   7.953   7.737   6.878 -2.7681  1.7844 -2.5401
  107MOL    C7732089   7.624   7.657   7.252  0.2446  0.8001 -0.1352
  107MOL    C7832090   7.552   7.615   7.386 -0.7158  0.1817 -0.4472
  107MOL    C7932091   7.520   7.738   7.473  0.2824 -1.0068 -0.2016
  107MOL    C8032092   7.555   7.747   7.604  0.1292  0.2475 -0.0239
  107MOL    C8132093   7.517   7.860   7.681 -0.5542 -0.7800  0.1950
  107MOL    C8232094   7.458   7.970   7.611 -0.4293 -0.3451  0.1476
  107MOL    C8332095   7.434   7.951   7.475 -0.3619  0.0887 -0.0412
  107MOL    N8432096   7.461   7.840   7.405 -0.2705  0.4725  0.0409
  107MOL    H8532097   7.650   7.567   7.197 -1.4166  0.6170 -0.6440
  107MOL    H8632098   7.564   7.721   7.187  2.7829  0.5217 -2.8094
  107MOL    H8732099   7.620   7.548   7.440 -0.8580 -1.7778 -2.6499
  107MOL    H8832100   7.602   7.668   7.662  0.7336  1.9805  1.8976
  107MOL    H8932101   7.540   7.877   7.785 -3.2964  1.4879  0.4760
  107MOL    H9032102   7.438   8.060   7.668 -0.1772 -0.7693  0.9126
  107MOL    H9132103   7.390   8.031   7.418  0.1373  0.0222 -0.5228
  107MOL    C9232104   7.418   7.534   7.370 -0.1976 -0.1515  0.0816
  107MOL    C9332105   7.415   7.410   7.271 -0.1255 -0.3221  0.3257
  107MOL    C9432106   7.518   7.303   7.302  0.0231 -0.3341  0.1596
  107MOL    C9532107   7.626   7.278   7.218 -0.3765  0.1591  0.3754
  107MOL    C9632108   7.723   7.183   7.249 -0.4866  0.6607  0.3423
  107MOL    C9732109   7.697   7.116   7.372  0.1993  0.2414 -0.1729
  107MOL    C9832110   7.586   7.147   7.454  1.4181  0.8033 -0.4310
  107MOL    N9932111   7.495   7.237   7.416 -0.0318  0.5205 -0.2240
  107MOL   H10032112   7.335   7.596   7.335  0.3059  0.8966  0.7377
  107MOL   H10132113   7.383   7.506   7.470  0.3787  0.1741  0.3768
  107MOL   H10232114   7.444   7.435   7.168 -2.4656 -0.1879 -0.3328
  107MOL   H10332115   7.629   7.335   7.126 -0.1948 -0.8955 -0.2820
  107MOL   H10432116   7.812   7.171   7.190 -0.1570 -1.3352  1.2006
  107MOL   H10532117   7.760   7.034   7.402 -1.6749 -0.8252  0.9615
  107MOL   H10632118   7.566   7.094   7.545  0.2020  2.2873  0.1938
  107MOL   C10732119   7.275   7.351   7.250 -0.2104  0.5155 -0.3450
  107MOL   C10832120   7.169   7.433   7.172 -0.0321  0.0360  0.2294
  107MOL   C10932121   7.218   7.457   7.039  0.6528 -0.2007 -0.7787
  107MOL   C11032122   7.241   7.594   7.001 -0.0894  0.6142 -0.8347
  107MOL   C11132123   7.305   7.634   6.882  0.1746 -0.1867  0.5994
  107MOL   C11232124   7.349   7.519   6.804 -0.0799  0.4470 -0.0083
  107MOL   C11332125   7.318   7.389   6.843 -0.1711  0.4403 -0.1337
  107MOL   N11432126   7.254   7.360   6.960  0.2293  0.0341  0.6498
  107MOL   H11532127   7.241   7.340   7.353 -1.8435  1.7076 -0.7283
  107MOL   H11632128   7.289   7.253   7.206  1.7991  0.4633  0.3681
  107MOL   H11732129   7.170   7.529   7.223  1.0489  0.2318 -0.1473
  107MOL   H11832130   7.204   7.670   7.068 -2.8568 -1.9411  0.6642
  107MOL   H11932131   7.321   7.738   6.860 -0.1995 -0.7819 -2.8447
  107MOL   H12032132   7.408   7.527   6.714 -1.1843  0.4423 -0.7360
  107MOL   H12132133   7.345   7.300   6.790  0.0693 -0.2929  1.1974
  107MOL   C12232134   7.026   7.378   7.170 -0.0700  0.6153  0.3330
  107MOL   C12332135   6.956   7.368   7.306 -0.5171  0.3856  0.5126
  107MOL   C12432136   6.957   7.506   7.376 -0.1488  0.5302 -0.7316
  107MOL   C12532137   7.041   7.543   7.480  0.4615 -0.1887 -0.3781
  107MOL   C12632138   7.051   7.674   7.519  0.0155  0.1054 -0.2492
  107MOL   C12732139   6.963   7.769   7.461 -0.2504  0.0784  0.7099
  107MOL   C12832140   6.886   7.721   7.360  0.7017  0.4146 -0.1834
  107MOL   N12932141   6.879   7.594   7.316 -0.4561 -0.9127  0.1709
  107MOL   H13032142   7.033   7.279   7.125  0.1795  0.6981  0.1920
  107MOL   H13132143   6.960   7.437   7.107 -0.9505 -0.3258  0.3443
  107MOL   H13232144   7.020   7.309   7.372  1.7857  2.2604  0.0083
  107MOL   H13332145   7.100   7.464   7.526  0.1041  0.8841  2.0019
  107MOL   H13432146   7.118   7.695   7.601 -0.1841 -1.5168  0.3647
  107MOL   H13532147   6.963   7.873   7.487 -1.6672  0.8111 -2.0197
  107MOL   H13632148   6.804   7.778   7.317  1.1314  0.7776 -0.5342
  107MOL   C13732149   6.823   7.297   7.305  0.5269  0.0057  0.4044
  107MOL   C13832150   6.828   7.146   7.321 -0.0078  0.7322 -0.2304
  107MOL   C13932151   6.878   7.114   7.459 -0.2339 -0.2554  0.1097
  107MOL   C14032152   6.994   7.034   7.480  0.9275 -0.6437 -0.1523
  107MOL   C14132153   7.030   7.011   7.612 -0.4477  0.7786  0.2143
  107MOL   C14232154   6.956   7.064   7.714  0.0876 -0.0111 -0.0776
  107MOL   C14332155   6.848   7.144   7.680  0.2265  0.0134 -0.0070
  107MOL   N14432156   6.806   7.176   7.557 -0.0283  0.2830  0.3704
  107MOL   H14532157   6.785   7.324   7.207  1.6545  0.1513  0.0020
  107MOL   H14632158   6.754   7.340   7.378 -0.3594 -1.4129  0.4242
  107MOL   H14732159   6.917   7.121   7.263  0.8818  1.3965  0.8178
  107MOL   H14832160   7.044   6.987   7.396  1.8630  0.4506 -0.2122
  107MOL   H14932161   7.114   6.947   7.635 -1.5611 -0.0502  2.0829
  107MOL   H15032162   6.984   7.035   7.814 -0.3939  0.3226  0.1543
  107MOL   H15132163   6.793   7.189   7.762 -0.4502 -2.0377  0.6911
  107MOL   C15232164   6.702   7.059   7.285 -0.0359 -0.5130 -0.2369
  107MOL   C15332165   6.644   7.047   7.140  0.4713  0.0942  0.3620
  107MOL   C15432166   6.759   7.069   7.037 -0.4297 -0.0219 -0.0159
  107MOL   C15532167   6.759   7.178   6.945 -0.1331  0.4824 -0.3345
  107MOL   C15632168   6.878   7.189   6.870 -0.2842 -0.6462 -0.0299
  107MOL   C15732169   6.981   7.092   6.888  1.2809 -0.1708  0.4935
  107MOL   C15832170   6.965   6.985   6.976  1.0594 -0.7997 -0.4096
  107MOL   N15932171   6.856   6.974   7.050 -0.0348  0.2298 -0.3572
  107MOL   H16032172   6.630   7.078   7.365  1.4189  0.0004  0.9644
  107MOL   H16132173   6.733   6.958   7.309 -3.0042 -1.6808 -1.0694
  107MOL   H16232174   6.574   7.130   7.132 -0.0900 -0.2697  1.3239
  107MOL   H16332175   6.667   7.231   6.925 -1.0021 -1.6203 -2.1698
  107MOL   H16432176   6.886   7.273   6.803  1.1957 -0.6137  0.1718
  107MOL   H16532177   7.070   7.092   6.828  1.4447 -1.9306  0.7045
  107MOL   H16632178   7.037   6.905   6.983  1.3026 -0.3816  2.3150
  107MOL   C16732179   6.560   6.916   7.129  0.0044  0.3839 -0.3888
  107MOL   C16832180   6.474   6.900   6.996  0.2005  0.1906  0.5514
  107MOL   C16932181   6.459   6.754   6.951 -0.3951 -0.0886  0.3264
  107MOL   C17032182   6.530   6.691   6.843 -0.0929 -0.1888 -0.3269
  107MOL   C17132183   6.513   6.553   6.819  0.2047 -0.0410  0.1032
  107MOL   C17232184   6.422   6.482   6.899  0.3240 -0.4421 -0.8798
  107MOL   C17332185   6.355   6.552   7.002  0.1020  0.1714  0.5945
  107MOL   N17432186   6.378   6.686   7.030  0.0484  0.2267  0.1229
  107MOL   H17532187   6.494   6.898   7.214 -0.3927 -0.3155 -0.8376
  107MOL   H17632188   6.624   6.828   7.128 -1.1543 -0.4679 -2.0486
  107MOL   H17732189   6.543   6.934   6.919 -0.0517 -0.2267  0.1388
  107MOL   H17832190   6.595   6.759   6.790 -0.0685 -0.8390 -1.1442
  107MOL   H17932191   6.565   6.503   6.738  0.7056 -0.0683  0.4404
  107MOL   H18032192   6.401   6.377   6.884 -2.5039 -0.1720  0.8927
  107MOL   H18132193   6.291   6.497   7.069 -0.5195  1.3712  1.0053
  107MOL   C18232194   6.342   6.983   6.978  0.7119  0.2083  0.2709
  107MOL   C18332195   6.355   7.125   6.917  0.6131  0.0424 -0.3892
  107MOL   C18432196   6.360   7.116   6.769  0.2455  0.1937 -0.0708
  107MOL   C18532197   6.484   7.128   6.697  0.5528  0.0791 -0.4874
  107MOL   C18632198   6.470   7.133   6.558  0.3178  0.2714 -0.5545
  107MOL   C18732199   6.346   7.101   6.499  0.1332 -0.7275  0.4766
  107MOL   C18832200   6.234   7.092   6.579 -0.7462  0.3379  0.4324
  107MOL   N18932201   6.238   7.094   6.711 -0.3698  0.7559  0.4761
  107MOL   H19032202   6.299   6.995   7.078  0.7919 -3.2214  0.7994
  107MOL   H19132203   6.260   6.934   6.926  2.9635 -2.6547 -0.7069
  107MOL   H19232204   6.450   7.175   6.937  0.9148 -0.2141 -1.1699
  107MOL   H19332205   6.578   7.150   6.745  1.0586 -0.2047 -1.3233
  107MOL   H19432206   6.560   7.152   6.500  0.1736 -0.7284 -1.1263
  107MOL   H19532207   6.344   7.100   6.391  0.2730  1.8356  0.4073
  107MOL   H19632208   6.134   7.085   6.539 -0.5395 -0.8042  0.1014
  107MOL   C19732209   6.239   7.218   6.963 -0.8298  0.6632  0.8283
  107MOL   C19832210   6.265   7.306   7.082  0.3396  0.0459  0.2472
  107MOL   C19932211   6.372   7.402   7.041 -1.0917  0.9335  0.4353
  107MOL   C20032212   6.501   7.392   7.098  0.7643  0.1996 -0.3207
  107MOL   C20132213   6.600   7.485   7.059  0.5001 -0.4998 -0.3472
  107MOL   C20232214   6.569   7.576   6.960  0.2760 -0.0829  0.5972
  107MOL   C20332215   6.443   7.571   6.895  0.7033  0.2134  0.0287
  107MOL   N20432216   6.344   7.488   6.945 -0.9133 -0.1853 -0.0478
  107MOL   H20532217   6.156   7.153   6.990 -2.3627  1.2790 -2.1814
  107MOL   H20632218   6.197   7.290   6.894  2.0471  2.5147  0.9158
  107MOL   H20732219   6.309   7.237   7.155 -0.1833 -3.0968 -2.2890
  107MOL   H20832220   6.523   7.318   7.173 -1.0901  0.0657  0.1184
  107MOL   H20932221   6.700   7.477   7.100  0.6617  3.0093  0.0303
  107MOL   H21032222   6.642   7.647   6.924 -0.1678 -0.0883 -0.3331
  107MOL   H21132223   6.417   7.623   6.803  0.3003 -1.0057 -0.5536
  107MOL   C21232224   6.136   7.367   7.141  0.3430  0.2070  0.0308
  107MOL   C21332225   6.081   7.288   7.259  0.2999 -0.6030 -0.3494
  107MOL   C21432226   6.188   7.246   7.361 -0.1946 -0.6219  0.4781
  107MOL   C21532227   6.223   7.110   7.382 -0.1277  0.8848  0.6242
  107MOL   C21632228   6.322   7.069   7.468  0.2645 -0.3068  0.3390
  107MOL   C21732229   6.395   7.176   7.526  0.8330 -0.2476 -0.6412
  107MOL   C21832230   6.353   7.309   7.507  0.7579  0.5777  0.3970
  107MOL   N21932231   6.252   7.346   7.422 -0.5618  0.0919 -0.1606
  107MOL   H22032232   6.057   7.402   7.075  1.3188 -0.5074 -1.5291
  107MOL   H22132233   6.168   7.463   7.182 -1.7882  2.1981 -2.7290
  107MOL   H22232234   6.043   7.191   7.226  0.2419 -0.0314 -2.0038
  107MOL   H22332235   6.166   7.030   7.338 -1.0124  0.9584  1.6337
  107MOL   H22432236   6.355   6.968   7.487 -3.2056 -1.8682 -1.5413
  107MOL   H22532237   6.477   7.144   7.589 -0.4825 -0.6349  0.8818
  107MOL   H22632238   6.409   7.390   7.551  1.2478 -0.0936  1.0201
  107MOL   C22732239   5.961   7.363   7.327  0.6474 -0.8121 -0.3756
  107MOL   C22832240   5.849   7.295   7.428 -0.4674  0.3939 -0.1281
  107MOL   C22932241   5.915   7.219   7.541  0.4426 -0.0570 -0.2363
  107MOL   C23032242   5.903   7.081   7.557 -0.5925  0.0612  0.1348
  107MOL   C23132243   5.964   7.021   7.666  0.3733  0.8301  0.1700
  107MOL   C23232244   6.044   7.097   7.748  0.2679  0.8182 -0.2658
  107MOL   C23332245   6.059   7.233   7.711 -0.0037 -0.6896 -0.1302
  107MOL   N23432246   5.988   7.296   7.620 -0.2479  0.3220 -0.3342
  107MOL   H23532247   5.895   7.407   7.252 -1.2861 -3.8843 -0.5421
  107MOL   H23632248   5.997   7.445   7.389  0.0003  1.8817 -3.4502
  107MOL   H23732249   5.794   7.222   7.369  0.7059  0.1365 -0.9089
  107MOL   H23832250   5.836   7.025   7.494 -2.3114  0.3460  1.6749
  107MOL   H23932251   5.957   6.913   7.678  0.7518  0.2056 -4.1496
  107MOL   H24032252   6.093   7.059   7.836 -2.3843  2.2659  1.9282
  107MOL   H24132253   6.129   7.304   7.751  0.3477  0.6774 -3.0252
  107MOL   C24232254   5.737   7.394   7.473  0.3027  0.0921 -0.2711
  107MOL   C24332255   5.613   7.339   7.542 -0.8180 -0.0390  0.3189
  107MOL   C24432256   5.546   7.458   7.610 -0.1869 -0.9641 -0.4548
  107MOL   C24532257   5.514   7.576   7.542  0.5490 -0.1593  0.2350
  107MOL   C24632258   5.440   7.681   7.599 -0.1318  0.4170  0.1270
  107MOL   C24732259   5.414   7.663   7.735 -0.0146 -0.1784 -0.3759
  107MOL   C24832260   5.449   7.547   7.804 -0.3172  0.2191  0.5470
  107MOL   N24932261   5.509   7.445   7.740  0.0235 -0.6253  0.2467
  107MOL   H25032262   5.717   7.435   7.373  2.7066  0.4148 -0.6518
  107MOL   H25132263   5.779   7.483   7.520  2.8240 -0.6346 -1.0184
  107MOL   H25232264   5.648   7.268   7.617  2.1120 -0.1234 -1.0611
  107MOL   H25332265   5.541   7.589   7.438  1.1113  0.0841  0.4080
  107MOL   H25432266   5.413   7.771   7.546 -1.3370 -0.3767 -0.6345
  107MOL   H25532267   5.354   7.736   7.788 -0.0188 -0.8266  0.5356
  107MOL   H25632268   5.415   7.546   7.907  2.7686 -2.3257  1.6150
  107MOL   C25732269   5.509   7.267   7.454  0.4743 -0.4623 -0.3437
  107MOL   C25832270   5.519   7.115   7.441  0.2128  1.2844 -1.2275
  107MOL   C25932271   5.524   7.045   7.576  0.5549 -0.2035 -0.0995
  107MOL   C26032272   5.436   7.077   7.674 -0.2689  0.1075 -0.2440
  107MOL   C26132273   5.432   6.998   7.787 -0.1251 -0.0976  0.1339
  107MOL   C26232274   5.521   6.891   7.807 -0.0818  0.5321  0.0692
  107MOL   C26332275   5.608   6.861   7.697  0.2821 -0.0415 -0.2883
  107MOL   N26432276   5.610   6.938   7.587  0.1166  0.6484  0.0574
  107MOL   H26532277   5.504   7.321   7.359  1.6532  4.2811  2.1265
  107MOL   H26632278   5.410   7.289   7.495  1.5782  0.1806  2.0775
  107MOL   H26732279   5.620   7.095   7.405  1.0393 -0.3709  1.8254
  107MOL   H26832280   5.373   7.165   7.668 -0.9228 -0.2512  1.0461
  107MOL   H26932281   5.367   7.019   7.871  0.0721 -0.3320  0.3481
  107MOL   H27032282   5.518   6.834   7.899 -1.7038  0.9058  0.2711
  107MOL   H27132283   5.698   6.804   7.715  0.6295  0.9442  1.2161
  107MOL   C27232284   5.402   7.058   7.350 -0.4831  0.0796  0.6466
  107MOL   C27332285   5.434   6.918   7.303  1.0719  0.0124  0.7531
  107MOL   C27432286   5.308   6.857   7.243  0.3156  0.2786 -0.1429
  107MOL   C27532287   5.242   6.917   7.133  0.0985  0.8216  0.4743
  107MOL   C27632288   5.121   6.860   7.084 -0.3443  0.1422 -0.3086
  107MOL   C27732289   5.069   6.743   7.143 -0.9615  0.4226 -0.1619
  107MOL   C27832290   5.141   6.689   7.253  0.5884  0.9222 -0.8901
  107MOL   N27932291   5.251   6.748   7.304  0.4855 -0.4196 -0.1950
  107MOL   H28032292   5.404   7.122   7.261 -0.1701 -0.4256  0.2908
  107MOL   H28132293   5.307   7.060   7.403  0.4899  0.3838  2.4254
  107MOL   H28232294   5.461   6.863   7.393 -1.7434 -0.0935  1.5860
  107MOL   H28332295   5.298   6.989   7.074  1.2332  1.1463  1.9224
  107MOL   H28432296   5.067   6.917   7.009  0.8366  1.3140 -0.3051
  107MOL   H28532297   4.973   6.698   7.124 -0.7634 -0.0249 -0.1235
  107MOL   H28632298   5.097   6.606   7.306  2.6072  0.6550  0.4084
  107MOL   C28732299   5.549   6.907   7.203 -0.3760  0.2835  0.5457
  107MOL   C28832300   5.597   6.763   7.184  0.0785  0.4561 -1.2098
  107MOL   C28932301   5.741   6.748   7.138  0.6867 -0.9258 -0.1988
  107MOL   C29032302   5.852   6.746   7.224 -0.0949 -0.0282  0.4747
  107MOL   C29132303   5.982   6.748   7.171 -0.9486  0.4096 -0.5414
  107MOL   C29232304   5.999   6.742   7.031  0.5324  0.0583  0.4206
  107MOL   C29332305   5.881   6.739   6.955 -0.6750 -0.4087  0.3092
  107MOL   N29432306   5.756   6.743   7.007  0.2777  0.1696  0.0480
  107MOL   H29532307   5.628   6.969   7.246 -0.4559  0.8276 -0.0791
  107MOL   H29632308   5.523   6.953   7.107 -1.0656 -0.2544  0.4713
  107MOL   H29732309   5.525   6.713   7.119 -1.1950 -2.1044  2.0748
  107MOL   H29832310   5.842   6.742   7.332 -1.4597  0.3891  0.3709
  107MOL   H29932311   6.062   6.740   7.243  0.3178  0.5330 -1.9174
  107MOL   H30032312   6.087   6.739   6.970  0.4433 -1.0865  0.3256
  107MOL   H30132313   5.885   6.733   6.848  0.6376 -1.9013  0.4233
  107MOL   H30232314   5.583   6.707   7.276 -0.2452 -0.1406 -1.6226
  108MOL     C132315   3.951   0.180   0.978 -0.4960  0.2138  0.0115
  108MOL     C232316   3.953   0.336   0.953 -0.5660  0.1133  0.1683
  108MOL     C332317   3.884   0.386   0.826 -0.5597 -0.1740 -0.2054
  108MOL     C432318   3.747   0.386   0.829 -1.2460 -0.7604 -0.0681
  108MOL     C532319   3.682   0.456   0.725 -0.1953  0.0057 -0.9465
  108MOL     C632320   3.759   0.524   0.636  0.0053 -1.0169  1.3270
  108MOL     C732321   3.897   0.513   0.637 -1.1653 -0.0101 -0.4675
  108MOL     N832322   3.963   0.450   0.740  0.0006  0.4511  0.3291
  108MOL     H932323   3.859   0.123   0.968 -0.2234 -0.3808  0.7504
  108MOL    H1032324   4.023   0.120   0.922 -0.6546 -2.4774  2.5474
  108MOL    H1132325   4.060   0.359   0.945 -0.4816  1.7480  4.5323
  108MOL    H1232326   3.692   0.336   0.907 -1.2855  0.1528  0.4885
  108MOL    H1332327   3.576   0.450   0.710 -0.1811  0.3746 -1.2019
  108MOL    H1432328   3.710   0.572   0.552  1.7377 -0.3082  0.6846
  108MOL    H1532329   3.964   0.564   0.569 -0.0422 -0.7676  0.0596
  108MOL    H1632330   3.977   0.155   1.081 -0.9625 -2.4995 -0.4855
  108MOL    C1732331   3.899   0.415   1.077 -0.2988 -0.3272 -0.2728
  108MOL    C1832332   3.997   0.429   1.193  0.6715  0.0294 -0.1948
  108MOL    C1932333   4.103   0.532   1.160  0.4934 -0.0540 -0.1244
  108MOL    C2032334   4.229   0.485   1.136  0.6503 -0.7632  0.0696
  108MOL    C2132335   4.331   0.569   1.085 -0.3747  0.1842  0.9083
  108MOL    C2232336   4.287   0.696   1.041 -0.2089  0.1718 -0.0057
  108MOL    C2332337   4.156   0.732   1.070  0.3752 -0.4166  0.2824
  108MOL    N2432338   4.059   0.655   1.127  0.4377  0.0065  0.6665
  108MOL    H2532339   3.812   0.357   1.108  1.4391 -2.2704  1.0880
  108MOL    H2632340   3.864   0.515   1.050  0.8799  0.0012 -0.5898
  108MOL    H2732341   4.036   0.328   1.193 -0.1929 -0.3131  0.8235
  108MOL    H2832342   4.263   0.387   1.166  0.9260 -0.3592  1.0929
  108MOL    H2932343   4.436   0.546   1.071 -0.8331 -1.2108 -0.3348
  108MOL    H3032344   4.347   0.773   0.995 -0.4455  0.2055 -0.2552
  108MOL    H3132345   4.116   0.825   1.033  0.2059 -0.6206 -0.0463
  108MOL    C3232346   3.923   0.459   1.323  0.6575  0.1456 -0.1025
  108MOL    C3332347   3.997   0.495   1.447 -0.0717 -0.3933  0.1505
  108MOL    C3432348   3.904   0.558   1.554  0.2846 -0.2962 -0.4827
  108MOL    C3532349   3.903   0.699   1.572  0.0775  0.2604  0.5401
  108MOL    C3632350   3.807   0.750   1.656 -0.4849 -0.1351  0.9101
  108MOL    C3732351   3.729   0.659   1.726 -0.1990  0.0631  0.3015
  108MOL    C3832352   3.737   0.524   1.703  0.3950 -0.6636 -0.2797
  108MOL    N3932353   3.818   0.473   1.612 -0.3954  0.0090 -0.0208
  108MOL    H4032354   3.859   0.377   1.356 -1.3536  2.0567  0.9192
  108MOL    H4132355   3.854   0.540   1.299  0.0515 -0.7152 -1.2892
  108MOL    H4232356   4.065   0.575   1.417 -1.6661  0.2146 -1.9509
  108MOL    H4332357   3.969   0.764   1.518 -0.2073 -1.3088 -1.7692
  108MOL    H4432358   3.795   0.855   1.680  2.3552 -0.0003  1.9119
  108MOL    H4532359   3.660   0.694   1.802  0.7442  1.5127  0.5157
  108MOL    H4632360   3.679   0.455   1.763 -0.8765 -0.4007 -1.2081
  108MOL    C4732361   4.090   0.385   1.494  0.6563 -0.3053  0.3274
  108MOL    C4832362   4.173   0.423   1.614  0.5772 -0.4861  0.4749
  108MOL    C4932363   4.204   0.297   1.692 -0.2999 -0.6517 -0.2571
  108MOL    C5032364   4.151   0.281   1.819  1.0076  0.5122 -0.0955
  108MOL    C5132365   4.164   0.152   1.879 -0.3787  0.0526 -0.1849
  108MOL    C5232366   4.250   0.058   1.823  0.0514  0.2442  0.8246
  108MOL    C5332367   4.318   0.090   1.701 -0.0490 -0.9781  0.0776
  108MOL    N5432368   4.287   0.202   1.637  0.3028  0.2290  0.1177
  108MOL    H5532369   4.157   0.346   1.418  1.1763 -3.4878  2.3019
  108MOL    H5632370   4.023   0.302   1.516  0.7009 -0.3325  0.3591
  108MOL    H5732371   4.106   0.489   1.668  0.8554 -0.6179  0.9835
  108MOL    H5832372   4.093   0.355   1.872  0.0731 -1.8482  2.2867
  108MOL    H5932373   4.117   0.135   1.975  0.6598  1.4795  0.5935
  108MOL    H6032374   4.272   8.122   1.882  1.7995 -0.2255 -0.4907
  108MOL    H6132375   4.374   0.017   1.645 -2.6211 -2.0063 -1.1909
  108MOL    C6232376   4.311   0.494   1.583  0.2555 -0.0508  0.7996
  108MOL    C6332377   4.344   0.614   1.672  0.3779 -0.3093  0.1662
  108MOL    C6432378   4.317   0.584   1.822 -0.1308  0.6187  0.5531
  108MOL    C6532379   4.227   0.660   1.888 -0.4934 -0.3462 -0.4728
  108MOL    C6632380   4.201   0.635   2.025 -0.1696  0.9045 -0.3435
  108MOL    C6732381   4.267   0.529   2.087  0.1474 -0.2316 -0.9920
  108MOL    C6832382   4.356   0.453   2.009 -0.3760  0.3260  0.1545
  108MOL    N6932383   4.389   0.480   1.878  0.2804 -0.8105  0.7897
  108MOL    H7032384   4.308   0.530   1.480  0.4171 -0.0926  0.7805
  108MOL    H7132385   4.385   0.414   1.585 -0.1452 -0.4333  0.4297
  108MOL    H7232386   4.282   0.695   1.634  2.0230 -0.1561 -2.2564
  108MOL    H7332387   4.180   0.751   1.852 -0.7732  0.8068  2.6335
  108MOL    H7432388   4.130   0.691   2.085 -0.2557  0.0537  0.3627
  108MOL    H7532389   4.249   0.506   2.191  0.1433  0.4897 -0.8323
  108MOL    H7632390   4.415   0.377   2.058  0.0509  0.2719 -0.4326
  108MOL    C7732391   4.487   0.681   1.662 -0.7347  0.2374  0.5136
  108MOL    C7832392   4.506   0.745   1.523 -0.8032 -0.3773  0.5915
  108MOL    C7932393   4.401   0.848   1.492 -0.0427 -0.0221 -0.3495
  108MOL    C8032394   4.312   0.822   1.390  0.5088 -0.0643  1.1060
  108MOL    C8132395   4.199   0.900   1.367  0.3569  0.5284  0.1107
  108MOL    C8232396   4.177   1.009   1.454  0.2953  0.3716 -0.5149
  108MOL    C8332397   4.272   1.025   1.561  0.2333  0.3041  0.4690
  108MOL    N8432398   4.383   0.948   1.576 -0.0738  0.1598 -0.2918
  108MOL    H8532399   4.573   0.618   1.681  1.0746  3.0186  1.8819
  108MOL    H8632400   4.493   0.775   1.716 -1.0325  1.8577 -2.1928
  108MOL    H8732401   4.497   0.663   1.452  0.3687  0.2476 -0.2978
  108MOL    H8832402   4.323   0.737   1.324 -2.4269 -0.9122  1.6337
  108MOL    H8932403   4.140   0.880   1.278  1.0025  0.8393 -0.3964
  108MOL    H9032404   4.105   1.089   1.442 -1.7603 -0.7689  3.4685
  108MOL    H9132405   4.257   1.106   1.631 -0.1665  0.3379  0.3417
  108MOL    C9232406   4.656   0.795   1.515  0.0031  0.6764  0.0114
  108MOL    C9332407   4.702   0.883   1.394 -0.2202 -0.6985  0.3500
  108MOL    C9432408   4.841   0.944   1.410  0.7010  0.4555  0.3021
  108MOL    C9532409   4.939   0.880   1.489 -1.0606  0.4249 -0.7151
  108MOL    C9632410   5.064   0.940   1.494 -0.4038  0.0833  0.3964
  108MOL    C9732411   5.091   1.059   1.421  0.0291 -0.0618 -0.1375
  108MOL    C9832412   4.987   1.114   1.346 -0.1271 -0.0982 -0.2339
  108MOL    N9932413   4.867   1.060   1.333 -0.1686 -0.3203 -0.3288
  108MOL   H10032414   4.714   0.702   1.508  2.4042  2.1370 -0.0378
  108MOL   H10132415   4.668   0.849   1.609 -0.6445  1.2912 -0.2570
  108MOL   H10232416   4.635   0.968   1.384  1.1568  0.2284 -1.1521
  108MOL   H10332417   4.918   0.799   1.557  0.5937  0.4416 -0.1723
  108MOL   H10432418   5.138   0.896   1.559 -1.3837 -3.3742 -0.7056
  108MOL   H10532419   5.192   1.096   1.412  0.1539 -0.1848  0.7282
  108MOL   H10632420   5.002   1.196   1.278 -0.7602 -0.6892 -1.0964
  108MOL   C10732421   4.694   0.793   1.263  0.2193  0.1444 -0.2528
  108MOL   C10832422   4.708   0.859   1.123 -0.4929 -0.2461  0.6567
  108MOL   C10932423   4.732   0.752   1.017 -0.3425 -0.4422 -0.3508
  108MOL   C11032424   4.866   0.722   0.980 -0.7668 -0.1123  0.5662
  108MOL   C11132425   4.895   0.619   0.897 -0.5646  0.2534  0.2804
  108MOL   C11232426   4.781   0.558   0.843  0.4748 -0.2286 -0.2537
  108MOL   C11332427   4.650   0.588   0.884 -0.3814  0.7945  0.5198
  108MOL   N11432428   4.628   0.686   0.971  0.2069 -0.1171 -0.1349
  108MOL   H11532429   4.595   0.749   1.268  0.7744 -1.3289 -1.6996
  108MOL   H11632430   4.766   0.712   1.277 -0.2448 -0.1708  0.3268
  108MOL   H11732431   4.786   0.935   1.120 -1.1526  0.4328  0.5156
  108MOL   H11832432   4.938   0.783   1.033 -1.4889  1.7770 -0.5852
  108MOL   H11932433   4.993   0.594   0.861 -0.6860  3.0550 -2.2286
  108MOL   H12032434   4.794   0.472   0.779  1.8368 -0.6278  0.5411
  108MOL   H12132435   4.563   0.535   0.847  1.1615 -1.8598  0.6265
  108MOL   C12232436   4.579   0.944   1.084 -0.5695 -0.1828 -0.6719
  108MOL   C12332437   4.560   0.996   0.937 -0.2204  0.2489  0.4933
  108MOL   C12432438   4.410   1.035   0.911 -0.8044 -0.1128 -0.3407
  108MOL   C12532439   4.337   0.964   0.814 -0.1967  0.1395 -0.0263
  108MOL   C12632440   4.197   0.986   0.806 -0.2456  0.2312  0.7295
  108MOL   C12732441   4.142   1.080   0.894 -0.4661 -0.1602  0.3565
  108MOL   C12832442   4.221   1.147   0.991  0.2528  0.6241  0.0323
  108MOL   N12932443   4.351   1.122   0.997 -0.2109  0.4373  0.4012
  108MOL   H13032444   4.586   1.029   1.152  3.6074  1.0035 -2.4940
  108MOL   H13132445   4.481   0.903   1.110 -1.2619  2.3535  0.8190
  108MOL   H13232446   4.561   0.898   0.890 -0.0486  0.4509  0.0691
  108MOL   H13332447   4.386   0.896   0.746 -2.1686  0.2919 -1.6415
  108MOL   H13432448   4.130   0.951   0.729  0.3815 -0.6710  0.5908
  108MOL   H13532449   4.039   1.113   0.885 -0.6251 -1.2009 -1.9219
  108MOL   H13632450   4.178   1.233   1.040 -0.8933 -0.8271  1.5895
  108MOL   C13732451   4.654   1.103   0.882 -0.6158  0.3275 -0.3149
  108MOL   C13832452   4.793   1.062   0.838  0.4343  0.3579 -0.3559
  108MOL   C13932453   4.803   0.952   0.724 -0.4028  0.3740 -0.6077
  108MOL   C14032454   4.696   0.929   0.644 -0.1756 -0.3444  0.3450
  108MOL   C14132455   4.704   0.860   0.531  0.2620 -0.1925  0.2773
  108MOL   C14232456   4.829   0.812   0.497 -0.7050  0.0089 -0.0811
  108MOL   C14332457   4.935   0.836   0.585  0.0319 -0.0815  0.9019
  108MOL   N14432458   4.925   0.898   0.701 -0.1470  0.4009 -0.7373
  108MOL   H14532459   4.654   1.185   0.953  0.2682 -0.3495  0.4762
  108MOL   H14632460   4.600   1.142   0.795  0.9762 -1.5771 -2.2114
  108MOL   H14732461   4.846   1.011   0.918  1.8145  1.5166 -0.5029
  108MOL   H14832462   4.604   0.969   0.684  1.0115  0.5796  2.2042
  108MOL   H14932463   4.624   0.825   0.467  0.7686  0.9362 -0.9886
  108MOL   H15032464   4.842   0.749   0.409 -0.4768 -0.2000  0.1021
  108MOL   H15132465   5.031   0.791   0.564 -0.3372 -0.3453 -0.2368
  108MOL   C15232466   4.878   1.182   0.810  0.8131 -0.2674  0.3871
  108MOL   C15332467   4.862   1.241   0.662  0.5597 -0.1916 -0.3963
  108MOL   C15432468   4.726   1.289   0.627 -0.3409 -0.1565  0.0858
  108MOL   C15532469   4.643   1.238   0.525  0.4727  0.0185  0.5868
  108MOL   C15632470   4.513   1.289   0.514  0.6993  0.9482 -0.1044
  108MOL   C15732471   4.459   1.371   0.614 -0.3183 -0.5675 -0.7529
  108MOL   C15832472   4.556   1.425   0.706  0.1569  0.6022  0.2727
  108MOL   N15932473   4.687   1.391   0.705  0.2255  0.0458  0.3089
  108MOL   H16032474   4.980   1.149   0.828  0.8802 -0.8287 -0.9359
  108MOL   H16132475   4.864   1.263   0.882 -0.3388 -0.5451  0.4825
  108MOL   H16232476   4.878   1.166   0.584 -1.1241 -0.0651 -0.8761
  108MOL   H16332477   4.669   1.169   0.446 -1.4987  0.2885 -0.3334
  108MOL   H16432478   4.448   1.257   0.433  0.9913  1.8765 -0.7005
  108MOL   H16532479   4.357   1.407   0.619 -0.4055 -0.5446 -2.6771
  108MOL   H16632480   4.540   1.514   0.765 -1.6979 -0.2517  1.0680
  108MOL   C16732481   4.958   1.356   0.624 -0.4467  0.4825  0.4894
  108MOL   C16832482   5.109   1.317   0.638 -0.2278 -0.2780  0.8595
  108MOL   C16932483   5.156   1.185   0.573 -0.5048  0.0362 -0.0073
  108MOL   C17032484   5.220   1.082   0.635 -0.8915  0.1440 -0.0448
  108MOL   C17132485   5.288   0.982   0.567  0.0904 -0.3326  0.6203
  108MOL   C17232486   5.288   0.990   0.425  0.3143  0.0436 -0.0013
  108MOL   C17332487   5.211   1.095   0.366 -0.5507 -0.1281 -0.2045
  108MOL   N17432488   5.152   1.189   0.440  0.2514 -0.3109 -0.5393
  108MOL   H17532489   4.942   1.443   0.688  1.0478  1.5471 -0.5412
  108MOL   H17632490   4.941   1.382   0.520 -0.5735  0.1409  0.4258
  108MOL   H17732491   5.128   1.305   0.744  1.3236 -0.6055  0.5579
  108MOL   H17832492   5.212   1.078   0.743  0.1566  1.0424  0.0653
  108MOL   H17932493   5.350   0.918   0.628  0.9484  0.8200  0.9741
  108MOL   H18032494   5.354   0.926   0.368 -0.6147 -0.0262 -1.0080
  108MOL   H18132495   5.216   1.113   0.260 -0.3778 -2.8558 -0.6956
  108MOL   C18232496   5.194   1.435   0.593  0.5323 -0.5330  0.7690
  108MOL   C18332497   5.317   1.470   0.671 -0.0351  0.4058 -0.1326
  108MOL   C18432498   5.420   1.359   0.680  0.5936  0.4241 -0.2642
  108MOL   C18532499   5.481   1.315   0.563  0.8214  0.3624 -0.7398
  108MOL   C18632500   5.568   1.204   0.573 -0.7362 -0.4440 -0.5015
  108MOL   C18732501   5.603   1.157   0.703 -0.0281 -0.6241  0.4157
  108MOL   C18832502   5.537   1.217   0.813  0.5435 -0.0099  0.1052
  108MOL   N18932503   5.444   1.309   0.802 -0.2939  0.8875 -0.1804
  108MOL   H19032504   5.132   1.524   0.597 -1.8401 -1.8788 -3.2468
  108MOL   H19132505   5.213   1.436   0.485 -3.3859  1.6653  0.0080
  108MOL   H19232506   5.275   1.473   0.772  0.9516  1.6856  0.2547
  108MOL   H19332507   5.450   1.356   0.468  1.1348 -0.5948 -1.2613
  108MOL   H19432508   5.614   1.155   0.489  1.3521  0.3885  0.1323
  108MOL   H19532509   5.676   1.078   0.715 -0.1669 -0.7844  0.2201
  108MOL   H19632510   5.569   1.197   0.914  0.8672  1.7539  0.3518
  108MOL   C19732511   5.372   1.615   0.626  0.4280 -0.0749  0.1333
  108MOL   C19832512   5.445   1.690   0.728 -0.0737  0.2880  0.1044
  108MOL   C19932513   5.353   1.717   0.847 -0.2844 -0.4038  0.0404
  108MOL   C20032514   5.345   1.633   0.962 -0.3025  0.1402  0.3809
  108MOL   C20132515   5.273   1.675   1.075 -0.2492 -0.8566  0.1255
  108MOL   C20232516   5.206   1.799   1.063 -0.3644 -0.5493 -0.3748
  108MOL   C20332517   5.207   1.874   0.942 -0.6990  0.0034  0.2335
  108MOL   N20432518   5.277   1.827   0.834 -0.3533  0.1004  0.0588
  108MOL   H20532519   5.293   1.684   0.595 -1.0823 -1.9505 -0.2570
  108MOL   H20632520   5.441   1.600   0.542  1.4771  1.2458  0.7243
  108MOL   H20732521   5.462   1.789   0.686 -0.5896  0.3074 -0.0628
  108MOL   H20832522   5.401   1.541   0.958 -0.4056  0.1255 -0.9287
  108MOL   H20932523   5.258   1.611   1.161 -1.4543  1.3133  1.6065
  108MOL   H21032524   5.144   1.839   1.143  1.7457  0.4029  0.8248
  108MOL   H21132525   5.148   1.964   0.935 -0.0266  0.5731  1.7338
  108MOL   C21232526   5.590   1.637   0.758 -0.0396 -0.0367  0.6640
  108MOL   C21332527   5.662   1.720   0.870 -0.0257 -0.2054  0.2632
  108MOL   C21432528   5.766   1.635   0.936  0.6996  0.6478  0.2989
  108MOL   C21532529   5.741   1.564   1.056 -0.2428  0.3789  0.5165
  108MOL   C21632530   5.838   1.470   1.097 -0.3670  0.5447  0.3331
  108MOL   C21732531   5.961   1.455   1.031 -0.4870 -0.1551  0.2925
  108MOL   C21832532   5.971   1.538   0.917 -0.3829 -0.4696  0.0970
  108MOL   N21932533   5.875   1.614   0.865  0.1921 -0.1480 -0.4706
  108MOL   H22032534   5.641   1.629   0.662  0.7673  1.0925  0.9899
  108MOL   H22132535   5.574   1.537   0.800 -0.7157 -0.5375 -0.7479
  108MOL   H22232536   5.588   1.723   0.950 -0.7134  3.5184 -0.4009
  108MOL   H22332537   5.642   1.568   1.100  0.3852  0.5787  1.9438
  108MOL   H22432538   5.812   1.416   1.187 -0.2271 -0.5730 -0.2846
  108MOL   H22532539   6.035   1.381   1.058 -1.2900 -0.9449  0.3703
  108MOL   H22632540   6.053   1.537   0.846  0.8569  0.8883  1.4752
  108MOL   C22732541   5.701   1.867   0.847  0.0519 -0.3799 -0.3473
  108MOL   C22832542   5.796   1.904   0.732 -0.3675 -0.2470  0.4027
  108MOL   C22932543   5.717   1.923   0.605  0.6588  0.1255 -0.5954
  108MOL   C23032544   5.727   1.834   0.497  0.6286 -0.1324 -0.1882
  108MOL   C23132545   5.634   1.850   0.395 -0.1003  0.2302  0.1492
  108MOL   C23232546   5.550   1.961   0.388 -0.3066 -0.2500 -0.5698
  108MOL   C23332547   5.556   2.051   0.488  0.3049 -0.3041 -0.5895
  108MOL   N23432548   5.636   2.031   0.601  0.1120 -0.7867  0.0172
  108MOL   H23532549   5.741   1.903   0.942  0.4508  3.0981 -1.7686
  108MOL   H23632550   5.612   1.929   0.835  0.7014  0.8744  1.1927
  108MOL   H23732551   5.859   1.818   0.711 -0.0159 -0.0546  0.6581
  108MOL   H23832552   5.793   1.749   0.493 -0.8873 -1.3430 -0.0218
  108MOL   H23932553   5.630   1.774   0.318 -1.6508  0.8465 -0.3939
  108MOL   H24032554   5.471   1.972   0.316 -1.7770 -1.2430  0.8333
  108MOL   H24132555   5.494   2.139   0.491 -0.5009 -0.8640 -0.7262
  108MOL   C24232556   5.896   2.022   0.760 -0.3219  0.0639  0.0737
  108MOL   C24332557   5.954   2.087   0.635 -0.2137 -0.8936  0.4318
  108MOL   C24432558   6.034   2.210   0.668 -0.4407  0.2636 -0.9493
  108MOL   C24532559   5.982   2.345   0.655 -0.1851  0.7568 -0.5289
  108MOL   C24632560   6.069   2.448   0.685  1.3621 -0.8146  0.6364
  108MOL   C24732561   6.198   2.420   0.738 -0.0975 -0.8995 -0.6819
  108MOL   C24832562   6.242   2.287   0.748  1.0129 -0.3149 -0.1053
  108MOL   N24932563   6.157   2.186   0.717 -0.1473 -0.6625  0.2520
  108MOL   H25032564   5.971   1.997   0.836 -0.8872 -1.2172  0.2267
  108MOL   H25132565   5.831   2.094   0.809 -1.4650 -0.3269 -0.8513
  108MOL   H25232566   5.874   2.115   0.566  0.4521 -0.0395  0.0009
  108MOL   H25332567   5.885   2.354   0.609 -1.1673 -2.2759  0.7692
  108MOL   H25432568   6.040   2.551   0.669  4.0532 -0.2836 -1.3104
  108MOL   H25532569   6.264   2.504   0.756  0.3615 -1.2655 -0.6529
  108MOL   H25632570   6.337   2.269   0.795  2.5359  0.5526 -2.7710
  108MOL   C25732571   6.041   1.982   0.551 -0.9244  0.5699 -1.1281
  108MOL   C25832572   6.086   2.025   0.415  0.1379  0.6662  0.6069
  108MOL   C25932573   6.211   1.943   0.373  0.1825 -0.2501  0.6442
  108MOL   C26032574   6.322   2.011   0.313  0.3797  0.6545  0.2898
  108MOL   C26132575   6.424   1.933   0.255 -0.3226  0.1569 -0.3268
  108MOL   C26232576   6.430   1.795   0.290  0.6435  0.0801 -0.2857
  108MOL   C26332577   6.323   1.735   0.364  0.1213 -0.7574  0.1591
  108MOL   N26432578   6.212   1.807   0.398  0.2303 -0.5004 -0.7125
  108MOL   H26532579   5.980   1.893   0.534  0.1096 -0.8632  2.0366
  108MOL   H26632580   6.127   1.963   0.616 -1.9955  0.1159  0.2011
  108MOL   H26732581   6.117   2.129   0.422 -1.2129  1.1817 -0.6140
  108MOL   H26832582   6.317   2.115   0.286 -0.5443  0.3763 -0.6706
  108MOL   H26932583   6.505   1.982   0.202  0.0959 -1.9245 -1.7006
  108MOL   H27032584   6.506   1.727   0.254 -0.1526 -1.1383  0.3058
  108MOL   H27132585   6.325   1.629   0.387  1.3862 -0.7153  0.2825
  108MOL   C27232586   5.983   1.995   0.294 -0.0844 -0.4965 -0.4280
  108MOL   C27332587   5.879   2.106   0.249 -0.2947 -0.1878 -0.4233
  108MOL   C27432588   5.943   2.244   0.249  0.5628 -0.1771 -0.4044
  108MOL   C27532589   6.060   2.258   0.172  0.5291 -0.3940 -0.4256
  108MOL   C27632590   6.109   2.394   0.167 -0.1977  0.0708 -0.8469
  108MOL   C27732591   6.062   2.491   0.256  0.0596 -0.6905  0.1991
  108MOL   C27832592   5.946   2.462   0.324  0.4566 -0.0664 -0.5125
  108MOL   N27932593   5.889   2.340   0.324 -0.0115  0.0230 -0.1829
  108MOL   H28032594   5.938   1.898   0.313  2.9493 -2.3960 -2.4771
  108MOL   H28132595   6.043   1.986   0.204  0.4939  0.3924 -0.1423
  108MOL   H28232596   5.808   2.111   0.332  0.8000  1.5981  0.4234
  108MOL   H28332597   6.102   2.176   0.116 -0.3204  0.4709 -2.3759
  108MOL   H28432598   6.201   2.408   0.112  0.8973 -1.2518  0.6001
  108MOL   H28532599   6.104   2.590   0.258  0.4615 -0.8578  0.1047
  108MOL   H28632600   5.895   2.532   0.389  0.3976  0.5856 -1.2420
  108MOL   C28732601   5.803   2.062   0.118 -0.3494 -0.1282 -0.1034
  108MOL   C28832602   5.709   2.167   0.072 -0.1122 -0.0297  0.5042
  108MOL   C28932603   5.647   2.160   8.082 -0.1968  0.1426 -0.5542
  108MOL   C29032604   5.516   2.110   8.066 -0.8617 -0.2102 -0.3374
  108MOL   C29132605   5.459   2.116   7.942  0.4585  0.0363 -0.3345
  108MOL   C29232606   5.532   2.157   7.831  0.0774 -0.2908 -0.3859
  108MOL   C29332607   5.668   2.196   7.855 -0.1628  0.0107  0.3586
  108MOL   N29432608   5.725   2.191   7.977 -0.3854 -0.0993 -0.3649
  108MOL   H29532609   5.755   1.967   0.140  2.4658 -1.4142  0.8135
  108MOL   H29632610   5.879   2.045   0.042 -0.2494  3.0039 -0.7967
  108MOL   H29732611   5.757   2.264   0.061 -2.1643  0.8667 -1.0001
  108MOL   H29832612   5.477   2.075   0.008  2.4004 -1.9306  0.4430
  108MOL   H29932613   5.354   2.092   7.930  0.9436 -2.4123  0.0321
  108MOL   H30032614   5.485   2.174   7.736 -2.2849 -1.9482  0.4316
  108MOL   H30132615   5.725   2.233   7.771  0.2049 -1.0367  0.1405
  108MOL   H30232616   5.629   2.179   0.145 -0.0960 -0.6397  0.6264
  109MOL     C132617   7.895   5.905   1.351  0.3271 -0.7254  0.1345
  109MOL     C232618   7.821   6.021   1.420 -0.3845  0.1854 -0.5594
  109MOL     C332619   7.867   6.028   1.572  0.0808  0.5941 -0.2119
  109MOL     C432620   7.777   6.043   1.676 -0.1889  0.2194 -0.1658
  109MOL     C532621   7.827   6.070   1.808 -0.1316  0.2033  0.6014
  109MOL     C632622   7.960   6.092   1.825  0.0159  0.3485  0.0126
  109MOL     C732623   8.042   6.074   1.715 -0.5770 -1.4852 -0.2749
  109MOL     N832624   8.000   6.041   1.593  0.4867  0.0339  0.0202
  109MOL     H932625   7.904   5.824   1.424  4.2053 -0.5922 -0.0980
  109MOL    H1032626   7.859   5.873   1.254  0.4746 -0.7057  0.0730
  109MOL    H1132627   7.719   5.985   1.435 -0.3553  0.7233  0.9505
  109MOL    H1232628   7.670   6.037   1.665 -0.1539 -0.2343 -0.3058
  109MOL    H1332629   7.760   6.079   1.892  0.8095 -0.4879  1.4261
  109MOL    H1432630   8.014   6.103   1.918  2.2474  1.1274 -1.3224
  109MOL    H1532631   8.147   6.078   1.739 -0.2266  1.2224 -1.9934
  109MOL    H1632632   7.992   5.949   1.330  0.0492  0.2101  0.7554
  109MOL    C1732633   7.827   6.155   1.344 -0.1234  0.0602  0.6082
  109MOL    C1832634   7.726   6.268   1.388  0.4784 -0.3804 -0.0685
  109MOL    C1932635   7.745   6.346   1.517 -0.2252  0.4633 -0.2051
  109MOL    C2032636   7.874   6.368   1.573  0.3233 -0.1337  1.1230
  109MOL    C2132637   7.899   6.430   1.694 -0.3787 -0.7206 -0.1189
  109MOL    C2232638   7.783   6.466   1.767 -0.1364  0.8307  0.0828
  109MOL    C2332639   7.657   6.439   1.714 -0.3581 -0.9961  0.4998
  109MOL    N2432640   7.638   6.383   1.594  0.0996  0.0729  0.3325
  109MOL    H2532641   7.805   6.151   1.238 -0.1465  0.6887  0.5880
  109MOL    H2632642   7.925   6.201   1.355  0.0024 -0.0259 -0.1919
  109MOL    H2732643   7.636   6.209   1.406 -1.1334  1.3784 -2.0398
  109MOL    H2832644   7.959   6.340   1.511 -0.5150  0.3301 -0.2478
  109MOL    H2932645   7.992   6.436   1.749  0.2879  0.0868 -1.2988
  109MOL    H3032646   7.789   6.516   1.862 -1.2663  3.7350 -1.3143
  109MOL    H3132647   7.566   6.477   1.757 -0.4773 -2.0871  1.2530
  109MOL    C3232648   7.665   6.353   1.267  0.9247 -0.2522  0.5624
  109MOL    C3332649   7.762   6.468   1.215  0.2122 -1.0198 -0.3166
  109MOL    C3432650   7.899   6.416   1.182 -0.0213  0.3952 -0.5054
  109MOL    C3532651   8.017   6.461   1.254 -0.3027  0.1078  0.1968
  109MOL    C3632652   8.144   6.403   1.222 -0.0871  0.3906 -0.1987
  109MOL    C3732653   0.001   6.305   1.122  0.8014  0.7371 -0.6698
  109MOL    C3832654   8.029   6.268   1.062 -0.2507 -0.0307 -0.2371
  109MOL    N3932655   7.903   6.319   1.089  0.0137  0.2710  0.4556
  109MOL    H4032656   7.571   6.400   1.296  1.4787  0.3810  1.3717
  109MOL    H4132657   7.648   6.282   1.187  0.1238  0.8622 -0.2614
  109MOL    H4232658   7.780   6.533   1.301 -3.0592  1.2108 -1.2487
  109MOL    H4332659   8.009   6.553   1.310  1.8211  0.2375  0.3194
  109MOL    H4432660   0.082   6.434   1.274  0.7474 -1.7677 -0.3023
  109MOL    H4532661   0.092   6.250   1.105  1.1847  1.3673 -0.6994
  109MOL    H4632662   8.028   6.198   0.979 -1.5369 -2.2009  1.5577
  109MOL    C4732663   7.700   6.556   1.104  0.0594 -0.4077  0.0286
  109MOL    C4832664   7.739   6.705   1.101  0.2851 -0.2998  0.4738
  109MOL    C4932665   7.763   6.753   0.955  0.2795 -0.0067  0.5081
  109MOL    C5032666   7.882   6.807   0.912 -0.0237 -0.5669 -0.1468
  109MOL    C5132667   7.884   6.852   0.784  0.3593  0.6665  0.1555
  109MOL    C5232668   7.775   6.842   0.698  0.0181 -0.2325  0.2306
  109MOL    C5332669   7.658   6.785   0.749 -0.1324 -0.1673 -0.1279
  109MOL    N5432670   7.651   6.739   0.875  0.0130  0.2425 -0.7070
  109MOL    H5532671   7.591   6.557   1.099  0.1331  1.1588 -1.5685
  109MOL    H5632672   7.726   6.516   1.006  0.7020  0.2387 -0.0652
  109MOL    H5732673   7.834   6.712   1.154 -0.3340  1.2823  1.3917
  109MOL    H5832674   7.956   6.831   0.988  0.0625  1.2251 -0.7653
  109MOL    H5932675   7.975   6.899   0.752 -0.0384  0.5684 -1.1526
  109MOL    H6032676   7.778   6.865   0.593  0.0152 -0.8723  0.0917
  109MOL    H6132677   7.563   6.769   0.700 -0.6170  0.2985  0.6512
  109MOL    C6232678   7.636   6.791   1.171  0.3715  0.5137 -0.1596
  109MOL    C6332679   7.639   6.782   1.327  0.1552 -0.2407 -0.1501
  109MOL    C6432680   7.773   6.817   1.389 -0.3078  0.1089  0.2263
  109MOL    C6532681   7.823   6.731   1.487  0.4144 -0.5838  0.1808
  109MOL    C6632682   7.933   6.770   1.564  0.4807  0.3818  0.1049
  109MOL    C6732683   7.991   6.893   1.521 -0.0889 -0.3369  0.0073
  109MOL    C6832684   7.930   6.972   1.420  0.5281 -0.1585  0.3573
  109MOL    N6932685   7.823   6.937   1.356 -0.4801  0.3483 -0.1577
  109MOL    H7032686   7.537   6.768   1.131  0.4240 -1.1259  0.6465
  109MOL    H7132687   7.664   6.893   1.144  1.7044 -0.3304 -2.1368
  109MOL    H7232688   7.623   6.683   1.370 -0.1987  1.1424  2.9953
  109MOL    H7332689   7.768   6.644   1.519  0.5641 -0.6178  0.3443
  109MOL    H7432690   7.973   6.711   1.645  2.2165  3.4495  1.5290
  109MOL    H7532691   8.081   6.936   1.564 -0.3679  1.0738 -0.7694
  109MOL    H7632692   7.976   7.064   1.387 -0.8700  0.3173 -0.2859
  109MOL    C7732693   7.538   6.881   1.392  1.0735 -0.3298  0.2624
  109MOL    C7832694   7.385   6.840   1.386  0.8392  0.5990  0.4569
  109MOL    C7932695   7.360   6.709   1.448 -0.5906 -0.0464 -0.0997
  109MOL    C8032696   7.336   6.596   1.372 -0.3727  0.0154  0.4891
  109MOL    C8132697   7.307   6.471   1.433 -0.7779 -0.1562  0.4676
  109MOL    C8232698   7.306   6.457   1.571  0.5256 -0.2700  0.0527
  109MOL    C8332699   7.329   6.573   1.647 -0.1587 -0.2238  0.2915
  109MOL    N8432700   7.360   6.692   1.584 -0.1421 -0.8463 -1.1966
  109MOL    H8532701   7.549   6.981   1.349 -2.1408  1.0047  2.3297
  109MOL    H8632702   7.549   6.899   1.499 -0.3081  1.2448  0.1733
  109MOL    H8732703   7.366   6.820   1.280  1.0581 -0.5190  0.6216
  109MOL    H8832704   7.341   6.608   1.265 -1.6167  1.5180  0.5774
  109MOL    H8932705   7.308   6.385   1.367  2.2375  0.9758 -1.0596
  109MOL    H9032706   7.273   6.366   1.619  0.8418  0.3214  1.4380
  109MOL    H9132707   7.315   6.570   1.754  2.0379 -1.8517  0.5586
  109MOL    C9232708   7.289   6.956   1.435 -0.6677  0.7883  0.1500
  109MOL    C9332709   7.144   6.938   1.394 -0.5043 -0.5316 -0.2231
  109MOL    C9432710   7.070   6.856   1.504 -0.1541 -0.1544 -0.0414
  109MOL    C9532711   7.025   6.734   1.464  0.4340  0.7905 -0.1229
  109MOL    C9632712   6.936   6.666   1.545  0.4275 -0.8683 -0.4821
  109MOL    C9732713   6.894   6.726   1.669 -0.4799  0.0032 -0.6597
  109MOL    C9832714   6.941   6.854   1.698 -0.2532  0.1865 -0.2851
  109MOL    N9932715   7.029   6.915   1.613  0.2158  0.0137 -0.0739
  109MOL   H10032716   7.327   7.044   1.383 -0.3453  0.4387 -0.2166
  109MOL   H10132717   7.302   6.976   1.541 -1.6860  0.5744  0.3237
  109MOL   H10232718   7.153   6.876   1.305  1.0297 -0.4643 -0.1250
  109MOL   H10332719   7.059   6.679   1.377  2.6145  0.5253  0.8697
  109MOL   H10432720   6.891   6.570   1.524 -1.0885 -0.5370  1.1389
  109MOL   H10532721   6.821   6.679   1.733 -0.7886  0.6715 -0.5206
  109MOL   H10632722   6.919   6.905   1.791 -0.2496  0.0702 -0.2209
  109MOL   C10732723   7.068   7.060   1.356  0.9243  0.8148  0.2776
  109MOL   C10832724   7.131   7.158   1.249 -0.2427  0.5034 -0.6302
  109MOL   C10932725   7.195   7.080   1.127  0.6506 -0.6748  0.1431
  109MOL   C11032726   7.336   7.082   1.104  0.0022  0.0465 -0.3590
  109MOL   C11132727   7.380   7.015   0.990  0.3228  0.7360 -0.5818
  109MOL   C11232728   7.291   6.956   0.902  0.5388 -0.3111 -0.8937
  109MOL   C11332729   7.151   6.966   0.930 -0.0277 -0.8647  0.3268
  109MOL   N11432730   7.106   7.023   1.043  0.2758  0.5405  0.2952
  109MOL   H11532731   7.049   7.117   1.447  1.5604  0.2859  0.7477
  109MOL   H11632732   6.972   7.026   1.318  2.2749 -2.0883 -0.7004
  109MOL   H11732733   7.213   7.215   1.293 -1.9813  2.2198  0.4358
  109MOL   H11832734   7.400   7.143   1.166 -1.3580  2.6142 -1.3836
  109MOL   H11932735   7.483   7.024   0.960  0.3760  0.0066 -0.6209
  109MOL   H12032736   7.323   6.899   0.816  0.2358 -3.2713  0.8667
  109MOL   H12132737   7.081   6.908   0.872 -1.5327  0.5869  0.6866
  109MOL   C12232738   7.031   7.268   1.196  0.4758 -0.0496  0.1068
  109MOL   C12332739   7.091   7.379   1.101  0.1928 -0.1832  0.8872
  109MOL   C12432740   7.037   7.357   0.958 -0.4553  0.5252 -1.1011
  109MOL   C12532741   7.135   7.338   0.861  0.1309 -0.1534  0.8437
  109MOL   C12632742   7.096   7.306   0.727  0.5459 -0.4959  0.3721
  109MOL   C12732743   6.959   7.315   0.697 -0.4426  0.4003 -0.1410
  109MOL   C12832744   6.871   7.353   0.802  0.4409  0.0911  0.3555
  109MOL   N12932745   6.909   7.366   0.930  0.1095 -0.5970  0.1249
  109MOL   H13032746   6.983   7.317   1.280  1.5067 -1.5294  1.5828
  109MOL   H13132747   6.950   7.215   1.145 -1.0393  0.0267  2.3607
  109MOL   H13232748   7.199   7.374   1.108  0.4105  0.2458 -1.8486
  109MOL   H13332749   7.238   7.334   0.892  0.7442 -1.4370 -1.2477
  109MOL   H13432750   7.161   7.277   0.645 -0.4658 -1.6281 -0.0428
  109MOL   H13532751   6.923   7.303   0.596 -0.1100  2.2520 -0.4981
  109MOL   H13632752   6.766   7.359   0.775  0.4857 -2.0210 -0.3446
  109MOL   C13732753   7.066   7.519   1.158  0.1402 -0.5190  0.4018
  109MOL   C13832754   7.148   7.629   1.080  0.3706  0.3131 -0.5812
  109MOL   C13932755   7.046   7.729   1.017 -0.3428 -0.0008 -0.9280
  109MOL   C14032756   7.035   7.731   0.878 -0.6770 -0.0481 -0.7218
  109MOL   C14132757   6.938   7.812   0.812  0.5045 -0.4079 -0.9033
  109MOL   C14232758   6.865   7.900   0.899 -0.2621 -0.0105  0.3088
  109MOL   C14332759   6.894   7.898   1.040  0.0141  1.3541  0.4454
  109MOL   N14432760   6.976   7.811   1.102 -0.1295 -0.2047 -0.2619
  109MOL   H14532761   7.083   7.526   1.266  4.2768  1.2769 -0.2855
  109MOL   H14632762   6.958   7.537   1.161  0.2406  0.5281 -1.7143
  109MOL   H14732763   7.201   7.592   0.992  0.1892  0.5017 -0.7698
  109MOL   H14832764   7.088   7.654   0.825 -3.4284 -1.7794 -1.0133
  109MOL   H14932765   6.922   7.801   0.706  0.4934 -3.2062 -0.6425
  109MOL   H15032766   6.783   7.960   0.863 -0.4094  1.1276  2.4573
  109MOL   H15132767   6.839   7.949   1.118 -1.3202 -0.9198  1.0354
  109MOL   C15232768   7.248   7.697   1.174 -0.4326  0.8060  0.2703
  109MOL   C15332769   7.370   7.611   1.226  0.2607 -0.0188 -0.1187
  109MOL   C15432770   7.472   7.600   1.116 -0.1541 -0.5868 -0.5136
  109MOL   C15532771   7.523   7.478   1.067  0.7520 -0.3152  0.2606
  109MOL   C15632772   7.629   7.480   0.976 -0.1113  0.7642 -0.3003
  109MOL   C15732773   7.679   7.603   0.935  0.0164  0.4211 -0.0748
  109MOL   C15832774   7.620   7.716   0.989 -0.2141 -0.2671  0.5599
  109MOL   N15932775   7.518   7.719   1.069  0.0570  0.3510 -0.7162
  109MOL   H16032776   7.188   7.740   1.255 -1.6810  0.2364 -0.3348
  109MOL   H16132777   7.293   7.787   1.133  2.5965 -0.3544  0.9408
  109MOL   H16232778   7.346   7.513   1.266 -0.5475  0.6812  1.1576
  109MOL   H16332779   7.470   7.387   1.090  1.8913 -1.3395 -1.0694
  109MOL   H16432780   7.659   7.384   0.939  0.0135  0.7636 -0.1975
  109MOL   H16532781   7.746   7.607   0.850  2.4114 -1.2140  1.6807
  109MOL   H16632782   7.664   7.810   0.959 -0.4431 -0.3407 -0.0168
  109MOL   C16732783   7.420   7.681   1.359  0.8108  0.7297  0.1553
  109MOL   C16832784   7.341   7.668   1.488  0.4220  0.3795  0.0110
  109MOL   C16932785   7.322   7.522   1.537 -0.5050 -0.9501  0.6858
  109MOL   C17032786   7.219   7.500   1.624  0.4920 -0.3049 -0.2837
  109MOL   C17132787   7.215   7.373   1.689  0.4468  0.3104 -0.2434
  109MOL   C17232788   7.304   7.276   1.648  0.0663 -0.4756 -0.3311
  109MOL   C17332789   7.407   7.315   1.559 -0.1477  0.2174 -0.3867
  109MOL   N17432790   7.418   7.435   1.503  0.3567  0.7366  0.5239
  109MOL   H17532791   7.445   7.786   1.338 -0.0359  1.0580  0.7811
  109MOL   H17632792   7.526   7.656   1.363  0.3248 -2.0759 -2.4840
  109MOL   H17732793   7.242   7.711   1.473  1.6440  2.3464 -2.8285
  109MOL   H17832794   7.159   7.588   1.644 -0.7241 -1.3103  0.5434
  109MOL   H17932795   7.131   7.358   1.755  0.9816 -0.3006  0.2980
  109MOL   H18032796   7.298   7.174   1.685 -2.3856  0.3809  1.8090
  109MOL   H18132797   7.472   7.235   1.525 -1.1979 -0.7606 -0.1471
  109MOL   C18232798   7.417   7.748   1.598 -0.4661  0.1766  0.7303
  109MOL   C18332799   7.404   7.902   1.590  0.0072  0.0636 -0.1806
  109MOL   C18432800   7.260   7.940   1.604  0.2039 -0.8711  0.3553
  109MOL   C18532801   7.193   7.983   1.489  1.2605  0.3432 -0.0016
  109MOL   C18632802   7.049   7.988   1.497 -0.2167 -1.0838 -0.1082
  109MOL   C18732803   6.982   7.964   1.618 -0.1936 -0.2913 -0.3762
  109MOL   C18832804   7.063   7.927   1.722  0.0093 -0.1214  0.5198
  109MOL   N18932805   7.197   7.916   1.719 -0.0086  0.3133  0.0594
  109MOL   H19032806   7.521   7.715   1.609 -0.5163 -0.0582  0.5314
  109MOL   H19132807   7.382   7.723   1.698  1.4102  1.5159  1.7564
  109MOL   H19232808   7.428   7.946   1.493  2.0926 -1.0116 -0.1598
  109MOL   H19332809   7.238   8.003   1.393 -1.6328  0.0032 -1.4842
  109MOL   H19432810   6.994   8.009   1.407 -2.0106  1.4529  1.5348
  109MOL   H19532811   6.875   7.969   1.623 -0.1802  0.3678 -0.6921
  109MOL   H19632812   7.024   7.899   1.819  0.2689 -1.7996  0.1619
  109MOL   C19732813   7.489   7.976   1.689 -0.2336  0.5682 -0.6448
  109MOL   C19832814   7.641   7.957   1.676  0.7661 -0.0608  0.1211
  109MOL   C19932815   7.697   8.008   1.546 -0.4494 -0.4843  0.6592
  109MOL   C20032816   7.754   7.921   1.450 -0.4125 -0.3736 -0.3157
  109MOL   C20132817   7.807   7.983   1.332  0.7282 -0.3940  0.1095
  109MOL   C20232818   7.805   8.121   1.315 -0.5395  0.4791 -0.1717
  109MOL   C20332819   7.745   0.042   1.422 -0.1346  0.1783 -0.2111
  109MOL   N20432820   7.695   8.139   1.535  1.2206 -0.3281  0.5616
  109MOL   H20532821   7.459   7.949   1.791  0.6275  2.9348  0.2668
  109MOL   H20632822   7.472   8.082   1.672  0.6811  0.6248 -1.2336
  109MOL   H20732823   7.660   7.850   1.670  1.1952 -0.0456  1.0404
  109MOL   H20832824   7.762   7.815   1.466 -0.0601 -0.6071 -1.9530
  109MOL   H20932825   7.843   7.918   1.254  0.0388  1.4898 -1.8178
  109MOL   H21032826   7.833   0.019   1.223 -1.3396 -1.0685 -1.2674
  109MOL   H21132827   7.742   0.150   1.416 -1.0848  0.2140  0.8046
  109MOL   C21232828   7.721   8.021   1.795 -0.3393  0.0094 -0.0242
  109MOL   C21332829   7.764   7.920   1.901  0.2039  0.4451  0.1477
  109MOL   C21432830   7.643   7.848   1.963  0.2302 -0.9190  0.4426
  109MOL   C21532831   7.583   7.899   2.081  0.0519  0.0239 -0.0156
  109MOL   C21632832   7.473   7.830   2.138  1.2516 -0.0442  0.2418
  109MOL   C21732833   7.434   7.709   2.074 -0.4316 -0.6418  0.1285
  109MOL   C21832834   7.497   7.670   1.958 -0.7048  0.2434  0.2740
  109MOL   N21932835   7.603   7.734   1.903 -0.4599  0.6920 -0.2373
  109MOL   H22032836   7.674   8.102   1.851 -0.0278 -1.1076  1.9168
  109MOL   H22132837   7.819   8.056   1.763 -0.4123  0.1244 -0.1191
  109MOL   H22232838   7.805   7.981   1.981  2.0462  0.0267 -0.4611
  109MOL   H22332839   7.626   7.990   2.120 -0.2963  0.7566 -1.3167
  109MOL   H22432840   7.427   7.860   2.232  1.9509  0.5145  0.4197
  109MOL   H22532841   7.351   7.654   2.116  0.2125 -1.6866  0.0689
  109MOL   H22632842   7.466   7.583   1.901 -0.0212 -1.0049  1.7956
  109MOL   C22732843   7.888   7.835   1.867 -0.0201  0.0157 -0.4279
  109MOL   C22832844   8.028   7.901   1.881 -0.2217  0.2629 -0.6746
  109MOL   C22932845   8.047   7.976   2.015  0.3276 -0.0489 -0.3068
  109MOL   C23032846   8.074   8.120   2.011  0.3751  0.1742 -0.0018
  109MOL   C23132847   8.081   0.029   2.139 -0.0365 -0.3311 -0.5756
  109MOL   C23232848   8.076   8.107   2.258  0.0319 -0.3230  0.3099
  109MOL   C23332849   8.053   7.969   2.252 -0.1664 -0.0356 -0.6116
  109MOL   N23432850   8.046   7.901   2.131  0.0266 -0.3892 -0.2039
  109MOL   H23532851   7.874   7.795   1.767 -1.3103  0.0446 -0.2591
  109MOL   H23632852   7.881   7.747   1.932  1.5722 -0.6693 -1.1356
  109MOL   H23732853   8.022   7.985   1.813  4.3201  2.3172  1.2672
  109MOL   H23832854   8.090   0.014   1.915  3.0534 -2.3881 -0.8526
  109MOL   H23932855   8.113   0.132   2.134 -0.4201 -0.3069 -3.4261
  109MOL   H24032856   8.081   0.009   2.351  1.7601 -0.8129  0.5152
  109MOL   H24132857   8.055   7.905   2.339 -1.5050 -1.9047 -1.9130
  109MOL   C24232858   8.145   7.809   1.852 -0.3209  0.2724  1.2336
  109MOL   C24332859   0.008   7.767   1.699 -0.0193  0.2825  0.3840
  109MOL   C24432860   0.069   7.879   1.619 -0.1270 -0.5379 -0.0542
  109MOL   C24532861   8.141   7.954   1.528 -0.3665 -0.1729 -1.0899
  109MOL   C24632862   0.051   8.050   1.447 -0.7020 -0.1614  0.3684
  109MOL   C24732863   0.185   8.083   1.478 -0.7846  0.2031 -0.2929
  109MOL   C24832864   0.254   8.008   1.583  0.0617 -0.2305  0.2529
  109MOL   N24932865   0.197   7.909   1.648 -1.0716  0.2362 -0.0391
  109MOL   H25032866   8.133   7.726   1.921 -3.4280 -0.1713  0.2625
  109MOL   H25132867   0.084   7.850   1.897 -0.5630 -0.7569  2.6715
  109MOL   H25232868   8.058   7.752   1.663  0.0936 -0.0174  0.1884
  109MOL   H25332869   8.037   7.933   1.510 -1.2966  0.9558  2.4865
  109MOL   H25432870   8.148   8.097   1.367  0.0208 -1.7803 -1.0915
  109MOL   H25532871   0.236   0.007   1.421 -1.5709 -0.8118 -2.3860
  109MOL   H25632872   0.359   8.019   1.607  0.7232  0.6285 -2.8460
  109MOL   C25732873   0.097   7.634   1.686  0.0232  0.4175  0.1940
  109MOL   C25832874   0.039   7.496   1.710  0.4992 -0.1122 -0.2876
  109MOL   C25932875   8.043   7.488   1.672 -0.0709  0.3391 -0.5586
  109MOL   C26032876   8.016   7.472   1.535 -0.0947  0.9253 -0.0107
  109MOL   C26132877   7.883   7.471   1.491  0.3659  0.1236 -0.6115
  109MOL   C26232878   7.777   7.484   1.581  0.1192  0.5235 -0.0033
  109MOL   C26332879   7.818   7.508   1.719 -0.8960  0.8156  0.4795
  109MOL   N26432880   7.945   7.520   1.763  0.3135 -0.0354 -0.4325
  109MOL   H26532881   0.186   7.650   1.748  0.5790 -0.8949 -0.2413
  109MOL   H26632882   0.129   7.642   1.582 -1.0367  2.0618 -0.0310
  109MOL   H26732883   0.041   7.482   1.818  0.0422  0.1945 -0.2388
  109MOL   H26832884   8.093   7.447   1.463 -1.6868  0.4535 -1.5643
  109MOL   H26932885   7.860   7.435   1.392 -1.7794 -3.5990  1.0868
  109MOL   H27032886   7.676   7.460   1.551  0.1921 -1.1536  1.0150
  109MOL   H27132887   7.746   7.530   1.797 -1.8023  1.5751 -0.5565
  109MOL   C27232888   0.133   7.386   1.651  0.0857  0.5992 -0.1471
  109MOL   C27332889   0.106   7.245   1.690  0.8485  0.1942  0.1521
  109MOL   C27432890   0.205   7.146   1.620 -0.0470 -0.3775 -0.5546
  109MOL   C27532891   0.342   7.158   1.634 -0.6414  0.3730  0.2605
  109MOL   C27632892   0.422   7.081   1.548 -0.8041 -0.2959  0.0591
  109MOL   C27732893   0.361   6.987   1.463 -0.0350  0.1118  0.5867
  109MOL   C27832894   0.224   6.988   1.450  1.2089 -0.4957 -0.2539
  109MOL   N27932895   0.145   7.058   1.528  0.0675  0.7315 -0.0054
  109MOL   H28032896   0.238   7.402   1.677 -0.2881  1.1679  1.0533
  109MOL   H28132897   0.143   7.405   1.544  0.6076  1.6830  0.0945
  109MOL   H28232898   0.011   7.227   1.640  0.8445  0.2670  0.1355
  109MOL   H28332899   0.381   7.234   1.701 -0.5653 -0.4117  1.1249
  109MOL   H28432900   0.530   7.089   1.555 -0.7886  0.1833 -0.7463
  109MOL   H28532901   0.419   6.927   1.394  0.0294  1.7872 -0.8610
  109MOL   H28632902   0.176   6.935   1.369 -1.2672  1.8964 -0.4415
  109MOL   C28732903   0.095   7.218   1.842  0.5752  0.1926 -0.7635
  109MOL   C28832904   8.101   7.208   1.899 -0.5202  0.4805 -0.0067
  109MOL   C28932905   8.032   7.082   1.883 -0.1375 -0.0629 -0.6122
  109MOL   C29032906   7.916   7.075   1.803 -0.2116 -0.3999 -0.1537
  109MOL   C29132907   7.845   6.952   1.798  0.2063  0.3400  0.2298
  109MOL   C29232908   7.888   6.851   1.883  0.3105 -0.6502  0.0398
  109MOL   C29332909   7.992   6.874   1.972  0.3570 -0.0504  0.2616
  109MOL   N29432910   8.063   6.983   1.973 -0.0461 -0.0439 -0.0167
  109MOL   H29532911   0.136   7.306   1.892 -1.6419  0.1996  1.1749
  109MOL   H29632912   0.150   7.129   1.873  0.2022  0.0279 -0.5638
  109MOL   H29732913   8.037   7.287   1.860  0.4403  1.3499  0.1565
  109MOL   H29832914   7.889   7.156   1.737 -1.6432  0.5483  1.5703
  109MOL   H29932915   7.760   6.927   1.735  1.1793 -2.1602 -0.1536
  109MOL   H30032916   7.835   6.756   1.886 -0.0845 -0.4004  2.2373
  109MOL   H30132917   8.014   6.798   2.045  0.3648  0.1622  0.4820
  109MOL   H30232918   8.109   7.245   2.002  1.7802  1.6035 -0.5423
  110MOL     C132919   1.982   2.317   0.074  0.3852 -1.1313  0.0698
  110MOL     C232920   1.928   2.406   8.120  0.2756 -0.2049 -1.3404
  110MOL     C332921   2.000   2.545   8.109 -0.5657  0.1430  0.0079
  110MOL     C432922   1.928   2.656   8.071  0.6233 -0.4612  0.7480
  110MOL     C532923   1.993   2.777   8.061 -0.1650 -0.6882  0.1162
  110MOL     C632924   2.127   2.786   8.081  1.4400 -0.1395 -0.1492
  110MOL     C732925   2.192   2.665   8.120 -0.3582 -0.1952 -0.2183
  110MOL     N832926   2.132   2.548   8.135 -0.8443 -0.1085 -0.1355
  110MOL     H932927   2.081   2.276   0.053  0.9687  0.7659 -0.9971
  110MOL    H1032928   1.994   2.368   0.169 -1.5000 -2.3701  1.0016
  110MOL    H1132929   1.822   2.423   8.139  0.5529 -1.1121  1.1735
  110MOL    H1232930   1.824   2.647   8.041  0.9624  0.6349 -0.7915
  110MOL    H1332931   1.942   2.863   8.020  2.4960  1.1240  0.4511
  110MOL    H1432932   2.179   2.881   8.087 -1.2980  1.5917 -2.4816
  110MOL    H1532933   2.295   2.669   0.001 -0.2707 -2.3323 -0.1779
  110MOL    H1632934   1.917   2.233   0.099 -0.9936 -0.4821 -1.2550
  110MOL    C1732935   1.926   2.336   7.981  0.2260 -0.1528  0.5985
  110MOL    C1832936   1.819   2.219   7.970  0.1758 -0.2763 -0.6120
  110MOL    C1932937   1.677   2.266   7.968  0.5083 -0.2380  0.3232
  110MOL    C2032938   1.579   2.223   8.062 -0.2951 -0.8327  0.5300
  110MOL    C2132939   1.444   2.251   8.037 -0.2753  0.8442 -0.2688
  110MOL    C2232940   1.410   2.313   7.919 -0.4444 -0.4048 -0.8024
  110MOL    C2332941   1.515   2.360   7.830 -0.3376  0.1193 -0.6475
  110MOL    N2432942   1.644   2.332   7.856 -0.2605  0.1589  0.4418
  110MOL    H2532943   2.016   2.281   7.955  0.3181  0.3744 -0.1975
  110MOL    H2632944   1.916   2.409   7.901 -2.0705 -0.3836  0.6341
  110MOL    H2732945   1.805   2.174   8.068  2.4702 -1.3707 -0.7595
  110MOL    H2832946   1.596   2.156   8.145 -0.7771 -0.3047  1.0583
  110MOL    H2932947   1.381   2.208   8.114  2.0787  1.1279  1.8831
  110MOL    H3032948   1.306   2.336   7.904 -0.8749 -0.9448  1.1578
  110MOL    H3132949   1.490   2.420   7.744  4.1108  0.1834 -1.9924
  110MOL    C3232950   1.848   2.116   7.860  0.3572 -0.0134 -0.5925
  110MOL    C3332951   1.933   1.991   7.898 -0.5679  0.0868 -0.5358
  110MOL    C3432952   1.890   1.937   8.039  0.4404 -0.0884 -0.1678
  110MOL    C3532953   1.968   1.942   0.003  0.1615 -0.5818  0.9071
  110MOL    C3632954   1.907   1.911   0.126 -0.2447 -0.6655 -0.0616
  110MOL    C3732955   1.772   1.870   0.126  0.3181  0.2733  0.5118
  110MOL    C3832956   1.705   1.856   0.006 -1.0024 -0.4355  0.4383
  110MOL    N3932957   1.761   1.893   8.041 -1.0054  0.4690  0.0153
  110MOL    H4032958   1.862   2.169   7.766 -0.7702 -0.7448 -1.1838
  110MOL    H4132959   1.759   2.063   7.826  0.2588  0.8280 -1.6911
  110MOL    H4232960   2.028   2.041   7.916 -2.1276  2.8218  0.3667
  110MOL    H4332961   2.064   1.991   0.004  0.7013 -1.6214  0.8366
  110MOL    H4432962   1.963   1.917   0.218 -1.2226 -3.3735  0.7530
  110MOL    H4532963   1.724   1.839   0.218  0.6895  0.4377  0.7613
  110MOL    H4632964   1.612   1.801   0.002 -0.8224 -0.8289  1.5582
  110MOL    C4732965   1.935   1.880   7.790 -0.7905 -0.1250 -0.6818
  110MOL    C4832966   2.000   1.918   7.654 -0.5072  0.2498 -0.3103
  110MOL    C4932967   2.127   2.003   7.670 -0.6116  0.3601  0.1618
  110MOL    C5032968   2.143   2.139   7.634  0.4904 -0.4926  0.4487
  110MOL    C5132969   2.268   2.206   7.634  0.3339 -0.2492  0.3474
  110MOL    C5232970   2.371   2.131   7.691 -0.3112  0.1314  0.0655
  110MOL    C5332971   2.349   1.995   7.734 -0.3006 -0.1577 -0.4004
  110MOL    N5432972   2.230   1.934   7.728 -0.1906  0.3215 -0.4316
  110MOL    H5532973   1.839   1.830   7.776 -0.1529 -1.4055 -0.6048
  110MOL    H5632974   2.008   1.812   7.835  0.2445  1.6534  0.3666
  110MOL    H5732975   1.930   1.986   7.606 -0.9969  0.4491  0.6760
  110MOL    H5832976   2.060   2.195   7.594 -0.4387 -0.6461  2.1380
  110MOL    H5932977   2.284   2.301   7.585 -1.2791 -0.0954  0.0900
  110MOL    H6032978   2.474   2.162   7.686 -0.7404  1.3236 -2.0891
  110MOL    H6132979   2.430   1.939   7.777  0.0362  0.6585  0.0478
  110MOL    C6232980   2.024   1.799   7.559 -0.6146 -0.3168 -0.6011
  110MOL    C6332981   2.051   1.828   7.404  0.6811 -0.7546 -0.4419
  110MOL    C6432982   1.939   1.905   7.336  0.5162  0.2045 -0.4436
  110MOL    C6532983   1.841   1.832   7.258 -0.5863  0.6220 -0.2394
  110MOL    C6632984   1.746   1.905   7.190 -0.7741 -1.0358 -0.3133
  110MOL    C6732985   1.746   2.046   7.197 -0.2726 -0.3370  0.7669
  110MOL    C6832986   1.844   2.107   7.271  0.1451  0.0749 -0.3691
  110MOL    N6932987   1.938   2.041   7.349 -0.5876 -0.3155 -0.0107
  110MOL    H7032988   1.936   1.737   7.544 -2.0652  1.8390 -1.1563
  110MOL    H7132989   2.097   1.728   7.598 -1.1791 -1.0785 -0.9243
  110MOL    H7232990   2.049   1.733   7.350  0.5260 -0.0919 -1.6207
  110MOL    H7332991   1.853   1.725   7.257 -2.7162  0.3641 -0.3136
  110MOL    H7432992   1.660   1.863   7.139 -0.8591 -0.3739 -0.7244
  110MOL    H7532993   1.669   2.112   7.159  0.2155 -0.3488 -0.2577
  110MOL    H7632994   1.851   2.215   7.281 -1.1664  0.0036  1.5345
  110MOL    C7732995   2.193   1.879   7.350 -0.4445 -0.1700  0.1596
  110MOL    C7832996   2.324   1.805   7.410 -0.1185 -0.0779 -0.1554
  110MOL    C7932997   2.309   1.653   7.411  0.1609 -0.2293  0.0772
  110MOL    C8032998   2.316   1.578   7.528  1.1366  0.0019 -0.0784
  110MOL    C8132999   2.331   1.431   7.522  0.0491 -0.2755  0.1891
  110MOL    C8233000   2.321   1.373   7.393 -0.0895 -0.0084 -0.4805
  110MOL    C8333001   2.311   1.464   7.279 -0.4108  0.5282 -0.1269
  110MOL    N8433002   2.313   1.598   7.291 -0.1652 -0.1173  0.0114
  110MOL    H8533003   2.193   1.987   7.365  0.9638 -0.3433  1.5954
  110MOL    H8633004   2.194   1.850   7.245 -0.4803  0.2348  0.0502
  110MOL    H8733005   2.325   1.820   7.518 -1.2068  0.1831 -0.1814
  110MOL    H8833006   2.327   1.625   7.624  2.2583 -0.3485 -0.0234
  110MOL    H8933007   2.328   1.381   7.617  0.8888 -0.8017 -0.0551
  110MOL    H9033008   2.321   1.266   7.380 -0.9122  0.1551 -1.8774
  110MOL    H9133009   2.300   1.428   7.178 -0.0857  0.1504 -0.0301
  110MOL    C9233010   2.454   1.853   7.340  0.0223 -0.7458 -0.0706
  110MOL    C9333011   2.583   1.801   7.412  0.1728  0.5937 -0.3255
  110MOL    C9433012   2.709   1.819   7.321  0.0744  0.6535  0.3868
  110MOL    C9533013   2.785   1.708   7.286 -0.2841 -0.5407  0.7868
  110MOL    C9633014   2.896   1.733   7.205 -0.1057  0.0721 -0.0466
  110MOL    C9733015   2.931   1.865   7.166 -0.6284 -0.6871 -0.3506
  110MOL    C9833016   2.848   1.970   7.211  0.3506  0.1355  0.0441
  110MOL    N9933017   2.739   1.949   7.288 -0.2881 -0.1373 -0.0190
  110MOL   H10033018   2.459   1.962   7.337 -0.2553 -0.6706  1.9311
  110MOL   H10133019   2.456   1.808   7.241 -0.6219  1.7283 -1.2496
  110MOL   H10233020   2.587   1.695   7.434  0.8805  0.3775 -1.4330
  110MOL   H10333021   2.750   1.608   7.305 -0.1186 -1.1582 -1.9653
  110MOL   H10433022   2.957   1.655   7.162  1.0717  0.6133  0.6260
  110MOL   H10533023   3.015   1.883   7.101  0.0061 -2.1158  0.0609
  110MOL   H10633024   2.871   2.074   7.190  0.1591  0.5437  1.7405
  110MOL   C10733025   2.614   1.860   7.557  0.3297 -0.1390  0.5099
  110MOL   C10833026   2.763   1.865   7.605 -0.7272 -0.0105 -0.6589
  110MOL   C10933027   2.772   1.981   7.711 -0.7787 -0.4410 -0.7086
  110MOL   C11033028   2.832   2.101   7.670  0.1483  0.7268 -0.0700
  110MOL   C11133029   2.840   2.206   7.755  0.3865  0.1683  0.2200
  110MOL   C11233030   2.769   2.193   7.874 -0.6481  1.0191 -0.6085
  110MOL   C11333031   2.714   2.068   7.915  0.3261 -0.0872 -0.2959
  110MOL   N11433032   2.713   1.962   7.830 -0.4710  0.2273  0.0138
  110MOL   H11533033   2.558   1.796   7.625  0.1906 -0.5859 -0.0150
  110MOL   H11633034   2.586   1.965   7.559 -3.6194 -1.0896 -0.2032
  110MOL   H11733035   2.831   1.897   7.527  3.5861  2.5617  3.8801
  110MOL   H11833036   2.872   2.104   7.570  2.0423  1.4407  0.6750
  110MOL   H11933037   2.899   2.295   7.740 -1.3030  1.0643 -1.1912
  110MOL   H12033038   2.774   2.273   7.947 -1.0250 -0.7426  1.3879
  110MOL   H12133039   2.660   2.046   8.006 -0.2774 -0.6500 -0.7920
  110MOL   C12233040   2.814   1.731   7.669  0.1084  0.2303  0.0405
  110MOL   C12333041   2.971   1.699   7.658  0.5260 -0.4710 -0.7532
  110MOL   C12433042   3.045   1.811   7.729 -0.8129  0.4402  0.3588
  110MOL   C12533043   3.119   1.905   7.653  0.8499 -0.9940 -0.4406
  110MOL   C12633044   3.193   2.009   7.719 -0.1857 -0.0579  0.0207
  110MOL   C12733045   3.192   2.003   7.864 -0.2783  0.1539 -0.2050
  110MOL   C12833046   3.123   1.900   7.925  0.2881 -0.0754 -0.6432
  110MOL   N12933047   3.046   1.807   7.864 -0.2475 -0.5303  0.4939
  110MOL   H13033048   2.757   1.647   7.629 -1.4378  0.7038  1.2521
  110MOL   H13133049   2.795   1.733   7.776 -1.8187  1.7019 -0.2940
  110MOL   H13233050   3.005   1.702   7.554 -0.3958 -1.4612 -1.0841
  110MOL   H13333051   3.117   1.900   7.545 -1.1566 -0.8826 -0.4301
  110MOL   H13433052   3.235   2.093   7.666  1.1053 -0.1486  0.8786
  110MOL   H13533053   3.233   2.080   7.928 -1.7270  1.3055 -0.6248
  110MOL   H13633054   3.118   1.891   8.032  1.9877 -0.8446 -0.6190
  110MOL   C13733055   3.010   1.564   7.719  0.3726 -0.5765 -0.2896
  110MOL   C13833056   3.165   1.543   7.742 -0.3435  0.2043 -0.0844
  110MOL   C13933057   3.173   1.420   7.833 -0.4399 -0.4705 -0.2482
  110MOL   C14033058   3.264   1.431   7.938 -0.0779  0.3605 -0.0750
  110MOL   C14133059   3.292   1.320   8.016  0.2340 -0.0326 -0.3916
  110MOL   C14233060   3.240   1.196   7.972 -0.7338 -0.1845  0.3499
  110MOL   C14333061   3.133   1.194   7.883 -0.7845  0.6233  0.7680
  110MOL   N14433062   3.107   1.303   7.806 -0.5083  0.0777 -0.5328
  110MOL   H14533063   2.969   1.485   7.657  1.9580 -2.3621  0.8784
  110MOL   H14633064   2.961   1.572   7.816 -0.1887  1.5782 -0.7184
  110MOL   H14733065   3.205   1.631   7.792  3.1867 -0.6927 -1.1997
  110MOL   H14833066   3.310   1.527   7.954 -1.2066  1.3704 -2.6153
  110MOL   H14933067   3.357   1.332   8.101 -2.2035  1.0378  1.4062
  110MOL   H15033068   3.269   1.104   8.020  1.4476 -0.1185 -0.7935
  110MOL   H15133069   3.081   1.100   7.872  0.5741  0.0314 -0.8306
  110MOL   C15233070   3.228   1.516   7.607 -0.1385  0.2620  0.7108
  110MOL   C15333071   3.380   1.525   7.613  0.4786  0.5766  0.1920
  110MOL   C15433072   3.441   1.404   7.544  0.2464  0.3224 -0.0588
  110MOL   C15533073   3.511   1.304   7.617 -0.0333 -0.4033 -0.3894
  110MOL   C15633074   3.572   1.201   7.546  0.5009  0.8642 -0.2629
  110MOL   C15733075   3.551   1.188   7.407  0.0606 -0.1101 -0.1037
  110MOL   C15833076   3.485   1.297   7.340 -0.4689  0.3215 -0.4469
  110MOL   N15933077   3.438   1.403   7.409  0.5183  0.0726  0.3568
  110MOL   H16033078   3.192   1.576   7.523  2.0949 -2.2131 -2.0954
  110MOL   H16133079   3.196   1.415   7.583 -1.2002  0.1422  2.5126
  110MOL   H16233080   3.424   1.507   7.711  0.4227  4.1801  0.9519
  110MOL   H16333081   3.534   1.320   7.721 -2.1202 -0.0969  0.0484
  110MOL   H16433082   3.636   1.127   7.592  0.9462  2.3412  1.5034
  110MOL   H16533083   3.579   1.092   7.368 -0.4113 -0.7528  1.1229
  110MOL   H16633084   3.478   1.302   7.233 -0.8353 -1.2582 -0.5138
  110MOL   C16733085   3.428   1.664   7.560 -0.7230 -0.9536 -0.2965
  110MOL   C16833086   3.488   1.755   7.673 -1.0073 -0.1554 -0.1957
  110MOL   C16933087   3.615   1.686   7.731  0.3742  0.5731  0.8869
  110MOL   C17033088   3.613   1.620   7.853  0.5522  0.0769  0.1458
  110MOL   C17133089   3.723   1.550   7.891  0.7276  0.2326  0.9534
  110MOL   C17233090   3.836   1.546   7.806  0.5235 -0.2041  0.0257
  110MOL   C17333091   3.825   1.615   7.684 -0.2731  0.8953  0.0649
  110MOL   N17433092   3.715   1.676   7.648  0.0408  0.3915  0.5583
  110MOL   H17533093   3.352   1.713   7.500 -2.6999 -0.8271  2.2280
  110MOL   H17633094   3.505   1.657   7.483  1.0121  1.1222  1.1910
  110MOL   H17733095   3.419   1.760   7.756 -0.3750 -1.0003  0.3939
  110MOL   H17833096   3.525   1.604   7.915 -0.0285  0.0411 -0.6851
  110MOL   H17933097   3.732   1.490   7.980  0.6624 -1.7215 -0.3116
  110MOL   H18033098   3.922   1.487   7.835  0.1496 -0.9951 -0.4754
  110MOL   H18133099   3.914   1.611   7.623  1.6697  1.8705  2.7151
  110MOL   C18233100   3.526   1.894   7.633  0.4461 -0.3192 -0.4563
  110MOL   C18333101   3.611   1.983   7.739 -0.2034  0.2212  0.0607
  110MOL   C18433102   3.640   2.115   7.671  1.2204  0.4148  0.6162
  110MOL   C18533103   3.774   2.144   7.630  0.3065  0.4339  0.0997
  110MOL   C18633104   3.811   2.260   7.567 -0.0689 -0.3761 -0.2617
  110MOL   C18733105   3.708   2.355   7.550 -0.9831 -0.0941  0.5716
  110MOL   C18833106   3.577   2.314   7.579  0.3156  0.5947  0.7874
  110MOL   N18933107   3.537   2.201   7.648  0.1563 -0.0381 -0.1280
  110MOL   H19033108   3.436   1.949   7.604 -0.6888 -1.8713  0.0433
  110MOL   H19133109   3.581   1.883   7.540  1.0934  2.0902 -0.3890
  110MOL   H19233110   3.707   1.935   7.759 -0.6951 -0.1662  1.5336
  110MOL   H19333111   3.856   2.074   7.641  0.3693  0.5987  0.6714
  110MOL   H19433112   3.914   2.281   7.542 -0.9405  3.2149 -1.0846
  110MOL   H19533113   3.725   2.449   7.499  1.0626 -1.4823 -1.4003
  110MOL   H19633114   3.493   2.368   7.537 -1.4314 -0.9673  2.1926
  110MOL   C19733115   3.543   1.997   7.867 -0.4619  0.7228  0.0448
  110MOL   C19833116   3.626   2.061   7.979  0.4947  0.5682 -0.0830
  110MOL   C19933117   3.529   2.150   8.055 -0.0084  0.5708 -0.8269
  110MOL   C20033118   3.536   2.291   8.036  0.2988  0.3077 -0.0589
  110MOL   C20133119   3.450   2.379   8.101 -0.0056  0.0054 -0.1075
  110MOL   C20233120   3.367   2.322   0.044 -0.1599 -0.3355 -0.4980
  110MOL   C20333121   3.364   2.177   0.056 -0.8414 -0.3212  0.3386
  110MOL   N20433122   3.446   2.094   8.142  1.0296  0.2192 -0.4750
  110MOL   H20533123   3.496   1.903   7.894  0.1289  0.9867  2.0841
  110MOL   H20633124   3.457   2.062   7.852 -1.1415  0.0224  0.8668
  110MOL   H20733125   3.690   2.132   7.928 -0.2875  1.3125 -0.0394
  110MOL   H20833126   3.605   2.340   7.968  1.3365 -0.1954  0.6187
  110MOL   H20933127   3.455   2.485   8.077  1.3493  0.6187  2.7503
  110MOL   H21033128   3.299   2.374   0.110 -0.1753 -1.3939  0.3256
  110MOL   H21133129   3.295   2.121   0.117 -0.8170  0.2211  0.8719
  110MOL   C21233130   3.710   1.964   8.072 -0.1294 -0.2792  0.5614
  110MOL   C21333131   3.806   2.040   0.021 -0.1377 -0.2869 -0.6829
  110MOL   C21433132   3.739   2.073   0.157  0.4166 -0.0286 -0.4999
  110MOL   C21533133   3.655   1.980   0.232 -0.9203  0.8769  0.5109
  110MOL   C21633134   3.590   2.025   0.350  0.3519  0.3870  0.8479
  110MOL   C21733135   3.619   2.160   0.399  0.6346 -0.3395 -0.7654
  110MOL   C21833136   3.698   2.248   0.316 -0.2337  1.2452  0.5260
  110MOL   N21933137   3.752   2.201   0.200  0.3774  0.5647 -0.0823
  110MOL   H22033138   3.779   1.900   8.017  1.2950  0.1827  1.7583
  110MOL   H22133139   3.634   1.893   8.106 -0.1353 -0.7707 -0.4690
  110MOL   H22233140   3.833   2.136   8.129 -0.7196 -0.8770 -2.3645
  110MOL   H22333141   3.647   1.878   0.200 -0.5244  0.5519  1.4224
  110MOL   H22433142   3.520   1.959   0.399  0.2314 -0.8456 -0.9640
  110MOL   H22533143   3.582   2.196   0.494 -0.6453 -1.1951 -0.9259
  110MOL   H22633144   3.714   2.351   0.342 -4.8905  1.8296  1.5395
  110MOL   C22733145   3.940   1.968   0.051  0.4499 -0.0692 -0.1378
  110MOL   C22833146   4.058   1.985   8.108 -0.1268 -0.1406 -0.2540
  110MOL   C22933147   4.183   1.927   0.019  0.1662  0.0934 -0.2658
  110MOL   C23033148   4.282   2.013   0.068 -0.2864  0.5111  0.4053
  110MOL   C23133149   4.396   1.963   0.135  0.1448  0.8261 -0.0884
  110MOL   C23233150   4.406   1.826   0.149  0.4007 -0.3917 -0.3897
  110MOL   C23333151   4.297   1.747   0.110 -0.1328 -0.1590  0.4690
  110MOL   N23433152   4.185   1.791   0.046  0.5528 -0.0431 -0.0707
  110MOL   H23533153   3.917   1.862   0.060 -2.5802  0.4244 -1.3841
  110MOL   H23633154   3.969   1.985   0.155  0.1677  1.2876 -0.2719
  110MOL   H23733155   4.072   2.093   8.115 -0.1945 -0.2081  1.0942
  110MOL   H23833156   4.255   2.117   0.052 -3.1469 -0.1115  0.9050
  110MOL   H23933157   4.474   2.023   0.179  2.9509 -2.8986  0.2230
  110MOL   H24033158   4.479   1.775   0.211 -0.3477  0.2043  1.0116
  110MOL   H24133159   4.312   1.642   0.127  1.8636 -0.1782 -1.3264
  110MOL   C24233160   4.041   1.932   7.965  0.1632 -0.6097  0.3731
  110MOL   C24333161   4.159   1.969   7.864  0.0964 -0.5013  0.3423
  110MOL   C24433162   4.146   1.899   7.732 -0.3969 -0.3989  0.0771
  110MOL   C24533163   4.240   1.808   7.686  0.1012  0.3811 -0.0136
  110MOL   C24633164   4.224   1.755   7.560 -0.1073  0.3729 -0.0311
  110MOL   C24733165   4.110   1.786   7.486 -0.7469  0.0494 -0.3813
  110MOL   C24833166   4.013   1.871   7.547  0.2056 -0.3856  0.0830
  110MOL   N24933167   4.030   1.929   7.666  0.2346  0.2607 -0.2104
  110MOL   H25033168   3.953   1.988   7.930  0.8764  1.4569  1.7606
  110MOL   H25133169   4.015   1.826   7.960 -2.2289 -0.1502  1.9953
  110MOL   H25233170   4.243   1.924   7.918  0.0500 -3.4943 -1.9698
  110MOL   H25333171   4.329   1.791   7.745  0.3212  1.1945 -0.1152
  110MOL   H25433172   4.303   1.693   7.521 -0.6455 -2.0160  2.5602
  110MOL   H25533173   4.103   1.739   7.389 -2.1963  2.6989 -1.6225
  110MOL   H25633174   3.916   1.885   7.503  0.0725 -1.2122  0.1069
  110MOL   C25733175   4.165   2.121   7.839 -0.6674 -0.2472 -0.1562
  110MOL   C25833176   4.302   2.178   7.784 -0.0680 -0.4321  0.0625
  110MOL   C25933177   4.278   2.314   7.709 -0.0852  0.1622  0.8155
  110MOL   C26033178   4.301   2.323   7.567  0.1428 -0.0093 -0.0613
  110MOL   C26133179   4.266   2.442   7.496  0.3616  0.5558 -0.7597
  110MOL   C26233180   4.195   2.537   7.564 -0.5767 -0.3201 -0.2527
  110MOL   C26333181   4.177   2.522   7.703 -0.3395  0.1519 -0.0229
  110MOL   N26433182   4.220   2.412   7.778 -0.1892  0.1906  0.5757
  110MOL   H26533183   4.147   2.184   7.926 -3.3137 -4.8237  2.8213
  110MOL   H26633184   4.070   2.138   7.787 -0.6082 -2.0689 -0.9023
  110MOL   H26733185   4.333   2.104   7.710 -1.8889 -0.8283 -0.3389
  110MOL   H26833186   4.355   2.247   7.512 -1.1609 -0.6580 -0.4782
  110MOL   H26933187   4.303   2.457   7.395 -0.0037 -1.2422 -1.1684
  110MOL   H27033188   4.167   2.628   7.514  3.0035  0.7921 -0.4273
  110MOL   H27133189   4.139   2.602   7.765  1.9192  1.2501 -0.0305
  110MOL   C27233190   4.406   2.181   7.902  0.3537  0.0562 -0.3377
  110MOL   C27333191   4.531   2.266   7.885 -0.5601  0.1828 -0.3588
  110MOL   C27433192   4.621   2.231   8.010 -0.0675  0.1982 -0.1045
  110MOL   C27533193   4.657   2.327   8.108 -0.2002  1.0524  0.3742
  110MOL   C27633194   4.753   2.299   0.054 -0.5601 -0.3484 -0.0587
  110MOL   C27733195   4.811   2.168   0.052  0.4461 -0.7262  0.6219
  110MOL   C27833196   4.772   2.077   8.110  0.1813 -0.3482  0.4633
  110MOL   N27933197   4.674   2.105   8.017 -0.3394 -0.2807 -0.2371
  110MOL   H28033198   4.437   2.079   7.926  1.3437  0.1594 -1.1747
  110MOL   H28133199   4.357   2.219   7.992 -1.1584 -3.0425  0.2117
  110MOL   H28233200   4.500   2.371   7.893  0.5984  0.7269 -2.6089
  110MOL   H28333201   4.623   2.430   8.103 -0.7675  0.8764  0.5949
  110MOL   H28433202   4.771   2.374   0.130  0.7402 -0.5701 -0.1287
  110MOL   H28533203   4.883   2.141   0.128  0.7924  0.0658  0.5744
  110MOL   H28633204   4.812   1.977   8.106  1.6181  0.1096  2.5822
  110MOL   C28733205   4.613   2.249   7.756  0.5389  0.0504  0.0586
  110MOL   C28833206   4.726   2.353   7.723  0.2138 -0.1377 -0.3283
  110MOL   C28933207   4.775   2.332   7.583 -0.1407  0.5237  0.3443
  110MOL   C29033208   4.908   2.303   7.543  0.1482 -0.5657  0.1463
  110MOL   C29133209   4.933   2.288   7.404  0.4351  0.8824 -0.3110
  110MOL   C29233210   4.838   2.306   7.313 -0.1155  0.3756  0.5095
  110MOL   C29333211   4.712   2.341   7.358 -0.2601 -0.4314 -0.1094
  110MOL   N29433212   4.678   2.357   7.491  0.2991 -0.1402  0.0831
  110MOL   H29533213   4.544   2.246   7.672 -0.5133 -0.9565  0.9316
  110MOL   H29633214   4.647   2.146   7.753 -1.4231 -0.6707  1.0668
  110MOL   H29733215   4.810   2.326   7.787 -0.3155 -1.8510 -0.3187
  110MOL   H29833216   4.987   2.294   7.616  0.1302  1.1099  0.3988
  110MOL   H29933217   5.032   2.261   7.370  0.6102  1.7204 -0.4881
  110MOL   H30033218   4.860   2.302   7.207 -2.7642  0.3958 -0.0848
  110MOL   H30133219   4.633   2.334   7.285  0.9700 -1.8829 -1.3358
  110MOL   H30233220   4.698   2.457   7.738  0.0465 -0.2017 -0.1900
  111MOL     C133221   2.065   6.988   7.202  0.2503  0.5581  0.2565
  111MOL     C233222   2.192   6.941   7.126  0.2872  0.5876 -1.0094
  111MOL     C333223   2.321   6.981   7.195  0.4764 -0.1461  0.0480
  111MOL     C433224   2.427   7.057   7.138 -0.5055 -0.9422 -0.2393
  111MOL     C533225   2.549   7.055   7.208 -0.2967 -0.1362 -0.0626
  111MOL     C633226   2.556   6.996   7.336 -0.2201  0.6514  0.2003
  111MOL     C733227   2.446   6.933   7.388 -0.0827  0.5168 -0.0954
  111MOL     N833228   2.333   6.922   7.315  0.0158  0.0097  0.1380
  111MOL     H933229   2.068   7.097   7.205 -1.3455  0.6193 -0.0684
  111MOL    H1033230   1.972   6.961   7.151  0.7830  0.4599 -0.6719
  111MOL    H1133231   2.189   7.004   7.037  0.7081  3.7872  1.1562
  111MOL    H1233232   2.419   7.120   7.051  0.0615 -0.0774  0.3341
  111MOL    H1333233   2.635   7.107   7.170 -1.2174  2.6869  1.5607
  111MOL    H1433234   2.652   6.998   7.386 -0.8849  3.6140  1.4400
  111MOL    H1533235   2.438   6.877   7.480  2.6154  0.0255 -0.1269
  111MOL    H1633236   2.071   6.947   7.303  3.1442 -2.2833 -0.9864
  111MOL    C1733237   2.194   6.796   7.080 -0.3451  0.5533  0.7003
  111MOL    C1833238   2.322   6.738   7.028  0.3617  0.0204  0.3407
  111MOL    C1933239   2.294   6.590   6.997  0.0584  0.4047  0.0110
  111MOL    C2033240   2.349   6.484   7.069 -0.7490 -0.1865  0.3913
  111MOL    C2133241   2.318   6.354   7.039  0.0966 -0.0324 -0.0969
  111MOL    C2233242   2.224   6.329   6.932 -0.2399  0.9856 -0.1302
  111MOL    C2333243   2.175   6.437   6.856 -0.5269 -0.1494 -0.2806
  111MOL    N2433244   2.208   6.565   6.894  0.1887 -0.1346 -0.0417
  111MOL    H2533245   2.119   6.791   7.000  1.2802 -0.2251 -0.8120
  111MOL    H2633246   2.175   6.742   7.173  0.0158 -1.5129 -0.4010
  111MOL    H2733247   2.388   6.748   7.114  1.4320  0.8874 -0.5563
  111MOL    H2833248   2.409   6.508   7.155 -0.6975 -0.1051  0.3320
  111MOL    H2933249   2.351   6.267   7.093 -1.7180 -0.8860 -0.3149
  111MOL    H3033250   2.195   6.231   6.900 -1.2386  0.0696  3.3606
  111MOL    H3133251   2.126   6.412   6.763 -0.3130 -0.5339 -0.2958
  111MOL    C3233252   2.382   6.819   6.901  0.1712 -0.3866 -0.4877
  111MOL    C3333253   2.533   6.808   6.877 -0.3166  0.8517 -0.5754
  111MOL    C3433254   2.571   6.658   6.857 -0.3634 -0.2895  0.2497
  111MOL    C3533255   2.656   6.598   6.952 -0.5227  0.4787  0.2155
  111MOL    C3633256   2.677   6.460   6.950  0.0869  0.2739 -0.6126
  111MOL    C3733257   2.619   6.392   6.838 -0.1589 -0.6395  0.0885
  111MOL    C3833258   2.537   6.462   6.747  0.0056 -0.1147  0.2867
  111MOL    N3933259   2.512   6.594   6.753 -0.0534 -0.5062 -0.0098
  111MOL    H4033260   2.348   6.922   6.913 -2.1970 -1.3255  1.3577
  111MOL    H4133261   2.332   6.795   6.807  3.0510 -1.5027 -1.8217
  111MOL    H4233262   2.573   6.853   6.968 -0.7986 -1.2938  0.7468
  111MOL    H4333263   2.710   6.654   7.026  0.8125 -3.0044  1.9883
  111MOL    H4433264   2.745   6.407   7.014  0.1927  0.7326 -0.3420
  111MOL    H4533265   2.637   6.286   6.827 -1.6851 -0.8682 -0.3728
  111MOL    H4633266   2.483   6.412   6.668  0.1670  1.3065 -0.7461
  111MOL    C4733267   2.589   6.906   6.764 -0.2403  0.2524  0.3604
  111MOL    C4833268   2.740   6.901   6.730  0.0041 -0.0123  0.1803
  111MOL    C4933269   2.763   6.981   6.606  0.3865 -0.1947 -0.6168
  111MOL    C5033270   2.719   7.119   6.602 -1.1552  0.1375  0.1655
  111MOL    C5133271   2.750   7.199   6.491  0.8259 -0.2643  0.2230
  111MOL    C5233272   2.813   7.135   6.384  0.1066 -0.0930 -0.4352
  111MOL    C5333273   2.843   6.996   6.388 -0.1744 -0.4300 -0.4651
  111MOL    N5433274   2.820   6.925   6.496 -0.5952 -0.4545  0.0333
  111MOL    H5533275   2.564   7.008   6.792  1.5081  0.9270 -0.4959
  111MOL    H5633276   2.539   6.880   6.671  2.7896 -0.5492 -1.1051
  111MOL    H5733277   2.758   6.798   6.702 -2.3632 -0.6039  0.7077
  111MOL    H5833278   2.662   7.156   6.685  0.2767  1.7374  0.4722
  111MOL    H5933279   2.723   7.303   6.484 -1.7721 -0.7459  2.3527
  111MOL    H6033280   2.828   7.193   6.294 -4.6202 -0.1434 -1.3601
  111MOL    H6133281   2.889   6.943   6.306 -1.6518  1.2702 -2.4478
  111MOL    C6233282   2.836   6.944   6.835 -0.5424 -0.5407 -0.8776
  111MOL    C6333283   2.987   6.909   6.810  0.0367  0.7472 -0.9682
  111MOL    C6433284   3.053   7.032   6.752 -0.0015  0.3067  0.2054
  111MOL    C6533285   3.118   7.033   6.628 -0.1186 -0.0234 -0.7027
  111MOL    C6633286   3.210   7.131   6.599  0.5032  0.0737 -0.0611
  111MOL    C6733287   3.213   7.235   6.689  0.2946 -0.0282 -0.1393
  111MOL    C6833288   3.129   7.241   6.808  0.3457 -0.0196  0.2100
  111MOL    N6933289   3.050   7.138   6.839 -0.4733 -0.3261  0.8241
  111MOL    H7033290   2.809   6.893   6.928 -0.4721  0.3072 -0.3913
  111MOL    H7133291   2.829   7.048   6.865  3.1924 -0.3331 -0.5165
  111MOL    H7233292   2.993   6.833   6.732  0.2071  0.2830 -0.5065
  111MOL    H7333293   3.121   6.943   6.569  1.6262  0.0355 -0.7321
  111MOL    H7433294   3.266   7.133   6.507  0.6899 -0.3333  0.0425
  111MOL    H7533295   3.273   7.324   6.677 -1.0410  1.4774  3.7139
  111MOL    H7633296   3.151   7.321   6.878 -1.5767 -1.4369  2.5096
  111MOL    C7733297   3.058   6.847   6.933  0.3001 -0.2586 -0.1406
  111MOL    C7833298   3.197   6.783   6.905 -0.3952 -0.8552 -0.3921
  111MOL    C7933299   3.307   6.887   6.897  0.2280  0.3569  0.4003
  111MOL    C8033300   3.397   6.886   6.788  0.2485 -0.1148  0.4924
  111MOL    C8133301   3.495   6.991   6.783 -0.6555  0.3139 -0.3321
  111MOL    C8233302   3.497   7.085   6.893 -0.4409  0.0521  0.1040
  111MOL    C8333303   3.404   7.071   6.994 -0.2326 -0.6478 -0.0197
  111MOL    N8433304   3.317   6.968   6.999  0.5844 -0.0544 -0.0296
  111MOL    H8533305   2.996   6.767   6.974 -0.6017  0.8581  0.7042
  111MOL    H8633306   3.069   6.921   7.012 -0.4884 -0.7546  0.4461
  111MOL    H8733307   3.181   6.726   6.814 -1.5191  2.2609 -2.2197
  111MOL    H8833308   3.401   6.816   6.706  1.5793  1.1848 -0.5696
  111MOL    H8933309   3.554   7.008   6.695  0.1873  1.1352  0.3854
  111MOL    H9033310   3.564   7.169   6.898  2.2737 -2.0766  0.5818
  111MOL    H9133311   3.408   7.142   7.076 -0.6517 -0.0906 -0.4824
  111MOL    C9233312   3.234   6.670   7.004 -0.2078 -0.8053  0.4602
  111MOL    C9333313   3.355   6.590   6.962  0.5249  0.7183 -0.0767
  111MOL    C9433314   3.425   6.514   7.080 -0.4452  0.4592 -0.3384
  111MOL    C9533315   3.555   6.553   7.111 -0.7113  0.4204  0.5694
  111MOL    C9633316   3.620   6.486   7.214 -0.4577  0.6713  0.1276
  111MOL    C9733317   3.548   6.391   7.290  0.6089  0.1550 -0.0053
  111MOL    C9833318   3.418   6.356   7.251 -0.6883  0.4792  0.3709
  111MOL    N9933319   3.352   6.421   7.147 -1.1004 -0.2967  1.0213
  111MOL   H10033320   3.153   6.603   7.032 -0.5297 -0.9900 -0.8501
  111MOL   H10133321   3.265   6.717   7.097  1.5643  0.2634 -0.6382
  111MOL   H10233322   3.427   6.666   6.934 -1.0186  2.7147  1.2553
  111MOL   H10333323   3.605   6.628   7.051 -1.0240  0.2885  0.1404
  111MOL   H10433324   3.724   6.509   7.232 -0.8661  1.7212  1.1975
  111MOL   H10533325   3.601   6.334   7.365 -0.0428 -0.0212  0.3193
  111MOL   H10633326   3.374   6.269   7.298  2.0175 -1.2845 -0.2063
  111MOL   C10733327   3.333   6.493   6.841  0.0702  0.5710  0.1261
  111MOL   C10833328   3.196   6.416   6.828  0.6769  0.3729 -0.1913
  111MOL   C10933329   3.103   6.487   6.735  0.4959  0.6813  0.0108
  111MOL   C11033330   3.145   6.500   6.602  0.0573 -0.2170  0.0550
  111MOL   C11133331   3.053   6.563   6.516 -0.6732 -0.2601  1.3931
  111MOL   C11233332   2.924   6.601   6.562 -0.2508  0.3626  0.4502
  111MOL   C11333333   2.897   6.572   6.701  0.5415 -0.4202  0.4843
  111MOL   N11433334   2.985   6.516   6.785 -0.4159  0.0820  0.0736
  111MOL   H11533335   3.414   6.420   6.854  0.1586  0.5037 -0.7825
  111MOL   H11633336   3.336   6.557   6.754  0.7620  1.4902  0.8124
  111MOL   H11733337   3.148   6.433   6.924 -0.6544  0.0405 -0.7966
  111MOL   H11833338   3.240   6.459   6.570  0.4832  0.5660  0.3126
  111MOL   H11933339   3.074   6.582   6.412 -0.1549  0.6182  1.6564
  111MOL   H12033340   2.847   6.642   6.498  0.6094  0.1694 -0.7289
  111MOL   H12133341   2.802   6.602   6.744  0.0035  0.6650 -1.3756
  111MOL   C12233342   3.200   6.259   6.793 -0.0069  0.5216  0.3911
  111MOL   C12333343   3.064   6.185   6.819 -0.1876  0.5690 -0.1416
  111MOL   C12433344   2.991   6.134   6.695  0.4031 -0.2411  0.0254
  111MOL   C12533345   2.868   6.196   6.663  0.0589 -0.2841 -0.3295
  111MOL   C12633346   2.792   6.141   6.555 -0.4674 -0.1826  0.0743
  111MOL   C12733347   2.841   6.033   6.480 -0.2054  0.6475 -0.4564
  111MOL   C12833348   2.973   5.982   6.517  0.7776  0.0544  0.1173
  111MOL   N12933349   3.040   6.032   6.623 -0.2876  0.3434  0.1254
  111MOL   H13033350   3.282   6.219   6.852 -0.2135 -1.0923 -0.4103
  111MOL   H13133351   3.229   6.257   6.688  3.2320  0.4085  1.2124
  111MOL   H13233352   3.002   6.268   6.852  1.9261  1.1521  2.4772
  111MOL   H13333353   2.828   6.276   6.724 -0.0948 -1.6205  1.3487
  111MOL   H13433354   2.696   6.185   6.532 -0.3826  0.8768  1.7085
  111MOL   H13533355   2.795   5.997   6.389  0.4883  0.5290 -0.7635
  111MOL   H13633356   3.025   5.906   6.460 -0.7166 -1.9343  1.3257
  111MOL   C13733357   3.070   6.069   6.933  0.9020  0.3842  0.7127
  111MOL   C13833358   3.077   6.122   7.072 -0.2781  0.0067  0.4179
  111MOL   C13933359   2.947   6.166   7.130  0.2843  0.1218  0.2279
  111MOL   C14033360   2.933   6.287   7.192 -0.1591 -0.2742 -0.2145
  111MOL   C14133361   2.813   6.320   7.257  0.2067 -0.4268  0.0925
  111MOL   C14233362   2.700   6.233   7.260  0.1286 -0.3375  0.1948
  111MOL   C14333363   2.720   6.112   7.192 -0.9239  0.5146 -0.5354
  111MOL   N14433364   2.836   6.084   7.126 -0.2520 -0.0570 -0.5423
  111MOL   H14533365   3.157   6.005   6.917 -1.0724 -2.1945 -0.2164
  111MOL   H14633366   2.986   6.000   6.920  0.3997  1.1940 -0.5303
  111MOL   H14733367   3.133   6.216   7.074 -0.9608  0.4287 -0.4822
  111MOL   H14833368   3.009   6.363   7.200 -3.3151  2.8955  0.9743
  111MOL   H14933369   2.793   6.416   7.301 -0.8817 -1.4846  1.9772
  111MOL   H15033370   2.613   6.260   7.319  1.5029  1.9563  1.2578
  111MOL   H15133371   2.640   6.040   7.178  0.1475 -0.6459 -0.7015
  111MOL   C15233372   3.164   6.032   7.169 -0.2984  0.0096 -0.1168
  111MOL   C15333373   3.084   5.916   7.229  0.5450 -0.1806  0.1977
  111MOL   C15433374   3.046   5.806   7.126  0.4336  0.9819  0.2645
  111MOL   C15533375   2.914   5.758   7.102 -0.1710  0.0425 -0.4814
  111MOL   C15633376   2.889   5.674   7.000 -0.0358  0.3786 -0.0358
  111MOL   C15733377   2.999   5.611   6.936  0.2013  0.1814  0.7258
  111MOL   C15833378   3.124   5.655   6.968 -0.4295 -0.1681  0.2652
  111MOL   N15933379   3.155   5.751   7.058  0.0063 -0.0442  0.4873
  111MOL   H16033380   3.201   6.097   7.248 -1.9625 -0.1855  0.8546
  111MOL   H16133381   3.251   5.987   7.120  1.4812  1.6003  1.5127
  111MOL   H16233382   2.988   5.951   7.267  0.5785 -0.6315  0.6946
  111MOL   H16333383   2.824   5.801   7.145 -0.2866 -0.6379 -0.0324
  111MOL   H16433384   2.787   5.647   6.979  0.0083  0.8218 -0.8232
  111MOL   H16533385   2.985   5.528   6.869  0.6533 -1.7511  2.9390
  111MOL   H16633386   3.209   5.605   6.923 -0.6989 -1.9778  1.7268
  111MOL   C16733387   3.149   5.846   7.355  0.5689  0.2998  0.9322
  111MOL   C16833388   3.172   5.945   7.474 -0.2845  1.0416  0.3206
  111MOL   C16933389   3.039   6.009   7.525  0.2198  0.8386 -0.1607
  111MOL   C17033390   3.033   6.145   7.544  0.0525 -0.2598  0.7905
  111MOL   C17133391   2.909   6.204   7.584  0.0934 -0.5105 -0.8754
  111MOL   C17233392   2.801   6.117   7.622 -0.2424 -0.8170 -0.4735
  111MOL   C17333393   2.824   5.984   7.602  0.2613 -0.0436  0.7479
  111MOL   N17433394   2.935   5.929   7.549  0.5907  0.1712 -0.2178
  111MOL   H17533395   3.252   5.818   7.334  0.4415  0.5922 -0.0930
  111MOL   H17633396   3.100   5.750   7.372  1.0398 -0.3364 -1.1930
  111MOL   H17733397   3.244   6.019   7.441  1.1715 -0.8279 -0.7761
  111MOL   H17833398   3.114   6.208   7.513  1.7269 -2.7958 -0.1438
  111MOL   H17933399   2.901   6.311   7.599  0.3689 -0.5997 -0.0573
  111MOL   H18033400   2.711   6.166   7.655  1.3228  1.4222  0.5672
  111MOL   H18133401   2.751   5.906   7.618 -2.2293  2.0637  0.0183
  111MOL   C18233402   3.243   5.865   7.593 -0.1053 -0.5671 -0.2082
  111MOL   C18333403   3.256   5.941   7.727  0.0471 -0.1684  0.2734
  111MOL   C18433404   3.287   5.839   7.839  0.5319 -0.6087  0.5535
  111MOL   C18533405   3.186   5.799   7.923 -0.0018  0.1318 -0.0281
  111MOL   C18633406   3.222   5.709   8.024  0.2003 -0.4442  0.3212
  111MOL   C18733407   3.355   5.670   8.042 -0.3242  0.0947 -0.4026
  111MOL   C18833408   3.444   5.706   7.942  0.2649  0.3507 -0.6514
  111MOL   N18933409   3.414   5.793   7.839 -0.1909 -0.0417 -0.0473
  111MOL   H19033410   3.337   5.820   7.561 -0.2261 -0.6249 -0.4848
  111MOL   H19133411   3.194   5.769   7.610 -1.0395 -0.0760 -0.0695
  111MOL   H19233412   3.160   5.985   7.750  0.6992  1.6875 -0.4662
  111MOL   H19333413   3.087   5.840   7.915  1.3744  3.8293  1.1824
  111MOL   H19433414   3.147   5.666   8.089 -1.5668  0.3917 -1.1125
  111MOL   H19533415   3.382   5.613   8.130 -0.5526 -0.5271 -0.7333
  111MOL   H19633416   3.545   5.668   7.948 -0.4372 -1.4969 -0.1445
  111MOL   C19733417   3.361   6.050   7.725 -0.1613 -0.1428  0.6378
  111MOL   C19833418   3.378   6.136   7.861  0.5595  0.0433  0.1697
  111MOL   C19933419   3.468   6.253   7.824  0.6192  0.6259  0.1602
  111MOL   C20033420   3.584   6.281   7.901  0.3776 -0.1205 -0.9328
  111MOL   C20133421   3.644   6.403   7.890  0.0082 -0.3771 -0.0703
  111MOL   C20233422   3.595   6.495   7.793  0.8905 -0.3623 -0.0578
  111MOL   C20333423   3.499   6.451   7.705 -0.6368  0.1518 -0.0316
  111MOL   N20433424   3.428   6.332   7.720 -0.5491 -0.2466 -0.5805
  111MOL   H20533425   3.343   6.122   7.644  2.6915  1.0482  1.0025
  111MOL   H20633426   3.459   6.009   7.699  1.4042  2.9187  1.5042
  111MOL   H20733427   3.422   6.077   7.941 -0.4256  0.3993  0.9744
  111MOL   H20833428   3.605   6.213   7.983 -0.0444  1.1205  0.2274
  111MOL   H20933429   3.719   6.437   7.961  1.8951 -1.6779 -1.3737
  111MOL   H21033430   3.645   6.591   7.787 -1.7368  1.0315 -0.5954
  111MOL   H21133431   3.474   6.515   7.622  2.9152 -0.2356 -1.4900
  111MOL   C21233432   3.242   6.177   7.924  0.0107 -0.0046  0.6878
  111MOL   C21333433   3.259   6.279   8.036 -0.1874  0.5008 -0.2868
  111MOL   C21433434   3.140   6.364   8.040  0.7577  0.1844 -0.4796
  111MOL   C21533435   3.140   6.509   8.039  0.9267  0.3084  0.6434
  111MOL   C21633436   3.025   6.584   8.049 -0.2014  0.7331  0.3838
  111MOL   C21733437   2.908   6.513   8.070  0.4721 -0.9477  0.4036
  111MOL   C21833438   2.906   6.372   8.080  0.7692 -0.1902  0.8216
  111MOL   N21933439   3.019   6.297   8.068  0.0520  0.7583  0.2117
  111MOL   H22033440   3.193   6.090   7.970 -0.6591  1.0421  2.0078
  111MOL   H22133441   3.172   6.212   7.849  1.2425  0.4122 -0.2789
  111MOL   H22233442   3.338   6.346   8.002  0.7749 -0.9420 -0.9022
  111MOL   H22333443   3.232   6.563   8.020 -0.4516  2.2760 -0.5131
  111MOL   H22433444   3.021   6.692   8.039 -1.7145  0.8031  1.5253
  111MOL   H22533445   2.820   6.570   8.098  0.6077 -0.9507  0.8281
  111MOL   H22633446   2.814   6.319   8.094  0.4299  0.5322  1.3336
  111MOL   C22733447   3.299   6.226   0.024 -0.1846 -0.7090  0.1278
  111MOL   C22833448   3.340   6.333   0.120  0.1259  0.0112 -0.0037
  111MOL   C22933449   3.323   6.288   0.262  0.1869 -0.0637  0.8023
  111MOL   C23033450   3.204   6.308   0.338  0.1423 -0.3879 -0.1487
  111MOL   C23133451   3.209   6.287   0.477  0.0589 -0.0782 -0.0081
  111MOL   C23233452   3.331   6.242   0.535  0.1993  0.3459 -0.3445
  111MOL   C23333453   3.435   6.207   0.444  0.0891  0.1521 -0.2274
  111MOL   N23433454   3.433   6.229   0.310  0.1280 -0.7999 -0.1887
  111MOL   H23533455   3.374   6.146   0.025  2.8553  2.0059 -0.5725
  111MOL   H23633456   3.210   6.176   0.062 -0.1040  1.3048  3.1222
  111MOL   H23733457   3.266   6.413   0.114 -0.6158 -0.6601  0.1052
  111MOL   H23833458   3.118   6.359   0.297 -0.1382  2.2365  3.4585
  111MOL   H23933459   3.120   6.312   0.533 -2.3907  1.1061 -4.2617
  111MOL   H24033460   3.345   6.235   0.642 -0.6661  2.0926 -0.0944
  111MOL   H24133461   3.520   6.155   0.486 -0.2620  1.3939  2.1275
  111MOL   C24233462   3.477   6.409   0.084  0.7660  0.7688 -0.6441
  111MOL   C24333463   3.554   6.499   0.191 -0.0617  1.1115 -0.1404
  111MOL   C24433464   3.705   6.462   0.199 -0.1941 -0.2961  0.2270
  111MOL   C24533465   3.746   6.378   0.308  0.8339  0.3544 -0.2031
  111MOL   C24633466   3.877   6.346   0.331  0.3425  0.0737  0.0956
  111MOL   C24733467   3.974   6.390   0.234  0.4790 -0.1735  0.3540
  111MOL   C24833468   3.927   6.468   0.120 -0.2639 -0.0996  0.5206
  111MOL   N24933469   3.799   6.508   0.100  0.4132  0.5421 -0.1953
  111MOL   H25033470   3.474   6.452   8.136 -0.7984  2.2956  0.0490
  111MOL   H25133471   3.547   6.329   0.058 -2.7006 -1.7772 -2.4400
  111MOL   H25233472   3.507   6.474   0.286  1.5822  0.1486  0.4358
  111MOL   H25333473   3.673   6.356   0.385  1.5054 -0.4662  0.2065
  111MOL   H25433474   3.902   6.291   0.421 -3.0800 -0.8374  0.5704
  111MOL   H25533475   4.077   6.359   0.233  0.1367 -1.3073 -0.1986
  111MOL   H25633476   3.995   6.480   0.037 -0.1800 -0.9373  0.4632
  111MOL   C25733477   3.537   6.653   0.157  0.2006 -0.2633  0.3204
  111MOL   C25833478   3.397   6.712   0.147 -0.6227  0.2849 -0.9187
  111MOL   C25933479   3.309   6.673   0.263 -0.1298 -0.1810  0.4728
  111MOL   C26033480   3.355   6.681   0.401 -0.6725  0.4530  0.0290
  111MOL   C26133481   3.270   6.652   0.508 -0.2281  0.3387  0.2466
  111MOL   C26233482   3.134   6.618   0.473  0.4074 -0.1995  0.3108
  111MOL   C26333483   3.100   6.618   0.332  0.4185  0.8071 -0.0960
  111MOL   N26433484   3.182   6.651   0.231 -0.0479 -0.0630  0.0748
  111MOL   H26533485   3.588   6.670   0.063 -0.8637 -0.3512 -0.2833
  111MOL   H26633486   3.602   6.709   0.225  0.8706 -0.4482 -0.1657
  111MOL   H26733487   3.351   6.660   0.064  0.3781 -2.2073  0.0515
  111MOL   H26833488   3.461   6.698   0.410 -0.4438 -0.4909 -0.9101
  111MOL   H26933489   3.305   6.657   0.610 -0.3980 -1.0276  0.3806
  111MOL   H27033490   3.060   6.607   0.551  0.7682  1.1901  0.8649
  111MOL   H27133491   2.995   6.616   0.308 -0.1841 -0.9102  2.4173
  111MOL   C27233492   3.399   6.867   0.132 -0.0696  0.1680  0.3597
  111MOL   C27333493   3.268   6.953   0.161 -0.3543  0.1824 -0.0001
  111MOL   C27433494   3.306   7.103   0.191 -0.0472  0.0828  0.1500
  111MOL   C27533495   3.250   7.173   0.304 -0.2169  0.7271  0.4619
  111MOL   C27633496   3.260   7.315   0.304  0.0966 -0.3692  0.1772
  111MOL   C27733497   3.340   7.373   0.201 -0.5676 -0.2520  0.2066
  111MOL   C27833498   3.393   7.288   0.100 -0.1841  0.2598 -0.1506
  111MOL   N27933499   3.377   7.157   0.091 -0.8017  0.8660 -0.2669
  111MOL   H28033500   3.436   6.894   0.033  0.9587  0.3106  0.7821
  111MOL   H28133501   3.474   6.900   0.204  0.7327 -0.6946 -0.0626
  111MOL   H28233502   3.221   6.913   0.251 -1.3073 -0.5674 -0.8245
  111MOL   H28333503   3.180   7.120   0.367 -0.2194 -0.2670 -0.3674
  111MOL   H28433504   3.218   7.366   0.389 -1.0523  0.0247 -0.6138
  111MOL   H28533505   3.361   7.479   0.195 -1.8182 -0.0838 -1.9097
  111MOL   H28633506   3.443   7.332   0.015 -0.7934  1.6329  0.1871
  111MOL   C28733507   3.165   6.949   0.048  0.0054  0.2269  0.2912
  111MOL   C28833508   3.028   7.023   0.055 -0.3847 -0.4579 -0.1982
  111MOL   C28933509   2.925   6.937   0.125 -0.4133  0.0802  0.3674
  111MOL   C29033510   2.825   6.859   0.062  0.2977 -0.1941  0.6945
  111MOL   C29133511   2.732   6.783   0.138  0.3647  0.0233  0.0075
  111MOL   C29233512   2.759   6.771   0.279 -0.0063 -0.1458  0.3716
  111MOL   C29333513   2.862   6.854   0.335 -0.3496  0.3925 -0.0554
  111MOL   N29433514   2.939   6.939   0.260 -0.2296  0.1429 -0.7389
  111MOL   H29533515   3.134   6.847   0.024  0.1027  0.5208 -1.1454
  111MOL   H29633516   3.224   6.992   8.119 -0.7427 -0.0288 -0.4064
  111MOL   H29733517   3.015   7.042   8.101  0.2264 -3.1632 -0.7853
  111MOL   H29833518   2.803   6.856   8.108  1.8002 -1.1800  0.3908
  111MOL   H29933519   2.649   6.732   0.092  0.1436 -0.1691  0.6142
  111MOL   H30033520   2.698   6.705   0.339 -1.4588  0.5682 -0.2787
  111MOL   H30133521   2.891   6.854   0.440  1.8494  0.5978 -0.6299
  111MOL   H30233522   3.051   7.114   0.111  1.1856  0.1349 -1.7514
  112MOL     C133523   5.084   0.754   8.090  0.7068  0.0339 -0.0544
  112MOL     C233524   5.233   0.725   8.079  0.5576 -0.6231  0.5412
  112MOL     C333525   5.291   0.702   7.935  0.1400  0.2215  0.2779
  112MOL     C433526   5.318   0.810   7.848 -0.2334 -0.0913  0.0008
  112MOL     C533527   5.374   0.776   7.721 -0.6806  0.0140  0.0663
  112MOL     C633528   5.383   0.640   7.685 -0.7819  0.0253  0.1363
  112MOL     C733529   5.339   0.545   7.775 -0.2673 -0.7115 -0.0197
  112MOL     N833530   5.304   0.575   7.904  0.1037 -0.9065  0.0446
  112MOL     H933531   5.061   0.842   8.030 -1.0978 -1.4215 -1.5792
  112MOL    H1033532   5.026   0.670   8.051 -2.1919  1.8223  0.2682
  112MOL    H1133533   5.254   0.635   8.137 -0.4748 -1.8250 -0.9127
  112MOL    H1233534   5.314   0.913   7.881 -1.5572  0.5564 -2.0883
  112MOL    H1333535   5.399   0.855   7.652  0.8169 -0.1132  0.4399
  112MOL    H1433536   5.412   0.601   7.588  1.2253  2.1919 -0.1636
  112MOL    H1533537   5.329   0.439   7.758  1.6044 -1.2972  2.3306
  112MOL    H1633538   5.065   0.767   0.044  1.3600 -0.2268  0.0980
  112MOL    C1733539   5.311   0.830   0.012  0.0704  0.3784  0.2734
  112MOL    C1833540   5.468   0.817   0.020  0.1323  0.0928 -0.6425
  112MOL    C1933541   5.522   0.962   0.033  0.0258 -0.6239 -0.2606
  112MOL    C2033542   5.579   1.018   8.069 -0.0102 -0.0038 -0.0505
  112MOL    C2133543   5.613   1.154   8.080 -0.5995 -0.1900  0.0770
  112MOL    C2233544   5.595   1.227   0.042 -0.5890  0.4770 -0.2467
  112MOL    C2333545   5.523   1.166   0.145 -0.1625  0.4194 -0.4191
  112MOL    N2433546   5.481   1.039   0.139  0.4297  0.1199  0.4357
  112MOL    H2533547   5.274   0.854   0.112  2.4054 -3.2263  2.1074
  112MOL    H2633548   5.300   0.924   8.110 -2.6541  0.7998  1.5130
  112MOL    H2733549   5.503   0.782   8.075 -0.5355 -2.1179 -0.0977
  112MOL    H2833550   5.595   0.957   7.981 -1.7881 -1.0253  0.3145
  112MOL    H2933551   5.673   1.196   8.000  0.0872  1.3116  1.3560
  112MOL    H3033552   5.638   1.326   0.056 -0.8101  0.8445 -2.1131
  112MOL    H3133553   5.519   1.222   0.237 -0.6957  0.3092 -0.3715
  112MOL    C3233554   5.510   0.720   0.136 -0.4687 -0.0489  0.2843
  112MOL    C3333555   5.660   0.679   0.117  0.0727  0.1864  0.6635
  112MOL    C3433556   5.751   0.799   0.158 -0.6777 -0.2882  0.0267
  112MOL    C3533557   5.830   0.858   0.059  0.1746 -0.2846 -1.1909
  112MOL    C3633558   5.900   0.971   0.086 -0.0052  0.0147 -0.6766
  112MOL    C3733559   5.904   1.015   0.220  0.7946  0.2474  0.2026
  112MOL    C3833560   5.829   0.941   0.315  0.0384  0.3271  0.3449
  112MOL    N3933561   5.751   0.837   0.286 -0.6095  0.0559  0.6161
  112MOL    H4033562   5.452   0.628   0.137  0.0932 -0.4137 -0.0327
  112MOL    H4133563   5.498   0.752   0.240  0.3279 -1.7155  0.9208
  112MOL    H4233564   5.683   0.666   0.012  1.4391  0.2085  0.9474
  112MOL    H4333565   5.846   0.827   8.108  1.3343  1.6610 -1.6313
  112MOL    H4433566   5.956   1.028   0.014  1.6505 -1.4487 -0.5758
  112MOL    H4533567   5.963   1.103   0.243  0.1715  0.0909  2.5148
  112MOL    H4633568   5.833   0.987   0.412 -1.8257  1.4036 -0.0706
  112MOL    C4733569   5.695   0.538   0.178  0.0186 -1.1827  0.2439
  112MOL    C4833570   5.645   0.413   0.102  0.1035 -0.2178  0.5362
  112MOL    C4933571   5.740   0.378   8.138 -0.4272 -0.2715 -0.5015
  112MOL    C5033572   5.855   0.296   0.004 -0.2797 -0.8003 -0.5211
  112MOL    C5133573   5.925   0.252   8.053  0.0271 -0.4691 -0.5575
  112MOL    C5233574   5.892   0.302   7.925  0.1504  0.1557  0.2346
  112MOL    C5333575   5.782   0.388   7.914 -0.4270  0.1032  0.7334
  112MOL    N5433576   5.712   0.431   8.017  0.9270  0.3642 -0.1717
  112MOL    H5533577   5.633   0.523   0.266 -0.7882 -2.1812 -0.4838
  112MOL    H5633578   5.801   0.537   0.205 -0.2215 -0.5123  1.2065
  112MOL    H5733579   5.547   0.431   0.059 -0.4417 -0.9526  1.4544
  112MOL    H5833580   5.888   0.260   0.100 -0.5474 -0.9232 -0.4750
  112MOL    H5933581   5.994   0.170   8.072 -0.9364 -1.2204 -0.2507
  112MOL    H6033582   5.948   0.280   7.835  1.9675 -1.4428  1.7083
  112MOL    H6133583   5.748   0.419   7.816  0.7709  0.7058  0.5056
  112MOL    C6233584   5.620   0.286   0.188  0.4494 -0.3046 -0.3757
  112MOL    C6333585   5.493   0.262   0.273  0.2268  0.0254 -0.2763
  112MOL    C6433586   5.364   0.301   0.195 -0.1161  0.3723 -0.6395
  112MOL    C6533587   5.304   0.213   0.101  0.1603  0.4209 -0.2475
  112MOL    C6633588   5.182   0.247   0.034  0.5037  0.2827  0.5523
  112MOL    C6733589   5.125   0.376   0.065  1.0714  0.5982  0.3089
  112MOL    C6833590   5.190   0.450   0.167 -0.8327 -0.0974  0.1717
  112MOL    N6933591   5.302   0.408   0.231 -0.3866 -0.0242  0.2202
  112MOL    H7033592   5.713   0.285   0.247  0.7191 -2.6684 -0.8190
  112MOL    H7133593   5.633   0.203   0.120  2.1779 -1.4356  1.2704
  112MOL    H7233594   5.500   0.324   0.363  0.8030  0.3172 -0.5182
  112MOL    H7333595   5.338   0.120   0.058  0.9073  0.9415 -0.7811
  112MOL    H7433596   5.135   0.176   8.120  0.0124  0.4371  0.7318
  112MOL    H7533597   5.033   0.403   0.017  0.3164 -0.2173  1.2784
  112MOL    H7633598   5.167   0.552   0.193 -2.2411 -0.2894 -0.2726
  112MOL    C7733599   5.486   0.111   0.315  0.0478 -0.0712  0.8933
  112MOL    C7833600   5.555   0.058   0.443 -0.1575 -0.4902  0.5017
  112MOL    C7933601   5.707   0.032   0.432 -0.1184  0.2927 -0.0378
  112MOL    C8033602   5.757   8.057   0.402 -0.0917  0.2457 -0.2249
  112MOL    C8133603   5.899   8.030   0.392  0.0277  0.2423 -0.3312
  112MOL    C8233604   5.981   8.145   0.399 -0.0372 -0.3703  0.4331
  112MOL    C8333605   5.927   0.121   0.430  0.3346  0.6599  0.4640
  112MOL    N8433606   5.793   0.138   0.439 -0.2636 -0.8823 -0.2169
  112MOL    H8533607   5.520   0.048   0.233  0.1403  1.1372 -0.0091
  112MOL    H8633608   5.380   0.089   0.309  0.3211 -1.1778 -0.2467
  112MOL    H8733609   5.523   8.106   0.445  0.8662 -0.8421 -0.4012
  112MOL    H8833610   5.686   7.977   0.394 -0.2224  0.4049 -0.6602
  112MOL    H8933611   5.935   7.928   0.393 -1.4661 -0.3059  0.4504
  112MOL    H9033612   6.089   8.136   0.396  0.0140  0.4741 -0.4881
  112MOL    H9133613   5.987   0.210   0.433 -1.2336  1.7106  2.0342
  112MOL    C9233614   5.524   0.120   0.574  0.1935  0.0919  0.4853
  112MOL    C9333615   5.373   0.106   0.616 -0.2043 -0.6355 -0.1325
  112MOL    C9433616   5.320   8.118   0.589 -0.0452 -1.0871 -0.5497
  112MOL    C9533617   5.205   8.107   0.509 -0.4347  0.1687  0.0301
  112MOL    C9633618   5.140   7.980   0.509 -0.3035 -0.2117  0.0796
  112MOL    C9733619   5.202   7.871   0.580 -0.3240 -0.2137 -0.2435
  112MOL    C9833620   5.317   7.894   0.656  0.0161 -0.1998 -0.0685
  112MOL    N9933621   5.370   8.017   0.663 -0.1673  0.3834 -0.0006
  112MOL   H10033622   5.553   0.224   0.574 -0.2104  0.2084  0.5826
  112MOL   H10133623   5.580   0.077   0.658  1.1771  0.9810  0.2789
  112MOL   H10233624   5.322   0.175   0.549 -2.2945 -0.6558  1.3994
  112MOL   H10333625   5.154   0.037   0.461  0.3977  0.3887 -0.4881
  112MOL   H10433626   5.046   7.979   0.455 -0.3119  1.2936  0.0458
  112MOL   H10533627   5.166   7.769   0.578  0.0101 -0.3630  0.8422
  112MOL   H10633628   5.371   7.814   0.704  0.9127  0.0302 -0.6588
  112MOL   C10733629   5.353   0.142   0.768  0.3255  0.2815 -0.0018
  112MOL   C10833630   5.343   0.294   0.803  0.1659 -0.0207  0.3623
  112MOL   C10933631   5.254   0.379   0.706 -0.4738 -0.2253 -0.1191
  112MOL   C11033632   5.306   0.480   0.619 -0.8023 -0.2530  0.2573
  112MOL   C11133633   5.216   0.534   0.528  0.3484 -0.0957  0.0616
  112MOL   C11233634   5.078   0.507   0.539 -0.1718 -0.0364  0.4826
  112MOL   C11333635   5.037   0.407   0.630 -0.0275 -0.5369  0.3594
  112MOL   N11433636   5.121   0.344   0.711 -0.7771 -0.2864  0.3794
  112MOL   H11533637   5.438   0.107   0.827 -0.6690  1.0494  1.9040
  112MOL   H11633638   5.266   0.092   0.810  0.5360 -0.6916 -0.7075
  112MOL   H11733639   5.443   0.334   0.784 -0.7098  0.4848 -3.4696
  112MOL   H11833640   5.410   0.506   0.633 -1.0900  0.2774  1.5567
  112MOL   H11933641   5.250   0.605   0.454 -2.8391 -0.1723 -1.5833
  112MOL   H12033642   5.001   0.558   0.485 -0.3197 -1.0431 -0.2645
  112MOL   H12133643   4.934   0.373   0.632 -0.3921  0.5034 -0.5308
  112MOL   C12233644   5.299   0.321   0.948 -0.2681  0.8924 -0.5215
  112MOL   C12333645   5.311   0.471   1.002 -0.2846  0.0957  0.3043
  112MOL   C12433646   5.240   0.482   1.142  0.7160  0.1050 -0.7043
  112MOL   C12533647   5.150   0.580   1.174 -0.4964 -0.2353  0.3278
  112MOL   C12633648   5.098   0.600   1.304  0.0758  0.9646 -0.3620
  112MOL   C12733649   5.145   0.514   1.403  0.0921  0.3366  0.0504
  112MOL   C12833650   5.237   0.412   1.360  0.2974  1.1616  0.7456
  112MOL   N12933651   5.279   0.395   1.233  0.4093  0.0890  0.0071
  112MOL   H13033652   5.359   0.249   1.004 -1.9211  0.9192  1.3574
  112MOL   H13133653   5.192   0.304   0.963  0.2033 -1.8086  0.0638
  112MOL   H13233654   5.250   0.534   0.938  0.5183  1.7811  1.1742
  112MOL   H13333655   5.116   0.643   1.093  1.3445  0.5054  0.1106
  112MOL   H13433656   5.023   0.677   1.313 -1.3420 -0.2850 -1.2088
  112MOL   H13533657   5.111   0.499   1.504  1.5318 -2.2897  0.2028
  112MOL   H13633658   5.277   0.334   1.424 -1.0550 -0.8632 -0.8227
  112MOL   C13733659   5.454   0.525   1.009 -0.3604  0.4258  0.1406
  112MOL   C13833660   5.478   0.667   0.938 -0.1703 -0.1644 -0.1316
  112MOL   C13933661   5.382   0.775   0.990  0.1023 -0.2422 -0.0405
  112MOL   C14033662   5.282   0.823   0.906  0.3911  0.8038 -0.1010
  112MOL   C14133663   5.190   0.918   0.959  0.5353 -0.3769 -0.2504
  112MOL   C14233664   5.209   0.968   1.091  0.0258  0.2959  0.5600
  112MOL   C14333665   5.308   0.908   1.165 -0.1484 -0.0508 -0.3044
  112MOL   N14433666   5.396   0.820   1.117  0.5045  0.6263 -0.3303
  112MOL   H14533667   5.515   0.450   0.958 -0.7065  0.5192 -0.4187
  112MOL   H14633668   5.485   0.545   1.111  1.0267 -0.5754 -0.0629
  112MOL   H14733669   5.453   0.642   0.835 -0.0587 -0.2853 -0.1290
  112MOL   H14833670   5.259   0.777   0.811  1.7103 -0.4058  0.1579
  112MOL   H14933671   5.105   0.944   0.898  0.2982  1.1827  0.7221
  112MOL   H15033672   5.155   1.050   1.135 -0.7571  0.1158 -0.0547
  112MOL   H15133673   5.325   0.934   1.268 -0.7574 -3.7828  0.8156
  112MOL   C15233674   5.626   0.719   0.942  1.0132  0.4394 -0.5239
  112MOL   C15333675   5.742   0.628   0.920  0.3940  0.1650  0.3029
  112MOL   C15433676   5.752   0.576   0.777 -0.5920  0.0610  0.1990
  112MOL   C15533677   5.745   0.658   0.666  0.7569 -0.2633 -0.8189
  112MOL   C15633678   5.737   0.603   0.542 -0.0978  0.1445 -0.1076
  112MOL   C15733679   5.748   0.458   0.532 -0.8342 -0.9738 -0.1665
  112MOL   C15833680   5.764   0.383   0.646  0.0982  0.0111 -0.1051
  112MOL   N15933681   5.765   0.442   0.765 -0.3392  0.0751 -0.0037
  112MOL   H16033682   5.635   0.757   1.044  1.0082 -0.7905 -0.0566
  112MOL   H16133683   5.638   0.807   0.879 -0.4266  0.2424 -1.0896
  112MOL   H16233684   5.735   0.542   0.987  2.6220 -0.3484 -0.0678
  112MOL   H16333685   5.733   0.765   0.681 -1.7030 -0.8398  1.6023
  112MOL   H16433686   5.721   0.670   0.459 -1.7382 -0.1377 -0.0367
  112MOL   H16533687   5.744   0.408   0.437  2.5587 -0.3100 -0.7363
  112MOL   H16633688   5.772   0.275   0.642  0.6853  0.0007  1.1309
  112MOL   C16733689   5.876   0.683   0.960 -0.5075 -0.9568 -0.0641
  112MOL   C16833690   5.912   0.673   1.112  0.7519  0.4643  0.2083
  112MOL   C16933691   5.907   0.535   1.172  0.6328  0.1916 -0.0807
  112MOL   C17033692   5.836   0.496   1.285 -0.5727 -0.7265  0.4482
  112MOL   C17133693   5.834   0.359   1.322  0.5407  0.2883 -0.0227
  112MOL   C17233694   5.905   0.267   1.249  0.1561 -0.0932  0.2872
  112MOL   C17333695   5.971   0.319   1.132  1.0370  0.0078 -0.0246
  112MOL   N17433696   5.969   0.449   1.092  0.3507 -0.0335 -0.8227
  112MOL   H17533697   5.894   0.785   0.928  0.9301 -1.4677 -0.9465
  112MOL   H17633698   5.959   0.633   0.909  0.5984  1.3667 -0.5903
  112MOL   H17733699   5.835   0.732   1.161 -0.2688  0.2293 -1.0804
  112MOL   H17833700   5.785   0.568   1.347  0.2153  0.8502 -0.7054
  112MOL   H17933701   5.770   0.324   1.402  0.7339 -2.5200 -1.0314
  112MOL   H18033702   5.905   0.162   1.274  0.1547 -0.5661 -1.6407
  112MOL   H18133703   6.015   0.249   1.063 -1.6193 -1.6350 -0.1547
  112MOL   C18233704   6.058   0.720   1.140  0.5368 -0.5726 -0.6826
  112MOL   C18333705   6.075   0.870   1.169  0.5257 -0.4657 -0.0609
  112MOL   C18433706   6.038   0.962   1.053 -0.5830 -0.1742  0.4133
  112MOL   C18533707   6.143   0.994   0.962  0.3514  0.5106 -0.6323
  112MOL   C18633708   6.124   1.101   0.875  0.0853 -0.3924 -0.3887
  112MOL   C18733709   5.994   1.147   0.855  0.3656 -0.4572 -0.5857
  112MOL   C18833710   5.892   1.093   0.942  1.0914 -0.1414 -0.6891
  112MOL   N18933711   5.913   1.013   1.041 -0.4732  0.0631  0.2553
  112MOL   H19033712   6.128   0.675   1.070  2.5836  1.0416  0.2624
  112MOL   H19133713   6.100   0.674   1.229  0.2796  1.6717  0.6401
  112MOL   H19233714   6.180   0.892   1.187  0.4530  0.0935 -0.3074
  112MOL   H19333715   6.235   0.938   0.969 -0.4582 -0.7557  0.0863
  112MOL   H19433716   6.206   1.129   0.811 -0.6582  1.2591 -0.6412
  112MOL   H19533717   5.958   1.225   0.789  1.7294  0.7848  0.1243
  112MOL   H19633718   5.791   1.127   0.928  0.9282  0.7200  2.2162
  112MOL   C19733719   6.006   0.918   1.292 -0.4677  0.6215  0.5095
  112MOL   C19833720   6.026   0.839   1.429  0.0800 -0.6706  0.6178
  112MOL   C19933721   6.175   0.816   1.450 -0.7521 -0.6799 -0.5993
  112MOL   C20033722   6.233   0.693   1.495 -0.4023 -0.4230 -0.0146
  112MOL   C20133723   6.372   0.704   1.531  0.0348  0.4895 -0.2069
  112MOL   C20233724   6.445   0.824   1.515  0.8913  0.9028 -0.5013
  112MOL   C20333725   6.373   0.934   1.466  0.4227 -0.0584  0.0946
  112MOL   N20433726   6.243   0.934   1.446  0.4758  0.1839 -0.4670
  112MOL   H20533727   5.898   0.926   1.279 -0.5112 -1.1427 -0.3055
  112MOL   H20633728   6.040   1.021   1.303  0.8627  0.1909  0.5248
  112MOL   H20733729   5.987   0.738   1.421 -0.2116 -0.4086 -1.6552
  112MOL   H20833730   6.184   0.597   1.506 -0.7311 -0.2578 -0.0161
  112MOL   H20933731   6.420   0.611   1.560  1.1734  1.1315 -0.0005
  112MOL   H21033732   6.550   0.835   1.538  0.5051 -0.3022  1.9978
  112MOL   H21133733   6.423   1.029   1.456  0.1621 -0.0054 -0.7804
  112MOL   C21233734   5.965   0.921   1.550  0.7908 -0.4611 -0.0920
  112MOL   C21333735   5.808   0.954   1.540  0.6905 -0.3049 -0.5195
  112MOL   C21433736   5.726   0.828   1.518  0.7454 -0.0412  0.8017
  112MOL   C21533737   5.661   0.801   1.390 -0.1624 -0.0798 -0.0184
  112MOL   C21633738   5.566   0.694   1.386  0.1451 -1.3466 -0.5936
  112MOL   C21733739   5.553   0.616   1.503 -0.2121 -0.4445 -0.2412
  112MOL   C21833740   5.624   0.647   1.618  1.0189 -1.1155 -0.3522
  112MOL   N21933741   5.702   0.754   1.629  0.3417  0.1436  0.4400
  112MOL   H22033742   6.019   1.016   1.553  0.0583 -0.0503  0.0934
  112MOL   H22133743   5.994   0.881   1.647 -0.1016 -0.0600  0.3421
  112MOL   H22233744   5.795   1.007   1.445 -4.1407 -0.3969 -0.0278
  112MOL   H22333745   5.689   0.856   1.302  1.1304  0.4042  0.6724
  112MOL   H22433746   5.515   0.662   1.297  0.5736 -1.1841 -0.8970
  112MOL   H22533747   5.495   0.525   1.503 -0.0050 -0.6803  3.7380
  112MOL   H22633748   5.627   0.588   1.709  0.0812  2.4182  2.0607
  112MOL   C22733749   5.760   1.044   1.653  0.0061 -0.4185  0.2393
  112MOL   C22833750   5.618   1.109   1.638 -0.1319 -0.3687  0.3414
  112MOL   C22933751   5.510   1.035   1.715 -0.3019 -0.6225  0.3246
  112MOL   C23033752   5.434   0.935   1.654  0.0198 -0.4148 -0.2496
  112MOL   C23133753   5.345   0.860   1.727  0.5496  0.0263 -0.1250
  112MOL   C23233754   5.338   0.884   1.866  0.4286 -0.4687 -0.8281
  112MOL   C23333755   5.410   0.991   1.916  0.5819  0.3278  0.0626
  112MOL   N23433756   5.503   1.062   1.846 -0.7253  0.0608  0.3725
  112MOL   H23533757   5.835   1.122   1.653  0.5734 -0.9566  1.4048
  112MOL   H23633758   5.775   0.997   1.750 -2.4262 -1.2016  0.2767
  112MOL   H23733759   5.582   1.096   1.536  0.6271  1.6426 -0.1963
  112MOL   H23833760   5.454   0.899   1.554 -0.5658  1.3525 -1.0442
  112MOL   H23933761   5.314   0.767   1.681  4.5615 -0.5131 -2.0222
  112MOL   H24033762   5.273   0.829   1.933 -0.9254  1.7079 -0.2992
  112MOL   H24133763   5.420   1.005   2.023  2.3135  0.6027 -0.1221
  112MOL   C24233764   5.615   1.259   1.671 -0.4683  0.3944  0.3883
  112MOL   C24333765   5.664   1.345   1.549  0.5594  0.2690 -0.1688
  112MOL   C24433766   5.602   1.307   1.411 -0.2462  0.0728  0.3809
  112MOL   C24533767   5.676   1.241   1.315 -0.9332  0.6533 -0.1119
  112MOL   C24633768   5.620   1.206   1.189  0.4379 -0.3499  0.3665
  112MOL   C24733769   5.487   1.252   1.166 -0.7062  0.3369  0.2702
  112MOL   C24833770   5.417   1.311   1.273 -0.8942  0.5104  0.0839
  112MOL   N24933771   5.474   1.336   1.391 -0.0278  0.1282 -0.3301
  112MOL   H25033772   5.679   1.264   1.759  0.6311 -0.2061 -0.3707
  112MOL   H25133773   5.516   1.297   1.697 -0.1623  1.5118 -0.0549
  112MOL   H25233774   5.771   1.330   1.542  0.8290  2.7775 -2.2359
  112MOL   H25333775   5.778   1.216   1.341 -0.9695  0.8625  0.2312
  112MOL   H25433776   5.673   1.151   1.113  1.5385 -0.4727  1.2023
  112MOL   H25533777   5.430   1.237   1.075  1.4561  0.3112 -1.1177
  112MOL   H25633778   5.317   1.347   1.259 -1.1662 -0.4369 -0.4093
  112MOL   C25733779   5.639   1.500   1.578  0.0224  0.2263  0.0066
  112MOL   C25833780   5.713   1.561   1.704  0.1606 -0.8418  0.1451
  112MOL   C25933781   5.863   1.566   1.691 -0.6780  0.2845 -0.3421
  112MOL   C26033782   5.945   1.488   1.777 -0.0068  0.4846 -0.1998
  112MOL   C26133783   6.087   1.500   1.772 -0.1541 -0.0681 -0.1796
  112MOL   C26233784   6.136   1.583   1.668 -0.2619 -0.6881  0.4683
  112MOL   C26333785   6.047   1.656   1.587  0.5219  0.1141 -0.5961
  112MOL   N26433786   5.909   1.651   1.599 -0.4415 -0.2296 -0.7764
  112MOL   H26533787   5.532   1.515   1.575  0.0432  0.2227 -1.4873
  112MOL   H26633788   5.678   1.541   1.484 -1.8060 -0.8965 -1.2742
  112MOL   H26733789   5.688   1.491   1.784  1.9326 -1.3641  0.2458
  112MOL   H26833790   5.893   1.427   1.849 -1.8497  0.4924 -1.4778
  112MOL   H26933791   6.152   1.438   1.831  1.8054  0.3588 -1.8309
  112MOL   H27033792   6.242   1.571   1.650 -0.5141 -2.6157  0.1872
  112MOL   H27133793   6.092   1.705   1.503  1.0438  1.1479  0.2753
  112MOL   C27233794   5.664   1.701   1.741 -0.4342 -0.2783 -0.2418
  112MOL   C27333795   5.523   1.707   1.812  0.3775  0.3653  0.1846
  112MOL   C27433796   5.520   1.609   1.931 -0.1739  0.3314  0.0028
  112MOL   C27533797   5.450   1.490   1.923  0.6478  0.5529  0.6626
  112MOL   C27633798   5.470   1.388   2.021 -0.1642  0.7153 -0.2506
  112MOL   C27733799   5.548   1.422   2.128 -0.3516  0.0608  0.4922
  112MOL   C27833800   5.609   1.549   2.128 -0.4262 -0.2530  0.2099
  112MOL   N27933801   5.599   1.642   2.033  0.1588 -0.0834  0.2839
  112MOL   H28033802   5.662   1.759   1.648  1.5876  0.0285 -0.1115
  112MOL   H28133803   5.732   1.745   1.814  1.0463  0.6881 -2.1470
  112MOL   H28233804   5.451   1.665   1.743  0.1831 -0.7648  1.0471
  112MOL   H28333805   5.385   1.476   1.838 -0.7176 -0.3096  1.8183
  112MOL   H28433806   5.425   1.290   2.013 -1.0575  1.1525 -0.6888
  112MOL   H28533807   5.573   1.358   2.212  1.8359  0.4649  0.1899
  112MOL   H28633808   5.682   1.561   2.207 -0.0825  0.1821 -0.1741
  112MOL   C28733809   5.465   1.844   1.848 -0.4639 -0.2390 -0.2248
  112MOL   C28833810   5.431   1.936   1.729 -0.6513  0.2748  0.6012
  112MOL   C28933811   5.364   2.067   1.757 -0.5256  0.2969 -0.3814
  112MOL   C29033812   5.227   2.066   1.756  0.5587  0.0374 -0.0438
  112MOL   C29133813   5.161   2.190   1.776  0.4628  0.3155  0.1221
  112MOL   C29233814   5.242   2.307   1.795  0.4044  0.4167  0.5481
  112MOL   C29333815   5.382   2.293   1.789  0.2922  0.1883 -0.0697
  112MOL   N29433816   5.446   2.175   1.775  0.5768  0.5612 -0.1962
  112MOL   H29533817   5.527   1.883   1.929  1.9139  1.8521 -2.9339
  112MOL   H29633818   5.364   1.834   1.889  0.5067 -0.4054  2.2444
  112MOL   H29733819   5.369   1.896   1.649 -0.3854 -0.5263  0.7864
  112MOL   H29833820   5.163   1.980   1.744  1.2588 -0.7105  1.4159
  112MOL   H29933821   5.055   2.206   1.784  0.6178  1.3013  0.2468
  112MOL   H30033822   5.212   2.409   1.813 -0.6086  0.8318 -2.9979
  112MOL   H30133823   5.456   2.371   1.788  2.4996 -1.7776  2.4207
  112MOL   H30233824   5.523   1.954   1.672 -1.1641 -2.6033 -1.2885
  113MOL     C133825   2.916   5.376   6.246 -0.6015  0.0289  0.9559
  113MOL     C233826   2.986   5.481   6.331 -0.1634 -0.1618 -0.4277
  113MOL     C333827   2.908   5.507   6.456  0.3979 -0.6391  0.3476
  113MOL     C433828   2.840   5.630   6.467  1.0631 -0.6163  0.5361
  113MOL     C533829   2.777   5.654   6.588  0.5292 -0.1095  0.4567
  113MOL     C633830   2.761   5.552   6.683  0.2888  0.8866 -0.0936
  113MOL     C733831   2.834   5.432   6.659 -0.5085 -0.5010  0.1731
  113MOL     N833832   2.909   5.411   6.551 -0.1855  0.2123 -0.0395
  113MOL     H933833   2.814   5.407   6.222  0.3438  1.6523 -1.0225
  113MOL    H1033834   2.974   5.357   6.156  1.3144  1.0933  1.9556
  113MOL    H1133835   2.982   5.567   6.264 -0.9731  1.5096  1.7051
  113MOL    H1233836   2.836   5.712   6.396 -1.0614  1.0170  2.4334
  113MOL    H1333837   2.737   5.752   6.610 -1.5018 -1.1518  1.6014
  113MOL    H1433838   2.703   5.563   6.774  1.8129  2.6769  0.6850
  113MOL    H1533839   2.838   5.361   6.740 -0.4323  0.1361  0.7274
  113MOL    H1633840   2.924   5.279   6.296  0.0941 -0.8550 -0.8227
  113MOL    C1733841   3.139   5.454   6.360 -0.2350 -0.2583 -0.4052
  113MOL    C1833842   3.208   5.568   6.443 -0.3726 -0.2166  0.3158
  113MOL    C1933843   3.337   5.519   6.505  0.5523  0.0891 -0.9362
  113MOL    C2033844   3.369   5.539   6.638  0.0901 -0.9281 -0.2151
  113MOL    C2133845   3.485   5.488   6.698 -0.6492 -0.2895  0.0095
  113MOL    C2233846   3.566   5.417   6.613  0.1559 -0.5289 -0.2480
  113MOL    C2333847   3.531   5.406   6.478 -0.2038 -0.2673 -0.5731
  113MOL    N2433848   3.419   5.454   6.421  0.0503  0.3951  0.0374
  113MOL    H2533849   3.199   5.427   6.274  2.0596  2.3338  0.2992
  113MOL    H2633850   3.137   5.367   6.426 -1.5736  0.2340  0.2287
  113MOL    H2733851   3.146   5.590   6.530 -0.2612 -0.7656  0.5370
  113MOL    H2833852   3.308   5.605   6.699 -1.6127 -1.0882 -1.7083
  113MOL    H2933853   3.492   5.498   6.805  1.9666  0.5182 -0.1859
  113MOL    H3033854   3.658   5.369   6.643 -0.2248  0.8063  3.3216
  113MOL    H3133855   3.598   5.353   6.411 -0.8737 -1.9396  0.0576
  113MOL    C3233856   3.234   5.704   6.366  0.1062  0.1171 -0.2813
  113MOL    C3333857   3.307   5.721   6.230 -0.7426 -0.2733  0.0335
  113MOL    C3433858   3.218   5.686   6.109  0.3350 -0.3181  0.7070
  113MOL    C3533859   3.248   5.584   6.018  0.1877 -0.3911  0.4094
  113MOL    C3633860   3.160   5.558   5.910 -0.0443  0.4275  0.1814
  113MOL    C3733861   3.037   5.630   5.901 -0.8216 -0.4967 -0.4070
  113MOL    C3833862   3.017   5.729   6.000 -0.5423  0.3572 -0.4402
  113MOL    N3933863   3.103   5.758   6.103  0.5992  0.4349 -0.1932
  113MOL    H4033864   3.289   5.757   6.444 -0.5495 -1.2100  1.1049
  113MOL    H4133865   3.133   5.745   6.363 -1.1380 -2.6088  2.3470
  113MOL    H4233866   3.391   5.652   6.225  0.1801  0.8319  0.0565
  113MOL    H4333867   3.337   5.525   6.029  0.3808  0.0793  1.4384
  113MOL    H4433868   3.177   5.475   5.842 -3.8497  0.9287 -1.5597
  113MOL    H4533869   2.965   5.604   5.825 -2.7299  0.8571  0.8788
  113MOL    H4633870   2.932   5.795   5.996  0.4281  1.5723 -1.4699
  113MOL    C4733871   3.373   5.856   6.209 -0.0550 -0.2285  0.2797
  113MOL    C4833872   3.503   5.887   6.292 -0.2933  0.3631  0.0667
  113MOL    C4933873   3.618   5.799   6.243 -1.0444  0.6446 -0.3665
  113MOL    C5033874   3.670   5.694   6.323 -0.2809 -0.0775  0.0579
  113MOL    C5133875   3.780   5.614   6.278  0.7506 -0.1944 -0.1687
  113MOL    C5233876   3.827   5.642   6.149  0.4023 -0.5345  0.5398
  113MOL    C5333877   3.765   5.741   6.074  0.1598  0.3493  0.1349
  113MOL    N5433878   3.668   5.822   6.119  0.2596 -0.9951 -0.3499
  113MOL    H5533879   3.298   5.933   6.225  0.4322  0.1162  0.9349
  113MOL    H5633880   3.401   5.863   6.103 -0.0592  1.3272  0.3700
  113MOL    H5733881   3.488   5.842   6.390  0.8654 -2.7729 -1.1169
  113MOL    H5833882   3.639   5.683   6.426  2.7628  0.7449  1.1244
  113MOL    H5933883   3.831   5.542   6.340 -0.0991 -0.2078  0.5192
  113MOL    H6033884   3.910   5.593   6.101  1.3725 -1.0056  2.6662
  113MOL    H6133885   3.788   5.755   5.969 -0.0433 -2.0925 -0.2706
  113MOL    C6233886   3.531   6.030   6.300 -0.7270 -0.4028 -0.0171
  113MOL    C6333887   3.451   6.100   6.405 -1.1699  0.2637  0.2022
  113MOL    C6433888   3.497   6.050   6.539  0.5868 -0.2960 -0.2140
  113MOL    C6533889   3.422   5.965   6.626  0.1582  0.2819  0.6723
  113MOL    C6633890   3.479   5.921   6.743 -0.1444  0.2454 -0.1247
  113MOL    C6733891   3.611   5.964   6.774  0.9423  1.2754 -0.1257
  113MOL    C6833892   3.677   6.053   6.688  0.2025 -0.0876 -0.8617
  113MOL    N6933893   3.618   6.090   6.574 -0.1951  0.2770  0.2136
  113MOL    H7033894   3.515   6.082   6.205  0.2748  0.0501  0.0590
  113MOL    H7133895   3.637   6.027   6.323 -0.6823 -1.7949 -0.3426
  113MOL    H7233896   3.346   6.075   6.392 -1.0101 -1.3126  1.8192
  113MOL    H7333897   3.321   5.930   6.606  0.5071 -1.3478  1.6167
  113MOL    H7433898   3.418   5.869   6.816 -1.0776  2.3146  0.6021
  113MOL    H7533899   3.655   5.933   6.868  0.9774 -0.0340 -0.5604
  113MOL    H7633900   3.779   6.084   6.702 -0.5226  1.8394  0.4706
  113MOL    C7733901   3.454   6.255   6.399  0.6932  0.5275 -0.8164
  113MOL    C7833902   3.398   6.323   6.274  0.1520  0.2175 -0.1103
  113MOL    C7933903   3.259   6.283   6.244 -0.3613 -0.6628  0.0138
  113MOL    C8033904   3.218   6.205   6.130 -0.1283  0.1613  0.0753
  113MOL    C8133905   3.085   6.170   6.122 -0.1776  0.7984 -0.3635
  113MOL    C8233906   2.991   6.214   6.216 -0.3281  1.0252  0.0921
  113MOL    C8333907   3.036   6.297   6.313 -0.9901 -1.0718 -0.3079
  113MOL    N8433908   3.168   6.328   6.335 -0.3819  0.0657  0.9610
  113MOL    H8533909   3.560   6.279   6.412  0.9281 -0.6559 -0.4643
  113MOL    H8633910   3.403   6.289   6.489 -0.2558 -3.0762  0.1046
  113MOL    H8733911   3.459   6.279   6.195  1.7296 -0.0571  1.2492
  113MOL    H8833912   3.285   6.163   6.056 -1.8663 -1.5240 -0.5710
  113MOL    H8933913   3.054   6.109   6.038  1.9095 -2.5192  1.1725
  113MOL    H9033914   2.889   6.177   6.212  0.2666 -0.7215  0.5758
  113MOL    H9133915   2.966   6.326   6.390 -2.1886 -0.4516 -1.5983
  113MOL    C9233916   3.425   6.472   6.264  0.2687 -0.5881 -0.6154
  113MOL    C9333917   3.570   6.508   6.231 -0.1475  0.5118 -0.4983
  113MOL    C9433918   3.626   6.433   6.112 -0.3188 -0.5374  0.1603
  113MOL    C9533919   3.738   6.354   6.132 -0.0061 -0.0410 -0.2881
  113MOL    C9633920   3.789   6.275   6.027 -0.0304  0.0827 -0.5099
  113MOL    C9733921   3.731   6.283   5.899  0.0369 -0.0871 -0.2723
  113MOL    C9833922   3.635   6.389   5.884 -0.3479  0.3286 -0.5184
  113MOL    N9933923   3.580   6.460   5.983  0.3578 -0.4300  0.0198
  113MOL   H10033924   3.398   6.516   6.360  1.9240 -0.9086  0.0109
  113MOL   H10133925   3.365   6.512   6.182  0.6419 -2.2432 -1.7399
  113MOL   H10233926   3.619   6.474   6.323 -0.9011 -1.6056 -0.8480
  113MOL   H10333927   3.781   6.336   6.230  1.6020  1.1809 -0.7566
  113MOL   H10433928   3.877   6.215   6.048 -0.1222 -0.3539 -1.3581
  113MOL   H10533929   3.772   6.233   5.812 -0.3964  0.5273 -0.8350
  113MOL   H10633930   3.629   6.438   5.788 -1.6648  0.8029 -0.1978
  113MOL   C10733931   3.611   6.655   6.230  0.3938  0.2606 -0.0759
  113MOL   C10833932   3.581   6.733   6.359 -0.0208 -0.5490 -0.1041
  113MOL   C10933933   3.658   6.685   6.478 -0.0338 -0.4127  0.0736
  113MOL   C11033934   3.597   6.639   6.601 -0.2047  0.7878  0.3827
  113MOL   C11133935   3.675   6.601   6.710 -0.5548 -0.5336 -0.0107
  113MOL   C11233936   3.812   6.604   6.685 -0.0133 -0.7233 -1.0405
  113MOL   C11333937   3.864   6.654   6.566  0.2968 -0.5489  0.3504
  113MOL   N11433938   3.787   6.699   6.467  0.4942  0.1165 -0.0002
  113MOL   H11533939   3.561   6.704   6.146 -0.4246 -2.2021 -1.0601
  113MOL   H11633940   3.714   6.657   6.192  0.6678 -1.1249  0.5764
  113MOL   H11733941   3.479   6.702   6.381  0.4080 -2.4603 -0.6839
  113MOL   H11833942   3.491   6.630   6.617  0.0569 -0.7746  1.3552
  113MOL   H11933943   3.639   6.563   6.805  3.6079  0.2124  1.9562
  113MOL   H12033944   3.881   6.579   6.764 -0.4734 -0.9966 -0.7216
  113MOL   H12133945   3.970   6.651   6.545  0.3176  0.1123  0.3600
  113MOL   C12233946   3.575   6.890   6.365  0.1846 -0.1453  0.0994
  113MOL   C12333947   3.496   6.961   6.257  0.0816  0.0085 -0.2134
  113MOL   C12433948   3.361   6.897   6.226  0.0595  0.0794  0.5355
  113MOL   C12533949   3.336   6.837   6.104 -1.2403 -0.6422  0.3276
  113MOL   C12633950   3.216   6.766   6.083  0.1595 -0.9428 -0.1250
  113MOL   C12733951   3.123   6.764   6.184  0.4793 -0.0925 -0.3320
  113MOL   C12833952   3.151   6.826   6.301 -0.0268 -0.2560  0.2817
  113MOL   N12933953   3.263   6.897   6.325  0.1159  0.0439 -0.2917
  113MOL   H13033954   3.680   6.919   6.373  0.2960 -0.7465  0.8889
  113MOL   H13133955   3.527   6.912   6.461  3.6673 -1.9528  2.3688
  113MOL   H13233956   3.561   6.947   6.170 -0.9991 -1.2886 -0.8230
  113MOL   H13333957   3.413   6.840   6.028 -1.6915 -1.0923 -0.1503
  113MOL   H13433958   3.208   6.731   5.981 -0.8081 -1.2638  0.0557
  113MOL   H13533959   3.028   6.713   6.167  2.7486 -4.5238 -0.5194
  113MOL   H13633960   3.074   6.821   6.377  0.2455  0.6622  0.6148
  113MOL   C13733961   3.485   7.111   6.293  0.2581 -0.1753  0.0447
  113MOL   C13833962   3.454   7.189   6.170 -0.1437  0.0897 -0.7646
  113MOL   C13933963   3.376   7.315   6.212 -0.1906  0.0687 -0.0267
  113MOL   C14033964   3.249   7.332   6.155  0.5308  0.2375  0.2204
  113MOL   C14133965   3.190   7.458   6.157 -0.1694 -0.3048 -0.0983
  113MOL   C14233966   3.256   7.560   6.223 -0.1103 -0.5703  0.3616
  113MOL   C14333967   3.383   7.532   6.276 -1.1410 -0.6416  0.2358
  113MOL   N14433968   3.443   7.414   6.273  0.0883  0.1905  0.3135
  113MOL   H14533969   3.574   7.157   6.337  0.7398  0.0132 -1.1199
  113MOL   H14633970   3.408   7.127   6.369  0.7547 -0.2973  0.5800
  113MOL   H14733971   3.397   7.134   6.095  0.3396 -1.0118 -0.3443
  113MOL   H14833972   3.205   7.249   6.102 -1.4055  0.9359  0.7102
  113MOL   H14933973   3.089   7.471   6.121  0.2571  1.1360 -0.8134
  113MOL   H15033974   3.207   7.656   6.237 -2.6007 -1.7305 -0.1399
  113MOL   H15133975   3.431   7.604   6.340 -0.3300 -0.5536 -0.4630
  113MOL   C15233976   3.589   7.223   6.093  0.2177  0.0780  0.0308
  113MOL   C15333977   3.590   7.230   5.934 -0.2366  0.4712  0.0099
  113MOL   C15433978   3.513   7.119   5.872 -0.4226  0.0912  0.8074
  113MOL   C15533979   3.581   7.000   5.831  0.0164 -0.2760  0.0889
  113MOL   C15633980   3.500   6.895   5.777 -0.9012 -0.1679  0.1911
  113MOL   C15733981   3.359   6.920   5.760 -0.2575  0.0631  0.5910
  113MOL   C15833982   3.301   7.036   5.810 -0.0241 -0.0562  0.0805
  113MOL   N15933983   3.377   7.133   5.864 -0.3638 -0.2976  0.5599
  113MOL   H16033984   3.677   7.160   6.106 -0.6509 -1.3740 -0.9230
  113MOL   H16133985   3.629   7.314   6.137  1.6209 -0.5234  0.0280
  113MOL   H16233986   3.694   7.215   5.905  0.1078  0.5810  1.1298
  113MOL   H16333987   3.687   6.987   5.848  0.1402  2.3346  1.6043
  113MOL   H16433988   3.552   6.811   5.733 -1.2536 -0.6456  0.6751
  113MOL   H16533989   3.297   6.846   5.713  0.4329  1.3172 -2.3890
  113MOL   H16633990   3.194   7.039   5.800 -0.0636  0.0973  0.5249
  113MOL   C16733991   3.555   7.380   5.889 -0.5969 -0.0735  0.2000
  113MOL   C16833992   3.637   7.435   5.762 -0.9259 -0.2300 -0.1267
  113MOL   C16933993   3.650   7.331   5.652 -0.4109  0.0739 -0.2013
  113MOL   C17033994   3.769   7.256   5.641 -0.0046  1.1515  0.0499
  113MOL   C17133995   3.779   7.169   5.531  0.0699  0.2139 -0.6287
  113MOL   C17233996   3.678   7.157   5.444  0.1532  0.9461  0.4645
  113MOL   C17333997   3.559   7.223   5.466 -0.7077 -0.1165  0.1492
  113MOL   N17433998   3.542   7.307   5.568  0.3514 -0.7325  0.4441
  113MOL   H17533999   3.570   7.446   5.975  0.3928 -1.2919  0.9885
  113MOL   H17634000   3.447   7.380   5.878 -0.8152  2.7189  1.7842
  113MOL   H17734001   3.734   7.466   5.799 -0.9027 -1.9359  1.2925
  113MOL   H17834002   3.840   7.259   5.722  1.2045  0.8551 -0.9791
  113MOL   H17934003   3.859   7.099   5.514 -0.3936 -0.3053 -0.6927
  113MOL   H18034004   3.677   7.091   5.359 -1.9874  0.6836  0.6629
  113MOL   H18134005   3.475   7.197   5.402 -1.8708  0.6200  1.3525
  113MOL   C18234006   3.598   7.573   5.694 -0.0862  0.4107 -0.3510
  113MOL   C18334007   3.536   7.685   5.788  0.2432  0.3510 -0.4108
  113MOL   C18434008   3.628   7.742   5.893 -0.2448  0.0484 -0.1448
  113MOL   C18534009   3.587   7.753   6.027 -0.0038  0.2354 -0.0018
  113MOL   C18634010   3.678   7.814   6.124  0.5626 -1.2424  0.3033
  113MOL   C18734011   3.798   7.867   6.076  0.6424 -0.0620  0.1959
  113MOL   C18834012   3.828   7.858   5.933 -0.0181  0.0192 -0.5137
  113MOL   N18934013   3.743   7.798   5.848 -0.7850  0.1913 -0.2664
  113MOL   H19034014   3.523   7.560   5.615 -0.0443 -0.5800 -0.2391
  113MOL   H19134015   3.688   7.616   5.648 -0.2184 -1.0620 -2.0866
  113MOL   H19234016   3.457   7.641   5.850 -1.8878  2.9497 -1.1925
  113MOL   H19334017   3.495   7.702   6.054  1.3997 -1.2070  2.2370
  113MOL   H19434018   3.659   7.826   6.230 -0.5895  0.8222 -0.0936
  113MOL   H19534019   3.860   7.918   6.148 -0.4870  2.1111 -0.3252
  113MOL   H19634020   3.918   7.896   5.888 -0.1707 -0.4578 -1.2213
  113MOL   C19734021   3.474   7.798   5.698  0.4184 -0.1514 -0.2299
  113MOL   C19834022   3.323   7.793   5.687  0.1781  0.0619  0.2739
  113MOL   C19934023   3.274   7.690   5.586 -0.0479  0.3692 -0.0279
  113MOL   C20034024   3.243   7.722   5.456 -0.5975 -0.3543  0.2928
  113MOL   C20134025   3.196   7.618   5.371  0.0904  0.0068 -0.1142
  113MOL   C20234026   3.197   7.488   5.418 -0.0793 -0.5820 -0.9247
  113MOL   C20334027   3.238   7.464   5.548 -0.7881 -0.5060 -0.0056
  113MOL   N20434028   3.268   7.565   5.631 -0.0364  0.7810 -0.1556
  113MOL   H20534029   3.522   7.792   5.600  0.5887 -1.9335 -0.0623
  113MOL   H20634030   3.514   7.893   5.733  1.3249 -0.4252 -0.4834
  113MOL   H20734031   3.319   7.887   5.632  0.6508 -0.3684 -0.4928
  113MOL   H20834032   3.244   7.824   5.423 -0.8086 -0.6497 -0.6210
  113MOL   H20934033   3.168   7.635   5.267  0.3371  1.8511  0.0967
  113MOL   H21034034   3.169   7.410   5.350 -0.2541 -1.7726  0.4969
  113MOL   H21134035   3.258   7.365   5.587 -0.1942 -0.0028  0.9866
  113MOL   C21234036   3.230   7.803   5.816  0.2399  0.3207 -0.2890
  113MOL   C21334037   3.256   7.917   5.911 -0.1751 -0.2327  0.4310
  113MOL   C21434038   3.237   8.054   5.838  0.5731 -0.1308  0.3380
  113MOL   C21534039   3.337   8.151   5.841  0.0430 -0.3343  0.2709
  113MOL   C21634040   3.313   0.123   5.791 -0.0222 -0.2741 -0.2315
  113MOL   C21734041   3.175   0.158   5.758 -0.7619 -0.5398  0.2665
  113MOL   C21834042   3.082   0.057   5.755  0.3452  0.3525 -0.9289
  113MOL   N21934043   3.112   8.080   5.794 -0.5576 -0.3272 -0.1107
  113MOL   H22034044   3.220   7.707   5.865 -2.1389  0.2646 -0.8217
  113MOL   H22134045   3.129   7.807   5.776 -0.9278  1.8265  2.6739
  113MOL   H22234046   3.357   7.895   5.944 -0.2457 -1.8604 -0.4045
  113MOL   H22334047   3.438   8.130   5.874 -0.1704 -0.7888  0.6464
  113MOL   H22434048   3.384   0.204   5.796  0.4563 -0.7329  0.5074
  113MOL   H22534049   3.137   0.251   5.719 -1.6957 -1.2078 -0.4474
  113MOL   H22634050   2.987   0.074   5.708 -0.7030  0.6359  1.2089
  113MOL   C22734051   3.181   7.907   6.048  0.2806 -0.4314 -0.0417
  113MOL   C22834052   3.205   8.020   6.142 -0.0894  0.0459 -0.3654
  113MOL   C22934053   3.102   8.033   6.253  0.6271  0.1689  0.4968
  113MOL   C23034054   3.032   0.002   6.275  0.3832 -0.0592 -0.2067
  113MOL   C23134055   2.930   0.004   6.377 -0.1075 -0.2538 -0.8519
  113MOL   C23234056   2.916   8.040   6.453 -0.0348 -0.9274 -0.1635
  113MOL   C23334057   2.993   7.927   6.429 -0.7075 -0.0907 -0.0580
  113MOL   N23434058   3.085   7.920   6.331 -0.4020  0.5484  1.0607
  113MOL   H23534059   3.205   7.811   6.094  3.5822  0.6404  0.6005
  113MOL   H23634060   3.074   7.895   6.028  0.2738 -0.3843 -0.0360
  113MOL   H23734061   3.188   8.109   6.080 -0.9107  0.3707  0.3235
  113MOL   H23834062   3.063   0.088   6.216  2.1292  0.9986  2.1855
  113MOL   H23934063   2.879   0.097   6.396 -0.5952 -0.6638 -0.1242
  113MOL   H24034064   2.843   8.036   6.533 -0.1586 -1.2360 -0.2920
  113MOL   H24134065   2.988   7.838   6.490 -0.4885 -0.7286 -0.9676
  113MOL   C24234066   3.341   8.021   6.209  0.2653 -0.1028 -0.3976
  113MOL   C24334067   3.376   8.141   6.297  0.0665 -0.1493 -0.3476
  113MOL   C24434068   3.514   8.140   6.362 -0.7103 -0.2789  0.0715
  113MOL   C24534069   3.536   8.144   6.496 -0.0630  0.4688  0.3162
  113MOL   C24634070   3.667   0.003   6.546 -0.1461 -0.1388 -0.3492
  113MOL   C24734071   3.772   8.150   6.457 -0.6703  0.3344  0.4404
  113MOL   C24834072   3.742   8.151   6.320 -0.5655  0.9919 -0.9040
  113MOL   N24934073   3.617   8.141   6.275  0.3461 -0.5539  0.1780
  113MOL   H25034074   3.418   7.989   6.138  1.2588  2.3798 -0.5155
  113MOL   H25134075   3.349   7.946   6.288 -4.5428 -1.2202 -0.8240
  113MOL   H25234076   3.310   0.000   6.382  0.2923  1.4323 -0.3703
  113MOL   H25334077   3.451   8.142   6.562  0.3885 -2.4422  0.9138
  113MOL   H25434078   3.694   0.022   6.649 -0.4019 -0.6117 -0.1942
  113MOL   H25534079   3.873   8.140   6.495 -0.7346 -0.8997  0.2996
  113MOL   H25634080   3.818   0.007   6.244 -0.8140 -0.1597 -1.2751
  113MOL   C25734081   3.368   0.122   6.217  0.7019  0.6496 -0.3793
  113MOL   C25834082   3.386   0.252   6.306  0.4282 -0.2068  0.3963
  113MOL   C25934083   3.407   0.370   6.218 -0.1965  0.7417  0.0788
  113MOL   C26034084   3.538   0.420   6.205  0.6099 -0.5684 -0.0143
  113MOL   C26134085   3.562   0.522   6.110  0.2413  0.0685  0.1206
  113MOL   C26234086   3.449   0.566   6.029 -0.7418 -0.3943 -0.1396
  113MOL   C26334087   3.323   0.513   6.047 -0.1294  0.2073  0.6066
  113MOL   N26434088   3.303   0.417   6.145 -0.2378  0.2306  0.0569
  113MOL   H26534089   3.278   0.135   6.157  0.2411  0.6422  0.3031
  113MOL   H26634090   3.449   0.119   6.144 -1.0457  0.5518 -2.3628
  113MOL   H26734091   3.476   0.238   6.365  0.5678  3.7928  1.2182
  113MOL   H26834092   3.617   0.382   6.268  0.5944 -0.0342  0.3280
  113MOL   H26934093   3.660   0.554   6.080 -0.4868  0.9381 -1.4296
  113MOL   H27034094   3.482   0.635   5.952 -2.3200 -1.2567 -1.6017
  113MOL   H27134095   3.239   0.542   5.986 -0.2253 -1.6623 -0.1873
  113MOL   C27234096   3.279   0.279   6.410 -0.3394  0.3565 -1.1317
  113MOL   C27334097   3.303   0.392   6.510  0.6710  0.1234 -0.2379
  113MOL   C27434098   3.175   0.428   6.584  0.1007  0.7776  0.3672
  113MOL   C27534099   3.109   0.547   6.562  0.1602 -0.6479  0.3326
  113MOL   C27634100   2.998   0.582   6.638 -0.0436  0.3327 -0.3999
  113MOL   C27734101   2.951   0.494   6.735 -0.3793  0.2684 -0.3160
  113MOL   C27834102   3.015   0.369   6.751  0.1581 -0.2158  0.1121
  113MOL   N27934103   3.118   0.333   6.670 -0.4684 -0.1049 -0.1357
  113MOL   H28034104   3.249   0.193   6.470 -3.3094  0.8034 -1.9099
  113MOL   H28134105   3.185   0.305   6.362 -2.0017 -0.3672  1.6027
  113MOL   H28234106   3.315   0.476   6.442 -1.7831  0.6337 -0.1010
  113MOL   H28334107   3.155   0.622   6.499 -0.0879 -1.4806 -0.8524
  113MOL   H28434108   2.934   0.668   6.624  1.4564  1.6586  0.7388
  113MOL   H28534109   2.858   0.526   6.779  0.8844 -0.8504  3.3723
  113MOL   H28634110   2.976   0.303   6.827  1.5417  1.1582  2.0822
  113MOL   C28734111   3.412   0.372   6.609 -0.6970  0.1601  0.1186
  113MOL   C28834112   3.447   0.496   6.690  0.2642 -0.5676 -0.3468
  113MOL   C28934113   3.504   0.604   6.598 -0.4531 -0.3279 -0.5640
  113MOL   C29034114   3.425   0.713   6.551  0.2533 -0.5727  0.4764
  113MOL   C29134115   3.489   0.822   6.483  0.0935  0.3890 -0.6793
  113MOL   C29234116   3.623   0.805   6.445  0.1778  0.0705 -0.4525
  113MOL   C29334117   3.695   0.703   6.499  0.0708  0.2609 -0.3486
  113MOL   N29434118   3.636   0.597   6.565 -0.1600  0.3357  0.0805
  113MOL   H29534119   3.505   0.349   6.556 -1.0272  1.3400 -0.9901
  113MOL   H29634120   3.380   0.289   6.672 -0.7093  0.5416  0.6176
  113MOL   H29734121   3.522   0.482   6.767  0.6247  0.9053 -0.4165
  113MOL   H29834122   3.324   0.714   6.588 -0.2231  1.8759 -0.8188
  113MOL   H29934123   3.432   0.909   6.456  0.9261  1.0016 -0.4684
  113MOL   H30034124   3.678   0.879   6.389  0.2270  0.9609  0.7384
  113MOL   H30134125   3.801   0.692   6.484 -0.2349 -1.8409 -1.1519
  113MOL   H30234126   3.360   0.535   6.744  0.8642 -1.7726  1.5402
  114MOL     C134127   3.928   1.992   6.336  0.0316  0.6799 -0.1008
  114MOL     C234128   3.989   2.094   6.433 -0.8060  0.6372  0.4860
  114MOL     C334129   3.913   2.087   6.566 -0.2950  0.5165  0.3396
  114MOL     C434130   3.930   1.978   6.653 -0.3463  0.4175  0.2446
  114MOL     C534131   3.842   1.971   6.760  0.7314 -0.6331 -0.2820
  114MOL     C634132   3.752   2.077   6.789  0.0626 -0.1567 -0.1761
  114MOL     C734133   3.758   2.188   6.706  0.4747 -0.1613 -0.3670
  114MOL     N834134   3.827   2.186   6.592 -0.2279  0.0315 -0.2643
  114MOL     H934135   3.943   1.892   6.377  0.9623  0.1720 -1.6491
  114MOL    H1034136   3.821   2.011   6.329 -0.0262  1.7845  3.0661
  114MOL    H1134137   3.965   2.191   6.389  0.1995  0.6153 -0.1217
  114MOL    H1234138   4.007   1.903   6.645 -0.7096 -0.0044  0.7180
  114MOL    H1334139   3.863   1.890   6.829  0.7971 -1.2192 -0.9852
  114MOL    H1434140   3.701   2.077   6.884  0.0966  1.7213 -0.1485
  114MOL    H1534141   3.689   2.269   6.722  0.1347 -0.4143 -0.5515
  114MOL    H1634142   3.968   1.989   6.235  1.7345 -0.3786  0.5776
  114MOL    C1734143   4.146   2.096   6.440 -0.3726 -0.7571 -0.3252
  114MOL    C1834144   4.222   2.157   6.314 -0.5176 -0.2341  0.1171
  114MOL    C1934145   4.162   2.290   6.260  1.0558 -0.3349  0.0663
  114MOL    C2034146   4.055   2.285   6.168 -0.6945 -0.2614 -0.2123
  114MOL    C2134147   4.002   2.409   6.123  0.5581 -0.4652 -0.4444
  114MOL    C2234148   4.050   2.521   6.186  0.6500 -0.0647  0.2680
  114MOL    C2334149   4.151   2.510   6.285 -0.2010 -0.6662  0.0327
  114MOL    N2434150   4.212   2.399   6.314 -0.3268 -0.9148  0.0078
  114MOL    H2534151   4.184   1.998   6.470  2.2985  0.9439  2.0776
  114MOL    H2634152   4.181   2.142   6.532  0.3367 -2.3990  0.2465
  114MOL    H2734153   4.214   2.088   6.230 -2.6309 -0.3470  0.3873
  114MOL    H2834154   4.027   2.188   6.129  1.6544 -0.8594 -0.4537
  114MOL    H2934155   3.919   2.411   6.053 -1.7766 -0.6358  2.1994
  114MOL    H3034156   4.016   2.618   6.152  1.0256 -0.5847 -1.6180
  114MOL    H3134157   4.188   2.603   6.325  1.4023 -0.5407 -1.6616
  114MOL    C3234158   4.374   2.174   6.326  0.0836  0.0065  0.1917
  114MOL    C3334159   4.448   2.040   6.335  0.1774  0.5274 -0.0351
  114MOL    C3434160   4.404   1.938   6.227 -0.6943 -0.0377  0.1169
  114MOL    C3534161   4.330   1.829   6.265 -0.9690  0.6209  0.0513
  114MOL    C3634162   4.293   1.733   6.174 -0.4813  0.0092  0.6014
  114MOL    C3734163   4.333   1.748   6.039  0.3656  0.4320 -0.1405
  114MOL    C3834164   4.413   1.854   6.011  0.4690 -0.6240  0.3773
  114MOL    N3934165   4.442   1.953   6.098  0.1477 -0.2534 -0.2771
  114MOL    H4034166   4.409   2.241   6.404  1.6061 -0.1570 -0.3376
  114MOL    H4134167   4.403   2.216   6.230  0.6131  1.7633  1.1035
  114MOL    H4234168   4.424   2.005   6.435  1.3358 -1.6581 -0.4991
  114MOL    H4334169   4.307   1.809   6.369 -0.5061 -1.4071 -0.2128
  114MOL    H4434170   4.237   1.645   6.203  0.3708 -0.2644  1.4378
  114MOL    H4534171   4.312   1.669   5.967  2.0330  0.2538 -0.4666
  114MOL    H4634172   4.444   1.872   5.909  2.7062 -0.8856  0.9963
  114MOL    C4734173   4.607   2.059   6.334  0.0863 -0.2519  0.1787
  114MOL    C4834174   4.689   1.987   6.450  0.1167 -0.0456 -0.5636
  114MOL    C4934175   4.678   2.054   6.584  0.8987  0.0809 -0.1286
  114MOL    C5034176   4.790   2.093   6.660 -0.1798  0.0674 -0.5617
  114MOL    C5134177   4.779   2.152   6.785 -0.2794  0.8329 -0.4968
  114MOL    C5234178   4.646   2.167   6.834 -0.4960  0.9419 -0.3020
  114MOL    C5334179   4.534   2.120   6.753 -0.4871 -0.4093  0.4111
  114MOL    N5434180   4.551   2.066   6.633  0.1990  0.6115  0.0373
  114MOL    H5534181   4.621   2.167   6.334 -1.4635 -0.0326  0.7085
  114MOL    H5634182   4.654   2.046   6.237  0.5544 -0.8254  0.4772
  114MOL    H5734183   4.794   2.011   6.430  0.2460  0.2147  0.4020
  114MOL    H5834184   4.886   2.089   6.610 -1.0237  0.6931 -2.2633
  114MOL    H5934185   4.857   2.189   6.849 -1.2698 -2.1600  2.5645
  114MOL    H6034186   4.622   2.204   6.933  0.4151  1.0723 -0.1245
  114MOL    H6134187   4.430   2.119   6.783 -1.1870 -0.5564 -1.9397
  114MOL    C6234188   4.692   1.831   6.461  0.0799  0.4948  0.3952
  114MOL    C6334189   4.715   1.755   6.326  0.3647  0.1950 -0.3327
  114MOL    C6434190   4.860   1.760   6.283 -0.6004  0.1934 -0.0246
  114MOL    C6534191   4.898   1.835   6.173 -0.2959 -0.0789 -0.2852
  114MOL    C6634192   5.039   1.862   6.156  0.1271 -0.1653  0.2634
  114MOL    C6734193   5.133   1.786   6.236 -0.1973  0.3800 -0.0697
  114MOL    C6834194   5.084   1.695   6.327 -0.1214 -0.8973 -0.0680
  114MOL    N6934195   4.952   1.689   6.353 -0.0594 -0.7156 -0.7538
  114MOL    H7034196   4.604   1.784   6.505 -0.9800  2.7848  0.8335
  114MOL    H7134197   4.769   1.802   6.533  1.2311  0.9261 -0.6370
  114MOL    H7234198   4.661   1.802   6.245  1.7442  1.2886 -0.6286
  114MOL    H7334199   4.829   1.891   6.111 -0.9220  3.7488  3.6363
  114MOL    H7434200   5.075   1.928   6.079  0.5703 -0.3180  0.3360
  114MOL    H7534201   5.238   1.793   6.209 -0.4841  0.6468 -1.1055
  114MOL    H7634202   5.156   1.629   6.373  0.7333  0.7779  1.0724
  114MOL    C7734203   4.660   1.611   6.342 -0.1957 -0.0055  0.8177
  114MOL    C7834204   4.678   1.504   6.226 -0.6608  0.3985 -0.0568
  114MOL    C7934205   4.702   1.371   6.296  0.0364 -0.0453 -0.0379
  114MOL    C8034206   4.812   1.293   6.269 -1.0101  0.1478  0.2984
  114MOL    C8134207   4.822   1.165   6.328  0.1178  0.8591 -0.0429
  114MOL    C8234208   4.724   1.128   6.420  0.7460  0.2987  0.4211
  114MOL    C8334209   4.617   1.212   6.445 -0.0976  0.4455 -0.8408
  114MOL    N8434210   4.606   1.331   6.383 -0.4239  0.1201 -0.0953
  114MOL    H8534211   4.552   1.620   6.356  0.0028  4.9292  0.0843
  114MOL    H8634212   4.706   1.563   6.428 -0.8015 -0.0960  1.0968
  114MOL    H8734213   4.772   1.524   6.175 -1.2217 -0.4493 -1.4560
  114MOL    H8834214   4.885   1.322   6.195  1.1704 -3.6655  0.7983
  114MOL    H8934215   4.905   1.099   6.307 -1.7721 -1.2818 -0.8649
  114MOL    H9034216   4.723   1.032   6.470  1.2237 -0.1670 -0.4579
  114MOL    H9134217   4.535   1.173   6.503  1.9367 -1.3487  0.9279
  114MOL    C9234218   4.557   1.479   6.129  0.1787  0.1063 -0.2239
  114MOL    C9334219   4.580   1.369   6.028  0.4330 -0.6692  0.0999
  114MOL    C9434220   4.542   1.229   6.077  0.2539  0.4503  0.2905
  114MOL    C9534221   4.421   1.207   6.141 -0.7843  0.3927  0.2038
  114MOL    C9634222   4.391   1.075   6.180  0.5628  0.7384 -0.0331
  114MOL    C9734223   4.478   0.973   6.157 -0.1972  0.7429 -0.0514
  114MOL    C9834224   4.593   1.002   6.087  0.0388  0.2088  0.6217
  114MOL    N9934225   4.627   1.121   6.054 -0.0107 -1.6119  0.2922
  114MOL   H10034226   4.538   1.573   6.077 -0.8675  0.0490  0.0313
  114MOL   H10134227   4.463   1.461   6.182 -0.8494  1.6972 -1.4710
  114MOL   H10234228   4.689   1.365   6.024  0.4891 -2.8198  2.3290
  114MOL   H10334229   4.353   1.282   6.179 -0.6872  0.2648  0.6387
  114MOL   H10434230   4.291   1.060   6.218 -0.0357  2.8634 -0.7038
  114MOL   H10534231   4.465   0.869   6.183 -0.4827  1.1007  1.2556
  114MOL   H10634232   4.669   0.928   6.063  1.9671  2.5017 -0.5176
  114MOL   C10734233   4.521   1.390   5.888  0.5289  0.3610 -0.7805
  114MOL   C10834234   4.605   1.484   5.793  0.5840 -0.0729 -1.2203
  114MOL   C10934235   4.757   1.477   5.803 -0.1963 -0.9193 -0.2349
  114MOL   C11034236   4.823   1.360   5.771 -0.0692  0.1156  0.4449
  114MOL   C11134237   4.961   1.355   5.799 -0.7643 -0.3342 -0.0276
  114MOL   C11234238   5.019   1.465   5.861 -0.7024  0.3268  0.5826
  114MOL   C11334239   4.941   1.578   5.885 -0.7202  0.0778 -0.1162
  114MOL   N11434240   4.812   1.588   5.855 -0.4922  0.4654  0.3746
  114MOL   H11534241   4.413   1.408   5.890  0.4175 -0.1370 -1.6344
  114MOL   H11634242   4.543   1.295   5.838  0.2024  1.7120 -3.6403
  114MOL   H11734243   4.579   1.581   5.835 -2.1949 -1.3582  0.1680
  114MOL   H11834244   4.773   1.283   5.715 -3.7010  2.3786  0.4718
  114MOL   H11934245   5.023   1.270   5.776  0.1752  0.6406 -1.2062
  114MOL   H12034246   5.122   1.468   5.895  0.8490 -2.0399 -3.6002
  114MOL   H12134247   4.987   1.656   5.943 -0.0293  0.2273 -0.8601
  114MOL   C12234248   4.562   1.485   5.645  0.0938  0.6111  0.0375
  114MOL   C12334249   4.415   1.491   5.608  0.1718  0.2274  0.2482
  114MOL   C12434250   4.363   1.635   5.612 -0.8440 -0.1624  0.3062
  114MOL   C12534251   4.264   1.665   5.699  0.7990  1.1078  0.4462
  114MOL   C12634252   4.224   1.802   5.708 -0.2098  0.3607 -0.0469
  114MOL   C12734253   4.281   1.898   5.621  0.4451 -0.0390 -0.1670
  114MOL   C12834254   4.371   1.850   5.530 -0.1289  0.4986  0.7729
  114MOL   N12934255   4.417   1.725   5.527 -0.7540 -0.3948  0.1531
  114MOL   H13034256   4.613   1.396   5.609  0.6434  1.1155 -0.4544
  114MOL   H13134257   4.612   1.568   5.595  0.4748  0.4706  0.1837
  114MOL   H13234258   4.352   1.436   5.678  0.3341  0.0762  0.2777
  114MOL   H13334259   4.221   1.589   5.762  1.1969 -0.2387 -0.8591
  114MOL   H13434260   4.146   1.825   5.779 -1.3554 -1.9704 -0.4930
  114MOL   H13534261   4.246   1.999   5.631  3.4217  1.0231 -0.1999
  114MOL   H13634262   4.423   1.921   5.466 -0.4405 -0.4823 -0.5876
  114MOL   C13734263   4.400   1.434   5.465 -1.1859 -0.2167  0.9631
  114MOL   C13834264   4.332   1.295   5.455 -0.0035 -0.1412  0.1300
  114MOL   C13934265   4.420   1.179   5.488 -0.3349  0.9582  0.4585
  114MOL   C14034266   4.459   1.088   5.385 -0.5501 -0.6777  0.2770
  114MOL   C14134267   4.541   0.982   5.412  0.0595  0.6660  0.4922
  114MOL   C14234268   4.577   0.962   5.545 -0.2670  0.3779 -0.1099
  114MOL   C14334269   4.544   1.062   5.641  0.0254  1.2525  0.3451
  114MOL   N14434270   4.467   1.171   5.610  0.1689  0.5034  0.1945
  114MOL   H14534271   4.498   1.431   5.417 -2.2512 -1.6117 -1.2314
  114MOL   H14634272   4.343   1.497   5.397  2.0817  1.5907 -0.1707
  114MOL   H14734273   4.309   1.284   5.349 -0.0108 -1.7204  0.2923
  114MOL   H14834274   4.428   1.106   5.283  2.5245  1.9154 -0.2653
  114MOL   H14934275   4.577   0.917   5.334  1.1306  0.3802  1.2114
  114MOL   H15034276   4.628   0.875   5.581 -1.6048  0.1738  1.3211
  114MOL   H15134277   4.582   1.049   5.741 -2.0692 -1.7262  0.7969
  114MOL   C15234278   4.197   1.269   5.533 -0.2548  0.0550 -0.1981
  114MOL   C15334279   4.075   1.367   5.507  0.7805 -0.3927 -0.5333
  114MOL   C15434280   4.050   1.398   5.359 -1.1019  0.2860 -0.9769
  114MOL   C15534281   4.057   1.528   5.309  0.5181  0.2688 -0.0354
  114MOL   C15634282   4.041   1.552   5.175 -0.3303 -0.5634 -0.1376
  114MOL   C15734283   4.024   1.447   5.081 -0.1891  0.0878 -0.1160
  114MOL   C15834284   4.038   1.320   5.142 -0.3382 -0.1842  0.0509
  114MOL   N15934285   4.041   1.293   5.272 -0.1285  0.1198 -0.3700
  114MOL   H16034286   4.214   1.262   5.640 -1.0067  1.0358 -0.0044
  114MOL   H16134287   4.158   1.174   5.497  0.5098 -0.7359  1.0148
  114MOL   H16234288   4.090   1.462   5.558  1.1333  0.4799 -2.2374
  114MOL   H16334289   4.073   1.619   5.365  0.2672  1.6461 -2.1023
  114MOL   H16434290   4.037   1.657   5.150  0.1159 -0.3297  0.7477
  114MOL   H16534291   4.030   1.460   4.974  1.1776  1.4983  0.1075
  114MOL   H16634292   4.042   1.233   5.077 -0.0857 -0.6849  0.7363
  114MOL   C16734293   3.942   1.306   5.556  0.0067  0.4402  0.4564
  114MOL   C16834294   3.943   1.268   5.706  0.1240 -0.8515 -0.5016
  114MOL   C16934295   3.977   1.382   5.804 -0.5754 -0.3660 -0.0143
  114MOL   C17034296   4.076   1.367   5.901 -0.3022 -0.0289  0.6880
  114MOL   C17134297   4.101   1.474   5.989  0.4290 -0.1374 -0.1186
  114MOL   C17234298   4.030   1.598   5.962  0.5527  0.0540 -0.3573
  114MOL   C17334299   3.927   1.593   5.868 -0.4763  0.1939 -0.2947
  114MOL   N17434300   3.903   1.489   5.793 -0.0890  0.5109  0.0195
  114MOL   H17534301   3.906   1.231   5.486 -0.1554  1.0532 -0.1263
  114MOL   H17634302   3.874   1.386   5.525  0.3557  0.2690 -0.7662
  114MOL   H17734303   4.019   1.191   5.720  1.4380  0.9803  2.8399
  114MOL   H17834304   4.135   1.278   5.918 -1.9630 -1.1389  0.7316
  114MOL   H17934305   4.168   1.465   6.072  4.6846 -0.5252 -3.4152
  114MOL   H18034306   4.037   1.687   6.022  0.3566 -0.8093  0.9522
  114MOL   H18134307   3.860   1.675   5.847 -1.4676 -0.2218  1.1647
  114MOL   C18234308   3.808   1.200   5.738 -0.0451  0.6524 -0.1790
  114MOL   C18334309   3.809   1.049   5.779  0.3486 -0.2514 -0.2073
  114MOL   C18434310   3.684   1.006   5.863  0.2666  0.3148  0.0943
  114MOL   C18534311   3.572   0.951   5.804 -0.6572  0.7928 -0.7437
  114MOL   C18634312   3.470   0.904   5.891 -0.3107 -0.2088  0.4745
  114MOL   C18734313   3.482   0.925   6.029 -0.2716 -0.4999  0.0358
  114MOL   C18834314   3.594   0.990   6.080 -0.2825  0.3019  0.9881
  114MOL   N18934315   3.691   1.028   5.998  0.2831 -0.0984 -0.4730
  114MOL   H19034316   3.736   1.203   5.656  1.5547  1.0335 -1.6148
  114MOL   H19134317   3.761   1.252   5.821 -0.2428 -0.9812  0.7660
  114MOL   H19234318   3.893   1.038   5.848 -0.6346 -0.3677  0.9980
  114MOL   H19334319   3.574   0.940   5.697  1.8632  0.3539 -0.6643
  114MOL   H19434320   3.380   0.865   5.847 -0.8423  0.8104  0.6295
  114MOL   H19534321   3.397   0.907   6.092 -1.6916  1.7729 -1.1432
  114MOL   H19634322   3.609   1.029   6.180  3.9602  3.3548 -0.6897
  114MOL   C19734323   3.822   0.951   5.662 -0.2557 -0.1396  0.0362
  114MOL   C19834324   3.960   0.902   5.616  0.1186 -0.1631  0.4499
  114MOL   C19934325   4.049   0.884   5.738 -0.4131 -0.4973 -0.7849
  114MOL   C20034326   4.168   0.958   5.755  0.2676 -0.0830 -0.4270
  114MOL   C20134327   4.232   0.943   5.879  0.2586  0.8532  0.0768
  114MOL   C20234328   4.176   0.855   5.973 -0.2304  0.5325  0.0098
  114MOL   C20334329   4.057   0.786   5.946  0.1074  0.6996  0.2506
  114MOL   N20434330   4.002   0.794   5.828  0.3809 -0.8095  0.4066
  114MOL   H20534331   3.759   0.989   5.581 -0.2174 -1.0722 -0.4390
  114MOL   H20634332   3.786   0.854   5.698  2.6878 -1.6075 -0.8492
  114MOL   H20734333   4.001   0.987   5.562 -1.2648  0.9246  1.0682
  114MOL   H20834334   4.191   1.033   5.681 -1.7181  0.1940 -0.8120
  114MOL   H20934335   4.319   1.001   5.903  0.6852  0.2983 -0.1076
  114MOL   H21034336   4.232   0.832   6.063 -1.0458 -1.8590 -0.0754
  114MOL   H21134337   4.006   0.717   6.012  0.3614  0.0672 -0.2005
  114MOL   C21234338   3.967   0.782   5.525  0.1558 -0.6681 -0.3028
  114MOL   C21334339   4.094   0.721   5.459 -0.4974 -0.0994  1.0651
  114MOL   C21434340   4.131   0.791   5.336  0.0267  0.2382 -0.2455
  114MOL   C21534341   4.130   0.717   5.217  0.5043 -0.3383  0.2588
  114MOL   C21634342   4.180   0.777   5.100  0.2944  0.4798  0.4159
  114MOL   C21734343   4.219   0.914   5.102 -0.7337 -0.1649  0.3215
  114MOL   C21834344   4.196   0.981   5.223 -0.2114 -0.1749 -0.1944
  114MOL   N21934345   4.157   0.925   5.335 -0.6095 -0.7025 -0.0361
  114MOL   H22034346   3.902   0.807   5.440 -0.4043 -0.5683  0.1517
  114MOL   H22134347   3.924   0.702   5.585 -0.1126  0.9788  1.7235
  114MOL   H22234348   4.056   0.623   5.431  0.8557 -0.8212  1.7380
  114MOL   H22334349   4.104   0.612   5.218 -2.9435  0.4642  0.1108
  114MOL   H22434350   4.193   0.723   5.008 -0.2011 -0.7232  1.0456
  114MOL   H22534351   4.249   0.970   5.015 -2.2545 -0.5194 -0.4503
  114MOL   H22634352   4.192   1.088   5.237  0.2970  0.1750 -2.5331
  114MOL   C22734353   4.225   0.701   5.539 -0.0475 -0.3921 -0.1686
  114MOL   C22834354   4.216   0.587   5.639 -0.3568 -0.3704 -0.2607
  114MOL   C22934355   4.207   0.451   5.571  0.1980 -0.0223 -0.6849
  114MOL   C23034356   4.302   0.406   5.474 -0.2756 -0.5978 -0.3262
  114MOL   C23134357   4.272   0.288   5.402 -0.4502 -0.1641  0.2272
  114MOL   C23234358   4.154   0.213   5.430 -0.2239 -0.5606 -0.6878
  114MOL   C23334359   4.070   0.256   5.541 -0.1784  0.5723  0.1854
  114MOL   N23434360   4.104   0.370   5.612  0.2952 -0.1727 -0.0404
  114MOL   H23534361   4.258   0.795   5.584 -0.3423 -0.8159  0.9428
  114MOL   H23634362   4.305   0.677   5.469 -0.0638  2.0478 -1.0779
  114MOL   H23734363   4.124   0.609   5.693  0.1478  1.7614 -0.2112
  114MOL   H23834364   4.377   0.472   5.434  0.2088 -1.7369 -1.3439
  114MOL   H23934365   4.335   0.267   5.317 -0.2190  1.2397  0.0404
  114MOL   H24034366   4.132   0.118   5.385 -0.2381 -1.6216  1.4805
  114MOL   H24134367   3.994   0.188   5.575 -0.3370  0.9968  0.6930
  114MOL   C24234368   4.327   0.594   5.744 -0.5488  0.6567 -0.1518
  114MOL   C24334369   4.349   0.476   5.849  0.0630 -0.1641  0.0874
  114MOL   C24434370   4.481   0.492   5.932  0.1748  0.4402  0.1233
  114MOL   C24534371   4.591   0.419   5.891  0.4808  0.5204  0.1364
  114MOL   C24634372   4.716   0.445   5.957  0.3019  0.4078  0.9210
  114MOL   C24734373   4.722   0.540   6.058  0.0290  0.1491 -0.8122
  114MOL   C24834374   4.609   0.611   6.091  0.4145  0.2248  1.1440
  114MOL   N24934375   4.490   0.595   6.023  0.1929  0.1608 -0.8917
  114MOL   H25034376   4.325   0.684   5.805  0.1824  0.7643 -0.2795
  114MOL   H25134377   4.415   0.609   5.681 -0.8792  2.4758 -0.2175
  114MOL   H25234378   4.355   0.389   5.783  0.9728 -1.5797  2.0059
  114MOL   H25334379   4.594   0.356   5.803  0.7785  1.2024 -0.3477
  114MOL   H25434380   4.807   0.393   5.929 -0.2454 -0.6573  1.0891
  114MOL   H25534381   4.815   0.565   6.108 -0.1916  1.2631 -0.9585
  114MOL   H25634382   4.613   0.698   6.155 -0.2089  1.0435  0.0907
  114MOL   C25734383   4.224   0.440   5.931 -0.6366  0.5026  0.2634
  114MOL   C25834384   4.210   0.305   6.003 -0.1091  0.6879  0.2409
  114MOL   C25934385   4.095   0.308   6.102 -0.8759 -0.2303  0.0690
  114MOL   C26034386   4.117   0.299   6.237 -0.3293  0.4244  0.5762
  114MOL   C26134387   4.010   0.291   6.326 -0.2850  0.7765 -0.9046
  114MOL   C26234388   3.880   0.315   6.268 -0.4739  0.0750 -0.1759
  114MOL   C26334389   3.872   0.339   6.133  0.8902  0.1958 -0.7453
  114MOL   N26434390   3.976   0.332   6.045 -0.1010 -0.0567  0.6095
  114MOL   H26534391   4.133   0.459   5.873 -0.4908 -0.5930 -0.3230
  114MOL   H26634392   4.226   0.519   6.007  0.6491  3.2534 -2.5062
  114MOL   H26734393   4.306   0.301   6.054  0.7154 -0.4860 -1.3826
  114MOL   H26834394   4.222   0.296   6.262 -0.2749  3.2081  0.8673
  114MOL   H26934395   4.020   0.275   6.433  1.4320  0.4789 -1.0859
  114MOL   H27034396   3.801   0.311   6.341 -0.3943 -1.6801 -0.1542
  114MOL   H27134397   3.773   0.352   6.091 -0.2371  0.7455  1.9644
  114MOL   C27234398   4.187   0.194   5.901  0.3474  0.0717  0.3040
  114MOL   C27334399   4.141   0.054   5.943 -0.4607 -0.6830 -0.0480
  114MOL   C27434400   4.084   8.124   5.824 -0.4618 -0.4431  0.4278
  114MOL   C27534401   4.163   8.023   5.757 -0.3810 -0.5785  0.3827
  114MOL   C27634402   4.108   7.964   5.645 -0.1779  0.5225 -0.5612
  114MOL   C27734403   3.985   8.008   5.596  0.1333  0.3428 -0.5819
  114MOL   C27834404   3.913   8.105   5.672  0.8735 -0.0680 -0.1804
  114MOL   N27934405   3.965   0.017   5.777  0.7186 -0.1307  0.0766
  114MOL   H28034406   4.275   0.179   5.839 -0.1305 -0.8554 -0.1668
  114MOL   H28134407   4.109   0.238   5.838  0.2167  0.9766  1.0802
  114MOL   H28234408   4.053   0.084   6.000  0.4077  1.1958  0.3239
  114MOL   H28334409   4.259   7.992   5.795 -0.7841 -0.0935  1.8304
  114MOL   H28434410   4.154   7.877   5.601 -0.2731 -0.6878  1.6547
  114MOL   H28534411   3.937   7.952   5.517  0.8963 -1.3721  0.1238
  114MOL   H28634412   3.812   8.133   5.646  0.0803 -2.6886 -0.1368
  114MOL   C28734413   4.238   8.141   6.035 -0.9103  0.6532 -0.4216
  114MOL   C28834414   4.177   8.016   6.103  0.4464  0.4126 -0.7397
  114MOL   C28934415   4.265   7.953   6.214 -0.4050  0.7963  0.3218
  114MOL   C29034416   4.245   7.969   6.351  0.0983 -0.8539 -0.7530
  114MOL   C29134417   4.312   7.881   6.437  0.2271 -1.0464  1.0336
  114MOL   C29234418   4.397   7.787   6.383  0.3896 -0.4383 -0.0493
  114MOL   C29334419   4.420   7.784   6.245  0.3376  0.8500  0.6520
  114MOL   N29434420   4.355   7.868   6.160  0.6116  0.5823 -0.9219
  114MOL   H29534421   4.271   0.065   6.106 -0.3245  0.2776 -0.2838
  114MOL   H29634422   4.330   8.111   5.984 -1.3155 -0.4780 -0.5109
  114MOL   H29734423   4.133   7.943   6.035 -2.0134  0.4648  0.7219
  114MOL   H29834424   4.184   8.049   6.391  0.9257 -0.4702 -0.2328
  114MOL   H29934425   4.306   7.881   6.545 -1.0721  0.6030  0.9697
  114MOL   H30034426   4.449   7.723   6.453  0.0015 -0.9706 -0.2421
  114MOL   H30134427   4.476   7.700   6.208 -1.6082  0.3769 -1.3655
  114MOL   H30234428   4.090   8.060   6.151  0.8269 -2.1906  2.5389
  115MOL     C134429   7.197   1.821   7.706  0.3953  0.5293 -0.4133
  115MOL     C234430   7.258   1.828   7.850 -0.8921  0.0719  0.0668
  115MOL     C334431   7.201   1.707   7.932  0.2145 -0.0101 -0.0541
  115MOL     C434432   7.263   1.580   7.925 -0.1306  0.0526  0.2037
  115MOL     C534433   7.195   1.469   7.982  0.5037 -0.5619  0.1787
  115MOL     C634434   7.082   1.499   8.064  0.6596 -0.1010  0.0992
  115MOL     C734435   7.037   1.634   8.077 -0.1354  0.3033  0.3521
  115MOL     N834436   7.094   1.737   8.008  0.0232  0.7304 -0.0726
  115MOL     H934437   7.232   1.910   7.655  2.9221  0.5300  1.2116
  115MOL    H1034438   7.221   1.726   7.659 -2.7340 -0.0118 -1.0207
  115MOL    H1134439   7.217   1.907   7.914 -0.2353  0.5742 -0.1306
  115MOL    H1234440   7.355   1.563   7.872  0.0068 -0.2646  0.5507
  115MOL    H1334441   7.238   1.370   7.978  2.5989  0.3354  0.0974
  115MOL    H1434442   7.035   1.415   8.113 -2.9809  0.4667 -2.2664
  115MOL    H1534443   6.962   1.672   8.144 -1.7372 -0.1557 -1.1624
  115MOL    H1634444   7.089   1.822   7.724  0.1718  0.4219 -1.7404
  115MOL    C1734445   7.414   1.825   7.854  0.9403 -0.3315 -0.3242
  115MOL    C1834446   7.486   1.957   7.846 -0.4988  0.7196  0.5763
  115MOL    C1934447   7.428   2.052   7.944  0.8166  0.3306  0.0551
  115MOL    C2034448   7.380   2.174   7.895 -0.3512  0.2747 -0.0595
  115MOL    C2134449   7.340   2.268   7.988 -0.0690  0.3252 -0.9546
  115MOL    C2234450   7.348   2.240   8.128 -0.3370 -0.0748  0.3432
  115MOL    C2334451   7.400   2.115   0.015 -0.0232  0.7446  0.3583
  115MOL    N2434452   7.433   2.018   8.077 -0.1110  0.1826  0.4881
  115MOL    H2534453   7.458   1.748   7.790 -0.0071 -0.0898 -1.2813
  115MOL    H2634454   7.441   1.784   7.951  0.7926  0.4076  0.0280
  115MOL    H2734455   7.461   2.000   7.749 -0.7325 -0.9471 -0.1092
  115MOL    H2834456   7.372   2.193   7.789 -0.2834  2.1850  0.2589
  115MOL    H2934457   7.291   2.361   7.964  2.2697  1.5329 -1.2316
  115MOL    H3034458   7.300   2.306   0.047  0.4346  0.1033  0.7123
  115MOL    H3134459   7.413   2.090   0.120  3.0186 -0.9144 -0.3694
  115MOL    C3234460   7.644   1.948   7.857  0.4787  0.1795 -0.0042
  115MOL    C3334461   7.723   1.890   7.737 -0.3392  0.4519  0.1254
  115MOL    C3434462   7.705   1.967   7.610 -0.1124  0.4766  0.7073
  115MOL    C3534463   7.664   1.903   7.492  0.3627  0.2336  0.3072
  115MOL    C3634464   7.650   1.978   7.373 -0.3806 -0.0448  1.0579
  115MOL    C3734465   7.685   2.109   7.362  0.1443 -0.7788  0.2866
  115MOL    C3834466   7.729   2.165   7.480 -0.0552 -0.0307  0.1920
  115MOL    N3934467   7.741   2.098   7.602 -0.0107 -0.7738  0.4091
  115MOL    H4034468   7.674   1.888   7.943  2.2259  0.1617 -0.5980
  115MOL    H4134469   7.677   2.051   7.875 -0.3628  1.0395 -3.1369
  115MOL    H4234470   7.674   1.794   7.719  0.4485  0.4821 -2.3669
  115MOL    H4334471   7.653   1.795   7.491 -0.1418  0.2761  1.1966
  115MOL    H4434472   7.628   1.922   7.283  1.4671 -2.8242  2.2676
  115MOL    H4534473   7.666   2.167   7.273  0.5039  0.7571  1.1930
  115MOL    H4634474   7.762   2.268   7.472  0.3013 -0.0164  1.6516
  115MOL    C4734475   7.874   1.866   7.765  0.2043 -0.7285 -0.3241
  115MOL    C4834476   7.907   1.769   7.867  0.2011  0.6698 -0.2084
  115MOL    C4934477   7.847   1.629   7.840 -0.5423  0.3903 -0.1116
  115MOL    C5034478   7.736   1.579   7.915  1.0300  0.2322  0.0569
  115MOL    C5134479   7.686   1.450   7.877 -0.5172  0.1206  0.2502
  115MOL    C5234480   7.745   1.375   7.772  0.0714 -0.9017  0.3910
  115MOL    C5334481   7.852   1.436   7.702 -0.2198 -0.7538  0.7515
  115MOL    N5434482   7.899   1.558   7.741  0.5894 -0.8825 -0.3355
  115MOL    H5534483   7.925   1.960   7.783 -1.4768  0.2129 -0.4438
  115MOL    H5634484   7.929   1.839   7.674  1.8864  1.2696  0.0748
  115MOL    H5734485   7.868   1.809   7.960 -1.7007  2.2324 -1.6427
  115MOL    H5834486   7.692   1.627   8.001 -1.4881 -0.8197 -0.5971
  115MOL    H5934487   7.602   1.412   7.932 -0.9771  1.4044  0.4598
  115MOL    H6034488   7.690   1.290   7.735 -1.2909 -0.3562  1.1186
  115MOL    H6134489   7.910   1.396   7.621 -0.7488  3.6150 -1.9849
  115MOL    C6234490   8.063   1.764   7.894 -0.3221 -0.5550 -0.6163
  115MOL    C6334491   8.109   1.677   8.018 -0.9236 -0.3425  0.0777
  115MOL    C6434492   0.114   1.668   8.006 -0.2981  0.6459  0.0903
  115MOL    C6534493   0.178   1.555   7.949  0.4293  0.1966 -0.3462
  115MOL    C6634494   0.315   1.549   7.934 -0.0026  0.5963  0.1671
  115MOL    C6734495   0.392   1.650   7.987  0.3103 -0.0853  0.1482
  115MOL    C6834496   0.321   1.758   8.049  0.1922  0.0670 -0.6987
  115MOL    N6934497   0.188   1.764   8.060 -0.1689  0.3491 -0.1645
  115MOL    H7034498   8.105   1.862   7.916 -0.7600 -0.2563 -1.1093
  115MOL    H7134499   8.116   1.735   7.803 -0.4712  0.0004 -0.8845
  115MOL    H7234500   8.071   1.577   8.001 -0.1983 -0.5881 -0.1155
  115MOL    H7334501   0.112   1.478   7.911 -1.2565  1.2740  0.3095
  115MOL    H7434502   0.360   1.461   7.890  0.0731  0.4068  0.6255
  115MOL    H7534503   0.498   1.632   7.993  0.2830 -0.6839 -1.1138
  115MOL    H7634504   0.368   1.845   8.091 -2.9017  1.3282  0.3239
  115MOL    C7734505   8.059   1.725   0.004  0.5311 -0.1562 -0.5491
  115MOL    C7834506   8.110   1.653   0.127 -0.2959  0.2043 -0.3435
  115MOL    C7934507   8.080   1.730   0.251 -0.2573 -0.2145  0.4928
  115MOL    C8034508   0.032   1.785   0.329 -0.4163 -0.0257 -0.0873
  115MOL    C8134509   8.150   1.857   0.449  0.2157  0.3925 -0.1763
  115MOL    C8234510   8.012   1.870   0.484 -0.4169  0.3259 -0.1025
  115MOL    C8334511   7.919   1.817   0.389  0.0628  0.4236  0.6909
  115MOL    N8434512   7.948   1.759   0.274  0.1583  0.4346  0.5589
  115MOL    H8534513   7.950   1.727   0.004  0.5226 -0.5640 -0.1292
  115MOL    H8634514   8.088   1.829   0.020 -1.5917  0.4575 -0.5042
  115MOL    H8734515   0.067   1.655   0.126 -0.2829 -0.0042  0.0953
  115MOL    H8834516   0.132   1.761   0.295 -0.4206 -1.2166  0.7353
  115MOL    H8934517   0.079   1.904   0.503  1.1222  0.6100 -1.6711
  115MOL    H9034518   7.979   1.917   0.576 -1.5845  0.1844 -0.4482
  115MOL    H9134519   7.815   1.834   0.414 -0.0267 -0.7955  1.2365
  115MOL    C9234520   8.061   1.507   0.135  0.3022 -0.2403 -0.0290
  115MOL    C9334521   0.020   1.420   0.213  0.0172 -0.0119  0.3224
  115MOL    C9434522   8.087   1.299   0.271 -0.1139 -0.0479  0.0011
  115MOL    C9534523   8.104   1.257   0.403 -0.3034 -0.0389  0.2274
  115MOL    C9634524   8.037   1.147   0.453  0.0953 -0.0487 -0.3505
  115MOL    C9734525   7.953   1.084   0.360  0.0315  0.3080 -0.1932
  115MOL    C9834526   7.940   1.126   0.228 -0.5706 -1.2529 -0.3936
  115MOL    N9934527   8.009   1.233   0.182 -0.0861  0.1447 -0.7883
  115MOL   H10034528   8.024   1.468   0.040 -0.3683  0.8874 -0.2343
  115MOL   H10134529   7.977   1.495   0.203  0.6173  2.2800  0.8646
  115MOL   H10234530   0.052   1.478   0.300  0.7503 -0.7960  0.5811
  115MOL   H10334531   0.032   1.305   0.458 -0.6098  1.3409 -0.5147
  115MOL   H10434532   8.068   1.107   0.549 -0.4808  0.2297 -0.0454
  115MOL   H10534533   7.891   1.002   0.393  1.7290 -0.1334  2.0935
  115MOL   H10634534   7.862   1.080   0.170 -1.4198 -1.3820  0.8360
  115MOL   C10734535   0.129   1.376   0.109  0.6207  0.3921 -0.1850
  115MOL   C10834536   0.258   1.320   0.171 -0.2407  0.8267 -1.0757
  115MOL   C10934537   0.340   1.414   0.260  0.4704  0.3369 -0.3788
  115MOL   C11034538   0.429   1.503   0.205  0.1660 -0.0290 -0.0461
  115MOL   C11134539   0.484   1.612   0.282  0.6609  0.1349  0.7501
  115MOL   C11234540   0.436   1.625   0.415 -0.3536  0.1875  0.6594
  115MOL   C11334541   0.348   1.529   0.469 -0.9352  0.0975 -0.1178
  115MOL   N11434542   0.299   1.430   0.387  0.0994  0.4206 -0.6038
  115MOL   H11534543   0.161   1.471   0.066  2.9098  0.2920  1.2241
  115MOL   H11634544   0.078   1.317   0.033  2.1162 -0.8811 -0.2226
  115MOL   H11734545   0.315   1.290   0.083  0.8922 -0.1932 -0.0209
  115MOL   H11834546   0.449   1.490   0.100  0.5571 -1.1705  0.1672
  115MOL   H11934547   0.543   1.689   0.235  0.5799 -1.7776 -2.6093
  115MOL   H12034548   0.466   1.698   0.489  0.3521 -1.8650  2.4256
  115MOL   H12134549   0.319   1.535   0.572  0.9153  1.5265  0.3266
  115MOL   C12234550   0.254   1.179   0.249 -0.1376  0.2027  0.5830
  115MOL   C12334551   0.188   1.059   0.184  0.0646 -0.1575 -0.5327
  115MOL   C12434552   0.240   1.023   0.040  0.6211 -0.0110  0.4165
  115MOL   C12534553   0.152   0.984   8.088 -0.0563  0.1469  0.6353
  115MOL   C12634554   0.205   0.935   7.968  0.5626 -0.1607 -0.2197
  115MOL   C12734555   0.346   0.929   7.958  0.2063  0.0897  0.7546
  115MOL   C12834556   0.431   0.959   8.067  0.1634 -0.0819 -0.2435
  115MOL   N12934557   0.374   1.015   0.029 -0.6078  0.0751  0.8913
  115MOL   H13034558   0.218   1.188   0.351 -1.5318  0.1310  0.0977
  115MOL   H13134559   0.361   1.162   0.265 -0.2180  1.8283  3.0439
  115MOL   H13234560   0.084   1.090   0.180  0.1030  0.3795  2.1790
  115MOL   H13334561   0.046   0.995   8.107 -0.3325 -0.4548 -0.5094
  115MOL   H13434562   0.142   0.903   7.887  0.6843 -0.8294 -0.0553
  115MOL   H13534563   0.385   0.893   7.864 -2.4754 -2.4996  0.5353
  115MOL   H13634564   0.538   0.947   8.067  0.0406 -1.2852 -0.2516
  115MOL   C13734565   0.196   0.927   0.272 -0.9016 -0.1567 -0.1550
  115MOL   C13834566   0.124   0.798   0.224 -0.4394  0.1851 -0.4262
  115MOL   C13934567   0.186   0.671   0.279  0.0787 -0.0125  0.1583
  115MOL   C14034568   0.247   0.568   0.200  0.0432  0.2682  0.1802
  115MOL   C14134569   0.289   0.443   0.258  0.7319 -0.5722 -0.4037
  115MOL   C14234570   0.269   0.425   0.396 -0.7758 -0.0842  0.7818
  115MOL   C14334571   0.215   0.528   0.467 -0.2060 -0.4556  0.1719
  115MOL   N14434572   0.177   0.649   0.413  0.5731 -0.0178 -0.3154
  115MOL   H14534573   0.150   0.947   0.369 -1.5865 -0.5346 -0.3984
  115MOL   H14634574   0.299   0.916   0.304 -0.9815 -1.4585 -0.3298
  115MOL   H14734575   0.128   0.801   0.115 -0.3697 -1.5196 -0.4915
  115MOL   H14834576   0.272   0.586   0.096 -0.7367  0.2046 -0.0183
  115MOL   H14934577   0.345   0.364   0.209  1.6215 -1.0821  1.3867
  115MOL   H15034578   0.295   0.328   0.437  0.3460 -0.2807 -0.3555
  115MOL   H15134579   0.202   0.516   0.574 -2.1907 -3.0716 -0.3241
  115MOL   C15234580   8.121   0.804   0.248  0.0027 -0.1572 -0.0781
  115MOL   C15334581   8.043   0.687   0.182  0.8126 -0.2193 -0.2722
  115MOL   C15434582   7.916   0.669   0.265 -0.3942 -0.0755  0.7454
  115MOL   C15534583   7.928   0.580   0.376  0.0231 -0.5727 -0.2585
  115MOL   C15634584   7.822   0.577   0.465 -0.1030 -0.0401 -0.3864
  115MOL   C15734585   7.712   0.661   0.443 -0.1470  0.5580  0.5493
  115MOL   C15834586   7.708   0.742   0.332  0.3273  0.0041  0.7665
  115MOL   N15934587   7.813   0.753   0.244 -0.0847 -0.3104 -0.2521
  115MOL   H16034588   8.082   0.898   0.209  1.4373  0.7844  0.7214
  115MOL   H16134589   8.113   0.806   0.356 -0.6381  0.2710 -0.1303
  115MOL   H16234590   8.105   0.599   0.200  1.8883  0.8960  1.7341
  115MOL   H16334591   8.023   0.532   0.390  1.7418  2.9681  0.8607
  115MOL   H16434592   7.823   0.515   0.553 -1.7422  1.4945  0.7679
  115MOL   H16534593   7.627   0.663   0.510  0.0335  0.0308  0.8029
  115MOL   H16634594   7.620   0.802   0.320  1.1208  1.0468  0.0486
  115MOL   C16734595   8.028   0.707   0.027  0.0207  0.4113  0.3603
  115MOL   C16834596   7.971   0.585   8.099  0.1832  0.1478  0.3330
  115MOL   C16934597   8.060   0.462   8.117  0.3972  0.2839  0.4518
  115MOL   C17034598   8.032   0.362   0.057  0.2272  0.0528  0.0685
  115MOL   C17134599   8.111   0.244   0.063  0.8837  0.2695 -0.8526
  115MOL   C17234600   0.071   0.242   8.131 -0.2803  0.6126 -0.4703
  115MOL   C17334601   0.094   0.350   8.047  1.0048 -0.7966  0.1677
  115MOL   N17434602   0.017   0.462   8.042  0.3395 -0.0443  0.2918
  115MOL   H17534603   8.123   0.732   8.132  0.8004 -2.6454  0.2276
  115MOL   H17634604   7.967   0.794   0.001 -2.0061 -1.0842  0.0130
  115MOL   H17734605   7.993   0.616   7.997  1.8880  3.3851  1.5884
  115MOL   H17834606   7.938   0.370   0.111  0.2674  1.6187 -0.0685
  115MOL   H17934607   8.095   0.171   0.141  0.0391  1.2161 -0.1264
  115MOL   H18034608   0.134   0.154   8.131 -2.5678 -1.0432 -0.5258
  115MOL   H18134609   0.186   0.346   7.990  1.6014 -1.0668  1.1302
  115MOL   C18234610   7.816   0.560   8.105 -0.6678 -0.3102 -0.0770
  115MOL   C18334611   7.731   0.670   8.042 -0.0236  0.6850  0.2089
  115MOL   C18434612   7.724   0.673   7.890  0.1858  0.3572  0.2118
  115MOL   C18534613   7.783   0.775   7.819 -0.6827 -0.2354  0.0515
  115MOL   C18634614   7.770   0.785   7.679  0.6880 -0.0340 -0.0373
  115MOL   C18734615   7.697   0.688   7.616 -0.3278  0.2263  0.1271
  115MOL   C18834616   7.641   0.587   7.698  0.7471 -0.2179  0.4988
  115MOL   N18934617   7.649   0.576   7.831  0.3310  0.0718  0.5811
  115MOL   H19034618   7.789   0.541   0.058 -0.6253 -1.1171 -0.2056
  115MOL   H19134619   7.787   0.467   8.056 -1.4370 -0.1171 -0.0027
  115MOL   H19234620   7.784   0.760   8.071  2.0014 -0.7943  1.2964
  115MOL   H19334621   7.851   0.835   7.877 -0.7862 -1.1996  1.1831
  115MOL   H19434622   7.824   0.859   7.621  0.6840 -1.9319 -2.5357
  115MOL   H19534623   7.684   0.692   7.509 -1.5617  0.5668  0.2774
  115MOL   H19634624   7.584   0.507   7.653 -0.3362  0.2187  1.0723
  115MOL   C19734625   7.595   0.675   8.109  0.2149  0.2930 -0.0641
  115MOL   C19834626   7.498   0.781   8.067 -0.3180  0.1897 -0.3012
  115MOL   C19934627   7.359   0.740   8.117 -0.2168 -0.9100 -0.4129
  115MOL   C20034628   7.271   0.656   8.042 -0.1081  0.8493 -0.0869
  115MOL   C20134629   7.144   0.626   8.093  0.0365  0.1651  0.3989
  115MOL   C20234630   7.118   0.676   0.068  0.1751 -0.3188  0.5951
  115MOL   C20334631   7.220   0.736   0.143 -0.7573  0.2151 -0.3292
  115MOL   N20434632   7.342   0.766   0.090  0.0406 -0.0219  0.3108
  115MOL   H20534633   7.600   0.677   0.066  0.0416 -1.2173 -0.0122
  115MOL   H20634634   7.552   0.576   8.093  1.4807  0.2629 -3.5250
  115MOL   H20734635   7.495   0.790   7.958  0.1688 -2.0701 -0.5256
  115MOL   H20834636   7.296   0.613   7.945 -1.5684 -2.6573  1.0225
  115MOL   H20934637   7.080   0.567   8.029  0.6796  1.2300 -1.2822
  115MOL   H21034638   7.019   0.658   0.110  0.0229  1.8700  1.2331
  115MOL   H21134639   7.208   0.768   0.245  1.8935  1.4292 -0.3599
  115MOL   C21234640   7.542   0.920   8.113 -0.7612 -1.3494 -0.1089
  115MOL   C21334641   7.444   1.039   8.096  0.7259  0.5283 -0.2060
  115MOL   C21434642   7.505   1.170   0.010  0.0463  0.2188  0.4357
  115MOL   C21534643   7.433   1.255   0.093  0.2092 -1.0755  0.1466
  115MOL   C21634644   7.494   1.373   0.150  0.2795  0.3684 -0.2854
  115MOL   C21734645   7.629   1.390   0.128  0.1564  0.4744  0.0326
  115MOL   C21834646   7.693   1.302   0.041 -0.3383 -0.2874  0.5842
  115MOL   N21934647   7.630   1.204   8.126  0.0602 -0.1394 -0.4966
  115MOL   H22034648   7.640   0.939   8.067 -1.3246 -0.6252 -1.0385
  115MOL   H22134649   7.553   0.918   0.069  1.2040  1.0535 -0.1992
  115MOL   H22234650   7.355   1.018   0.004  1.9319 -2.1973  0.7128
  115MOL   H22334651   7.326   1.247   0.102  0.3686 -0.5670  3.0155
  115MOL   H22434652   7.450   1.439   0.223 -0.9932 -0.2678 -0.4629
  115MOL   H22534653   7.694   1.457   0.182  1.5126 -0.0491 -0.9396
  115MOL   H22634654   7.796   1.323   0.017 -0.9272  1.8324 -0.2049
  115MOL   C22734655   7.407   1.069   7.959 -0.3648  0.4382  0.6362
  115MOL   C22834656   7.308   0.994   7.875 -0.4173 -0.8104 -0.4161
  115MOL   C22934657   7.170   1.043   7.883 -0.2956 -1.0089  0.4579
  115MOL   C23034658   7.077   0.976   7.967 -0.6306 -0.2522 -0.6556
  115MOL   C23134659   6.948   1.035   7.978  0.9226  0.6191  0.4468
  115MOL   C23234660   6.915   1.151   7.906 -0.3929 -0.0186 -0.1604
  115MOL   C23334661   7.020   1.203   7.826 -0.0418  0.5180  0.2523
  115MOL   N23434662   7.143   1.157   7.809 -0.4758  0.5638  0.0874
  115MOL   H23534663   7.503   1.064   7.908  0.6226 -0.0039  2.4988
  115MOL   H23634664   7.383   1.174   7.943  1.6819  0.8578  0.1660
  115MOL   H23734665   7.296   0.892   7.912 -0.2697 -0.8318 -0.4261
  115MOL   H23834666   7.100   0.885   8.020  0.2703  0.6865  0.6068
  115MOL   H23934667   6.864   0.985   8.025 -0.8327  2.5124 -0.5969
  115MOL   H24034668   6.816   1.193   7.914  0.6358  2.1511  1.4231
  115MOL   H24134669   6.997   1.281   7.756  2.0775  0.9645  0.0009
  115MOL   C24234670   7.366   0.981   7.728  0.3169 -0.0057  0.3525
  115MOL   C24334671   7.280   0.893   7.629  0.3934 -0.2669 -0.1397
  115MOL   C24434672   7.341   0.906   7.495 -0.1053 -0.0746 -0.0266
  115MOL   C24534673   7.273   0.971   7.395  0.1818  0.6871  0.9437
  115MOL   C24634674   7.336   0.974   7.270 -0.2988 -0.1331 -0.4847
  115MOL   C24734675   7.468   0.937   7.252 -0.2577 -1.0913 -0.2449
  115MOL   C24834676   7.536   0.893   7.365 -0.2613 -0.8882 -0.8805
  115MOL   N24934677   7.472   0.865   7.484 -0.1938 -0.2277 -0.6048
  115MOL   H25034678   7.465   0.936   7.729  0.5067  0.3826 -0.3579
  115MOL   H25134679   7.371   1.082   7.688 -0.3850 -1.1975 -2.8925
  115MOL   H25234680   7.180   0.937   7.625  1.2869  2.0938  2.4971
  115MOL   H25334681   7.174   1.012   7.409 -1.6881 -3.1360 -0.3310
  115MOL   H25434682   7.280   1.008   7.184  0.5664  1.5378 -0.4130
  115MOL   H25534683   7.521   0.955   7.160 -0.7963  0.7880 -0.1988
  115MOL   H25634684   7.642   0.879   7.376 -0.1904 -0.7585 -1.3568
  115MOL   C25734685   7.273   0.744   7.661  0.2639  0.7763 -0.0367
  115MOL   C25834686   7.192   0.663   7.559 -0.2423  0.6302  0.5960
  115MOL   C25934687   7.216   0.517   7.591 -0.4168  0.5198 -0.1722
  115MOL   C26034688   7.313   0.443   7.525 -0.0269  0.0682 -0.6048
  115MOL   C26134689   7.334   0.314   7.570  0.5895 -0.3342  0.0981
  115MOL   C26234690   7.255   0.256   7.665 -0.2816  0.1941  0.1999
  115MOL   C26334691   7.158   0.333   7.722  0.9711  0.5254 -0.2626
  115MOL   N26434692   7.141   0.463   7.688 -0.2061  0.4259 -0.4373
  115MOL   H26534693   7.232   0.729   7.760 -1.8796  0.1477 -0.9838
  115MOL   H26634694   7.374   0.703   7.663 -0.8430 -2.0636 -0.7858
  115MOL   H26734695   7.234   0.690   7.462 -0.8252 -1.3611 -0.2210
  115MOL   H26834696   7.374   0.486   7.447 -0.7479 -1.7066 -2.1803
  115MOL   H26934697   7.411   0.252   7.526  0.0580 -1.2118  0.3898
  115MOL   H27034698   7.259   0.150   7.683  3.0588  0.0829 -0.9384
  115MOL   H27134699   7.090   0.294   7.796 -2.5161  0.6178 -3.2568
  115MOL   C27234700   7.041   0.708   7.554 -0.6107 -0.3128  0.0092
  115MOL   C27334701   6.939   0.614   7.481  0.2601 -0.3868  0.6320
  115MOL   C27434702   6.804   0.677   7.482 -0.5119 -0.3317 -0.3503
  115MOL   C27534703   6.703   0.637   7.568  0.2372  0.6602 -0.0659
  115MOL   C27634704   6.588   0.722   7.589 -0.6599  0.3417  0.2046
  115MOL   C27734705   6.580   0.829   7.503 -0.1897 -0.1561  0.1795
  115MOL   C27834706   6.683   0.863   7.416  0.6452  0.3015  0.1095
  115MOL   N27934707   6.797   0.793   7.413 -0.0720 -0.3551  0.1824
  115MOL   H28034708   7.044   0.809   7.513 -0.3209 -0.7140 -0.9758
  115MOL   H28134709   7.005   0.716   7.656 -0.2198 -0.4219  0.1577
  115MOL   H28234710   6.925   0.531   7.550  1.1737 -0.8669  0.2481
  115MOL   H28334711   6.704   0.553   7.636 -0.5603  2.6746  2.4811
  115MOL   H28434712   6.515   0.696   7.665 -1.4075  0.8360 -0.3440
  115MOL   H28534713   6.502   0.904   7.509 -2.9646 -3.1098  2.3493
  115MOL   H28634714   6.687   0.951   7.353  1.4759  0.9312  1.0229
  115MOL   C28734715   6.980   0.556   7.341  0.8886  0.4259 -0.9356
  115MOL   C28834716   6.868   0.489   7.265  0.1400 -0.4949  0.6415
  115MOL   C28934717   6.916   0.397   7.155 -0.1635  0.0055  0.1891
  115MOL   C29034718   6.885   0.426   7.022 -0.1868 -0.6428  0.3526
  115MOL   C29134719   6.955   0.356   6.922  0.0494 -0.8842  0.4754
  115MOL   C29234720   7.034   0.247   6.961 -0.4828 -0.5577  0.8424
  115MOL   C29334721   7.038   0.209   7.099 -0.3419 -0.2608 -0.4735
  115MOL   N29434722   6.983   0.285   7.195  0.2359  0.1876 -0.5736
  115MOL   H29534723   7.058   0.488   7.375  2.1423  1.4795 -1.6723
  115MOL   H29634724   7.031   0.639   7.292  0.6543  1.0553 -0.1262
  115MOL   H29734725   6.809   0.572   7.226  0.3516 -0.6028  0.0860
  115MOL   H29834726   6.818   0.500   6.980 -0.6856 -1.3467 -0.1057
  115MOL   H29934727   6.934   0.387   6.821 -2.0769 -0.1622  1.1101
  115MOL   H30034728   7.072   0.190   6.877 -0.0766  1.1632 -0.1593
  115MOL   H30134729   7.097   0.123   7.128  0.3329  0.6819  0.9609
  115MOL   H30234730   6.822   0.424   7.339  1.3385 -1.6902  0.3652
  116MOL     C134731   1.137   1.347   7.110  0.4350 -0.1445 -0.0764
  116MOL     C234732   1.076   1.319   6.974 -0.3517  0.9081  0.3849
  116MOL     C334733   1.028   1.178   6.960  0.3390 -0.5342  0.1227
  116MOL     C434734   1.036   1.119   6.828 -0.5748  0.8964  0.0479
  116MOL     C534735   0.983   0.987   6.817 -0.1066  0.2871 -0.6088
  116MOL     C634736   0.924   0.929   6.931  0.2645 -0.3295 -0.3603
  116MOL     C734737   0.924   0.990   7.055 -0.3013 -0.4764 -0.6526
  116MOL     N834738   0.963   1.121   7.064  0.0581  0.6913 -0.2177
  116MOL     H934739   1.173   1.450   7.110 -0.1028  0.0456  0.4604
  116MOL    H1034740   1.067   1.356   7.192 -0.8079 -1.0155 -1.0096
  116MOL    H1134741   1.154   1.331   6.899 -3.1400  2.6488 -2.3441
  116MOL    H1234742   1.099   1.164   6.753 -0.8242  1.3997  0.1390
  116MOL    H1334743   0.996   0.935   6.724  1.3807 -0.8927  0.2487
  116MOL    H1434744   0.899   0.825   6.920 -0.8390 -0.1452  0.2584
  116MOL    H1534745   0.872   0.937   7.133 -0.0251  0.0443 -0.1111
  116MOL    H1634746   1.219   1.278   7.131  0.2715  0.1920  1.7494
  116MOL    C1734747   0.950   1.406   6.944  0.1365 -0.1037 -0.2387
  116MOL    C1834748   0.959   1.540   6.880  0.3164 -0.0108 -0.5135
  116MOL    C1934749   0.828   1.611   6.849 -0.6893  0.3390 -0.3275
  116MOL    C2034750   0.793   1.669   6.720 -0.5124 -0.0026 -0.7011
  116MOL    C2134751   0.675   1.734   6.714  0.1644 -0.4360 -0.0400
  116MOL    C2234752   0.598   1.755   6.828 -0.0656  0.0686 -0.0020
  116MOL    C2334753   0.636   1.694   6.946  0.1977  0.4093  0.1139
  116MOL    N2434754   0.753   1.625   6.958 -0.0409  0.1065  0.1573
  116MOL    H2534755   0.879   1.409   7.027  1.1352  0.0951  0.6073
  116MOL    H2634756   0.891   1.349   6.871  0.0281 -1.7648  1.1198
  116MOL    H2734757   1.012   1.526   6.786 -2.1957 -2.2122 -1.6594
  116MOL    H2834758   0.856   1.670   6.633 -0.6112 -0.3431 -0.7760
  116MOL    H2934759   0.650   1.792   6.626 -1.2695 -0.8927  0.0684
  116MOL    H3034760   0.505   1.810   6.829 -0.0515  0.2529 -3.4451
  116MOL    H3134761   0.569   1.711   7.029 -2.1191  2.0602 -2.0118
  116MOL    C3234762   1.058   1.628   6.956  0.6952  0.0178 -0.3663
  116MOL    C3334763   1.056   1.778   6.920  1.2193  0.2103  0.6822
  116MOL    C3434764   1.125   1.859   7.026 -0.3374 -0.6868 -0.4614
  116MOL    C3534765   1.056   1.951   7.103  0.3059 -0.1297  0.0698
  116MOL    C3634766   1.125   2.049   7.177  0.8064 -0.0691 -0.1723
  116MOL    C3734767   1.266   2.052   7.169  0.0632  0.2359  0.3573
  116MOL    C3834768   1.329   1.947   7.100  0.1990 -0.0074 -0.2968
  116MOL    N3934769   1.259   1.852   7.029 -0.0010  0.0442 -0.1819
  116MOL    H4034770   1.158   1.585   6.953 -0.3914 -2.5768 -1.7897
  116MOL    H4134771   1.035   1.623   7.062 -1.0021  0.0012 -0.7060
  116MOL    H4234772   0.954   1.815   6.931  0.5470 -1.6212  0.9326
  116MOL    H4334773   0.949   1.960   7.091 -0.1887 -1.5355  3.0633
  116MOL    H4434774   1.072   2.129   7.227 -0.0139 -0.7341  0.0431
  116MOL    H4534775   1.317   2.133   7.220  0.0870 -0.6053  1.6914
  116MOL    H4634776   1.437   1.946   7.096  0.3091 -0.1068  2.2281
  116MOL    C4734777   1.102   1.808   6.776  0.1539 -0.5654  0.2959
  116MOL    C4834778   1.082   1.958   6.737  0.8122 -0.2598  0.0394
  116MOL    C4934779   1.178   2.004   6.629 -0.1934  0.0459 -0.1966
  116MOL    C5034780   1.223   1.912   6.533 -0.1723  0.0031 -0.0338
  116MOL    C5134781   1.325   1.962   6.454 -0.6605  0.0639  0.8726
  116MOL    C5234782   1.385   2.084   6.471  0.3236 -0.0809  0.2481
  116MOL    C5334783   1.323   2.169   6.565 -0.6953 -0.8315  0.2376
  116MOL    N5434784   1.224   2.131   6.642 -0.6292  0.0383  0.4696
  116MOL    H5534785   1.055   1.746   6.700 -1.1279 -2.0582  2.2419
  116MOL    H5634786   1.209   1.785   6.766  0.7432  0.9927  2.5446
  116MOL    H5734787   1.097   2.028   6.820 -3.0215  1.0300 -0.2511
  116MOL    H5834788   1.185   1.812   6.519 -4.0150  1.6101 -1.7681
  116MOL    H5934789   1.366   1.894   6.381  0.2891 -0.5906  2.0049
  116MOL    H6034790   1.461   2.119   6.402  0.1649  0.9106  0.5647
  116MOL    H6134791   1.357   2.271   6.577  1.1395 -1.6259  2.0519
  116MOL    C6234792   0.928   1.972   6.685 -0.2783  0.3482  0.1008
  116MOL    C6334793   0.882   2.115   6.665  0.2747  0.0043  0.8271
  116MOL    C6434794   0.749   2.113   6.592  0.2347 -0.5203  0.3261
  116MOL    C6534795   0.729   2.183   6.469  0.5568 -0.5631  0.0501
  116MOL    C6634796   0.605   2.190   6.410 -0.6111 -0.2622 -0.6637
  116MOL    C6734797   0.502   2.114   6.462 -0.3401  1.5702 -0.1114
  116MOL    C6834798   0.519   2.056   6.591  0.1892 -0.1134  0.5560
  116MOL    N6934799   0.645   2.052   6.647  0.0563  1.1873 -0.2160
  116MOL    H7034800   0.852   1.921   6.743 -0.4157  0.8775  0.3916
  116MOL    H7134801   0.920   1.922   6.589  1.7376 -1.8636  1.0314
  116MOL    H7234802   0.947   2.173   6.600 -0.3963  1.6963  1.6311
  116MOL    H7334803   0.811   2.240   6.428 -0.9250 -0.7739 -3.4214
  116MOL    H7434804   0.591   2.243   6.317 -0.4968  0.0102 -0.5281
  116MOL    H7534805   0.406   2.116   6.412  0.1323 -0.9101 -1.1623
  116MOL    H7634806   0.439   1.994   6.629 -0.6381  1.7344  1.8702
  116MOL    C7734807   0.865   2.200   6.793 -0.7730  0.2651 -0.7806
  116MOL    C7834808   0.943   2.331   6.800  0.2877  0.3440 -0.3133
  116MOL    C7934809   0.919   2.423   6.679 -0.2503  0.5836  0.0459
  116MOL    C8034810   1.023   2.446   6.585 -0.1050 -0.1239  0.8973
  116MOL    C8134811   1.003   2.534   6.475 -0.5733 -0.0136 -0.1252
  116MOL    C8234812   0.874   2.592   6.475  0.2428 -0.5707  0.0384
  116MOL    C8334813   0.775   2.559   6.568  0.7373  0.3710  0.1841
  116MOL    N8434814   0.794   2.469   6.668  0.2992  0.8335  0.7681
  116MOL    H8534815   0.899   2.145   6.881  0.4512  1.5528 -0.4197
  116MOL    H8634816   0.760   2.220   6.812 -1.0992  1.0256 -3.2142
  116MOL    H8734817   1.050   2.310   6.796  0.4165  0.9130  0.1057
  116MOL    H8834818   1.118   2.396   6.590  0.7808  1.5459  1.1419
  116MOL    H8934819   1.080   2.560   6.404 -0.0287 -0.3226  0.3516
  116MOL    H9034820   0.863   2.671   6.403  0.2435  0.1809  0.8516
  116MOL    H9134821   0.674   2.600   6.567  0.4776 -0.2950 -0.7973
  116MOL    C9234822   0.902   2.398   6.931 -0.6431  0.3181 -0.6203
  116MOL    C9334823   0.952   2.547   6.961 -0.4015  0.7100 -0.5253
  116MOL    C9434824   0.831   2.634   7.003 -0.1371  0.3300  0.0919
  116MOL    C9534825   0.790   2.744   6.929 -0.4214 -0.2614  1.0836
  116MOL    C9634826   0.701   2.837   6.976 -0.1755 -0.2305 -0.1588
  116MOL    C9734827   0.643   2.806   7.099 -0.2182  0.1819 -0.3318
  116MOL    C9834828   0.687   2.694   7.173  0.1260  0.2087 -0.3405
  116MOL    N9934829   0.772   2.604   7.121 -0.3034  0.1899  0.0252
  116MOL   H10034830   0.913   2.333   7.018 -1.3029  0.7444 -0.2148
  116MOL   H10134831   0.794   2.403   6.928 -0.6808 -1.1742 -2.0268
  116MOL   H10234832   0.996   2.591   6.872 -0.9284 -0.2114 -1.2453
  116MOL   H10334833   0.832   2.756   6.831  0.4712  0.3841  1.5378
  116MOL   H10434834   0.677   2.926   6.920 -1.5653 -1.4588 -1.5818
  116MOL   H10534835   0.581   2.879   7.149 -0.7150  1.7491 -3.0958
  116MOL   H10634836   0.666   2.677   7.277 -1.5816 -1.4367 -0.9356
  116MOL   C10734837   1.066   2.547   7.065 -0.5444  0.2528  0.6834
  116MOL   C10834838   1.207   2.525   7.013 -0.4688  0.1964  0.3488
  116MOL   C10934839   1.263   2.631   6.922 -0.1859  0.3915 -0.0881
  116MOL   C11034840   1.284   2.616   6.786 -0.4501 -0.0831  0.0452
  116MOL   C11134841   1.326   2.732   6.712 -0.3597  0.0957 -0.3712
  116MOL   C11234842   1.356   2.857   6.770 -0.4270  0.2729 -0.1743
  116MOL   C11334843   1.329   2.859   6.910  0.0139 -0.1016 -0.7657
  116MOL   N11434844   1.297   2.746   6.984 -0.1587 -0.0117  0.0829
  116MOL   H11534845   1.049   2.472   7.142  0.2099  1.0764  1.6718
  116MOL   H11634846   1.066   2.642   7.120 -3.4300 -0.7873  2.5871
  116MOL   H11734847   1.191   2.435   6.952 -1.2714  0.5422  0.0389
  116MOL   H11834848   1.260   2.526   6.731  2.5907 -1.0729  0.2336
  116MOL   H11934849   1.360   2.725   6.609  0.1654 -0.7805 -0.1391
  116MOL   H12034850   1.400   2.942   6.720  1.3250  0.5721  1.7899
  116MOL   H12134851   1.346   2.952   6.962  2.7488 -1.2684  0.4532
  116MOL   C12234852   1.302   2.484   7.136 -0.3129  0.3277  0.6668
  116MOL   C12334853   1.454   2.489   7.121 -0.4471 -0.3941  0.3331
  116MOL   C12434854   1.520   2.444   7.247 -0.0860  0.2998 -0.0650
  116MOL   C12534855   1.607   2.518   7.325  0.2326  0.3733  0.7497
  116MOL   C12634856   1.662   2.460   7.442  0.7817 -0.5915  0.1033
  116MOL   C12734857   1.622   2.338   7.488  0.0596 -0.1697  0.3858
  116MOL   C12834858   1.530   2.272   7.406 -0.9058 -0.4462  0.2978
  116MOL   N12934859   1.483   2.322   7.290 -0.9804 -0.4490  0.0591
  116MOL   H13034860   1.275   2.387   7.179  0.2515 -0.8783 -1.6466
  116MOL   H13134861   1.281   2.542   7.226 -0.0028  0.2675  0.7775
  116MOL   H13234862   1.475   2.595   7.101 -1.5819 -0.3355 -0.5827
  116MOL   H13334863   1.614   2.621   7.293 -1.7887  0.8583  1.8349
  116MOL   H13434864   1.741   2.511   7.496  1.9124 -2.2707  0.0944
  116MOL   H13534865   1.673   2.291   7.571 -0.4720 -0.8004  0.3588
  116MOL   H13634866   1.499   2.170   7.425  2.5606 -1.6282 -0.0126
  116MOL   C13734867   1.508   2.406   6.996  0.4459  0.1508 -0.5681
  116MOL   C13834868   1.619   2.487   6.922  0.3148  0.1009  0.2290
  116MOL   C13934869   1.755   2.485   6.993  0.0216  0.1959 -0.6003
  116MOL   C14034870   1.809   2.601   7.039  0.1757 -0.4197  0.2432
  116MOL   C14134871   1.929   2.596   7.110 -0.3919 -0.5155  0.6493
  116MOL   C14234872   1.991   2.471   7.119  0.4079  1.0686 -1.0416
  116MOL   C14334873   1.940   2.364   7.051 -1.3420  0.0979 -0.8800
  116MOL   N14434874   1.823   2.367   6.988 -1.1175  0.5022  0.5692
  116MOL   H14534875   1.432   2.402   6.918 -0.1987  0.6763  0.0294
  116MOL   H14634876   1.538   2.303   7.016  1.9604  0.4459 -1.2696
  116MOL   H14734877   1.592   2.592   6.938  0.7694  0.0318  1.5192
  116MOL   H14834878   1.747   2.688   7.048  1.3355  0.5799 -1.1209
  116MOL   H14934879   1.968   2.678   7.168 -1.1371 -0.0256  0.4722
  116MOL   H15034880   2.071   2.455   7.190 -2.3626  0.0288  1.9942
  116MOL   H15134881   1.993   2.270   7.051  1.0132  1.3550  2.3157
  116MOL   C15234882   1.619   2.458   6.770  0.3316  0.5138  0.2291
  116MOL   C15334883   1.734   2.497   6.678 -0.5162  0.4071  0.8294
  116MOL   C15434884   1.707   2.439   6.545  0.4587  0.3150  0.2265
  116MOL   C15534885   1.782   2.325   6.502 -0.1710  0.4208  0.6827
  116MOL   C15634886   1.747   2.261   6.379 -0.6887 -0.4038 -0.5183
  116MOL   C15734887   1.640   2.311   6.302  1.1074 -0.4050  0.4037
  116MOL   C15834888   1.573   2.430   6.352 -0.2462  0.8765 -0.0955
  116MOL   N15934889   1.605   2.492   6.469  0.9086  0.8630 -0.3547
  116MOL   H16034890   1.525   2.493   6.725  0.4825 -1.2286 -1.4719
  116MOL   H16134891   1.616   2.350   6.760  2.2354  0.3456  1.3444
  116MOL   H16234892   1.826   2.452   6.717 -0.3356 -2.3155 -2.5400
  116MOL   H16334893   1.858   2.279   6.564 -0.8466 -2.1343 -0.3149
  116MOL   H16434894   1.810   2.182   6.341  2.0215  2.2826 -1.8149
  116MOL   H16534895   1.617   2.264   6.208 -0.1631 -1.2530  1.1236
  116MOL   H16634896   1.496   2.470   6.288  0.4273 -0.0486 -1.5055
  116MOL   C16734897   1.755   2.647   6.671 -0.0803 -0.2182 -0.3009
  116MOL   C16834898   1.873   2.694   6.583  0.1451 -0.7351 -0.8994
  116MOL   C16934899   1.856   2.841   6.553 -0.0272  0.0717 -0.1564
  116MOL   C17034900   1.868   2.894   6.425  0.2474  0.3226  0.6910
  116MOL   C17134901   1.866   3.034   6.400 -0.6407 -0.3390  0.2837
  116MOL   C17234902   1.843   3.114   6.512  0.5428  0.2035  0.3001
  116MOL   C17334903   1.818   3.054   6.639  0.0386  0.1663 -0.3521
  116MOL   N17434904   1.837   2.922   6.657  0.3892 -0.1575 -0.5889
  116MOL   H17534905   1.775   2.685   6.771  0.0073 -0.2063 -0.3233
  116MOL   H17634906   1.663   2.689   6.631 -1.6307 -4.0986 -1.0875
  116MOL   H17734907   1.845   2.638   6.493 -1.1723  0.1042 -1.0146
  116MOL   H17834908   1.899   2.830   6.344  1.1703 -0.0551  1.3329
  116MOL   H17934909   1.889   3.078   6.304  0.0636 -0.2069  0.5110
  116MOL   H18034910   1.852   3.222   6.518  0.9225  0.2530 -0.8764
  116MOL   H18134911   1.813   3.110   6.731  0.3653  2.9666 -1.9835
  116MOL   C18234912   2.014   2.655   6.639 -0.1952 -0.2419  0.5723
  116MOL   C18334913   2.125   2.621   6.535 -0.3849  0.7102 -0.0446
  116MOL   C18434914   2.263   2.632   6.586 -0.6040 -0.0677 -0.2398
  116MOL   C18534915   2.345   2.735   6.531  0.5452  0.7091 -0.2161
  116MOL   C18634916   2.470   2.751   6.581  0.3088  0.6625 -0.1088
  116MOL   C18734917   2.518   2.662   6.675  0.4474 -0.1156 -0.8557
  116MOL   C18834918   2.433   2.563   6.726  0.1930  0.6549  0.1512
  116MOL   N18934919   2.301   2.548   6.685  0.5626 -0.4205 -0.3536
  116MOL   H19034920   2.014   2.578   6.717  0.4522  0.6889  1.5003
  116MOL   H19134921   2.046   2.735   6.705 -0.8605  0.1944  0.3589
  116MOL   H19234922   2.113   2.709   6.471 -0.0860  2.0507  1.7077
  116MOL   H19334923   2.309   2.804   6.456 -0.1118  1.6296  0.9378
  116MOL   H19434924   2.535   2.829   6.542  1.4011  0.3165  0.9861
  116MOL   H19534925   2.623   2.674   6.696  0.9315 -1.1534 -2.5995
  116MOL   H19634926   2.471   2.510   6.812 -1.8565  1.4151  1.5442
  116MOL   C19734927   2.093   2.486   6.444  0.3917 -0.1064  0.0233
  116MOL   C19834928   2.205   2.436   6.353 -0.4615 -0.3835 -0.4094
  116MOL   C19934929   2.167   2.300   6.297 -0.6520 -0.0363  0.2219
  116MOL   C20034930   2.205   2.180   6.356 -0.1484 -0.3452  0.2952
  116MOL   C20134931   2.152   2.062   6.310 -0.1424 -0.0979 -0.3804
  116MOL   C20234932   2.052   2.068   6.212  0.0172 -0.0950 -0.0049
  116MOL   C20334933   2.019   2.192   6.159 -0.8587 -0.5585  0.3776
  116MOL   N20434934   2.080   2.308   6.194  0.1710  0.0028  0.1740
  116MOL   H20534935   2.005   2.500   6.382 -0.2792  1.2065  1.2500
  116MOL   H20634936   2.072   2.413   6.523  0.4049 -0.9653 -0.7562
  116MOL   H20734937   2.283   2.417   6.427 -1.1293  1.1483  0.7114
  116MOL   H20834938   2.281   2.194   6.432 -0.4382 -0.3397  0.5868
  116MOL   H20934939   2.187   1.972   6.358  0.2817  0.2867  0.0326
  116MOL   H21034940   2.009   1.977   6.174 -1.0201  0.3506  0.0939
  116MOL   H21134941   1.947   2.189   6.079 -4.7102  0.0547  3.6100
  116MOL   C21234942   2.267   2.535   6.248  0.2264 -0.9994  0.1052
  116MOL   C21334943   2.414   2.545   6.222  0.6233 -0.0537  0.7924
  116MOL   C21434944   2.481   2.404   6.230  0.3931 -0.1811  0.1739
  116MOL   C21534945   2.530   2.356   6.353 -0.1281 -0.1144  0.4989
  116MOL   C21634946   2.578   2.234   6.366 -0.4212  0.6907  0.2772
  116MOL   C21734947   2.576   2.151   6.254  0.2383 -0.1099 -0.5284
  116MOL   C21834948   2.523   2.201   6.133  0.1806  0.5641  0.1765
  116MOL   N21934949   2.465   2.322   6.124  0.4545 -0.2896 -0.0377
  116MOL   H22034950   2.221   2.631   6.271  2.2972 -0.3575  1.7223
  116MOL   H22134951   2.219   2.524   6.151  1.2630  0.7627 -0.6438
  116MOL   H22234952   2.444   2.616   6.299  0.1840  1.2237 -0.1846
  116MOL   H22334953   2.548   2.420   6.439  1.4762  2.8961 -1.9624
  116MOL   H22434954   2.624   2.195   6.455 -0.5240  1.4677  0.6767
  116MOL   H22534955   2.610   2.048   6.253 -0.5496 -0.3666 -0.9818
  116MOL   H22634956   2.520   2.136   6.047  1.0607 -0.1069  0.6362
  116MOL   C22734957   2.439   2.622   6.086  0.2967  0.2221  0.3583
  116MOL   C22834958   2.581   2.651   6.042  0.1244 -0.0405  0.6655
  116MOL   C22934959   2.580   2.635   5.889 -0.2999 -0.2789  0.5494
  116MOL   C23034960   2.650   2.524   5.838  0.6758  1.0441 -0.3457
  116MOL   C23134961   2.658   2.506   5.698 -0.3662  0.1115 -0.3525
  116MOL   C23234962   2.595   2.601   5.613  0.4864 -0.1328 -0.0044
  116MOL   C23334963   2.526   2.704   5.677  0.9020  0.0182 -0.4027
  116MOL   N23434964   2.512   2.721   5.809 -0.3552  0.2764 -0.1610
  116MOL   H23534965   2.385   2.717   6.089 -1.0674 -0.5709  1.3149
  116MOL   H23634966   2.389   2.553   6.018 -1.4374  3.2082 -1.5116
  116MOL   H23734967   2.645   2.576   6.087  1.3917  0.9194  0.4921
  116MOL   H23834968   2.693   2.457   5.910  0.6369  1.0678 -0.3008
  116MOL   H23934969   2.713   2.424   5.655  1.3107  0.0639  1.7581
  116MOL   H24034970   2.594   2.592   5.506 -0.3889 -2.0621  0.1542
  116MOL   H24134971   2.472   2.775   5.616 -0.9752 -0.6220  0.4828
  116MOL   C24234972   2.626   2.791   6.073 -0.0342  0.1394  0.4079
  116MOL   C24334973   2.664   2.819   6.215  0.0474  0.0758 -0.3565
  116MOL   C24434974   2.770   2.723   6.265 -0.1705  0.7251 -0.6825
  116MOL   C24534975   2.740   2.624   6.362  0.0631  0.2939  0.2150
  116MOL   C24634976   2.845   2.544   6.404 -0.0560  0.1152  0.0486
  116MOL   C24734977   2.976   2.570   6.358 -0.3804 -0.0056  0.9957
  116MOL   C24834978   2.997   2.674   6.266 -0.0271  0.6498  0.6224
  116MOL   N24934979   2.892   2.748   6.217  0.0681 -0.0369 -0.3925
  116MOL   H25034980   2.551   2.860   6.035 -0.8302 -0.8220  0.1819
  116MOL   H25134981   2.717   2.813   6.017  0.7328 -0.3485  1.4564
  116MOL   H25234982   2.584   2.793   6.285 -1.4049  0.0316 -2.0031
  116MOL   H25334983   2.641   2.603   6.399 -0.3097 -1.3265 -1.6357
  116MOL   H25434984   2.834   2.457   6.468  1.5292 -0.6361 -0.6833
  116MOL   H25534985   3.059   2.509   6.391  1.1424  0.6089 -1.5007
  116MOL   H25634986   3.087   2.707   6.216  0.3879  1.2305  1.7565
  116MOL   C25734987   2.714   2.966   6.246 -0.4351 -0.3942  0.1645
  116MOL   C25834988   2.615   3.078   6.213  0.6194  0.0537  0.4605
  116MOL   C25934989   2.482   3.067   6.295  0.5179 -0.1152 -0.3538
  116MOL   C26034990   2.360   3.054   6.237  0.3485 -0.1754  0.4792
  116MOL   C26134991   2.242   3.059   6.319 -0.1216  0.0291 -0.9773
  116MOL   C26234992   2.252   3.072   6.457 -0.7197  0.0299  0.0697
  116MOL   C26334993   2.382   3.082   6.508 -0.4302  0.3863  0.2603
  116MOL   N26434994   2.491   3.088   6.429 -0.0588 -0.1844  0.1517
  116MOL   H26534995   2.800   2.979   6.179 -2.3901 -1.4543 -2.6283
  116MOL   H26634996   2.753   2.973   6.347  1.1037  2.0914 -0.5355
  116MOL   H26734997   2.593   3.053   6.110 -2.0596 -0.5611  1.1409
  116MOL   H26834998   2.346   3.051   6.130  1.8084  1.0043  0.2445
  116MOL   H26934999   2.143   3.062   6.276  0.0357  0.2453 -1.3251
  116MOL   H27035000   2.165   3.047   6.515 -1.5570  0.9940 -0.7572
  116MOL   H27135001   2.398   3.097   6.614  1.4175 -0.4130  0.1085
  116MOL   C27235002   2.687   3.218   6.221  0.1316  0.1855  0.4464
  116MOL   C27335003   2.818   3.254   6.145  0.5000  0.1318 -0.1392
  116MOL   C27435004   2.814   3.394   6.109 -0.6647  0.6002  0.1192
  116MOL   C27535005   2.824   3.500   6.204 -0.7860 -0.3821  0.3351
  116MOL   C27635006   2.815   3.630   6.161 -0.5762  0.0807 -0.4365
  116MOL   C27735007   2.802   3.655   6.022  0.1975  0.9908  0.1056
  116MOL   C27835008   2.791   3.540   5.943  0.2314 -0.4461  0.3147
  116MOL   N27935009   2.797   3.419   5.982 -0.0896  0.0975  0.1904
  116MOL   H28035010   2.691   3.243   6.327 -1.1432 -0.3198  0.6198
  116MOL   H28135011   2.609   3.282   6.181  1.2537  1.2883 -0.0128
  116MOL   H28235012   2.815   3.197   6.052  1.7110 -0.1106 -0.0391
  116MOL   H28335013   2.831   3.483   6.310 -1.8249 -0.3802  0.4086
  116MOL   H28435014   2.831   3.709   6.233  0.0447 -0.8593  0.4830
  116MOL   H28535015   2.807   3.750   5.971 -1.5536  1.3248  0.5163
  116MOL   H28635016   2.782   3.557   5.837  2.4731  1.5032  0.3926
  116MOL   C28735017   2.950   3.219   6.205 -0.9060 -0.0352  0.5915
  116MOL   C28835018   3.078   3.235   6.121 -0.6457 -0.0870 -0.2466
  116MOL   C28935019   3.184   3.139   6.182  0.1979  0.5600 -0.7070
  116MOL   C29035020   3.198   3.014   6.120  0.6884  0.0758 -0.3039
  116MOL   C29135021   3.290   2.923   6.167 -0.4211  0.8228  0.4065
  116MOL   C29235022   3.366   2.959   6.277 -0.0455 -0.3487  0.2187
  116MOL   C29335023   3.347   3.087   6.336 -0.7491 -0.6621  0.0236
  116MOL   N29435024   3.253   3.175   6.292  0.3299  0.1814  0.3846
  116MOL   H29535025   2.955   3.116   6.241  1.5111  0.3490  1.4983
  116MOL   H29635026   2.962   3.268   6.302 -3.5433  0.5672  0.6447
  116MOL   H29735027   3.117   3.336   6.135  1.1255 -0.7520 -0.3284
  116MOL   H29835028   3.139   2.982   6.035  0.8392 -1.3607  0.1178
  116MOL   H29935029   3.304   2.825   6.123 -0.3087 -0.1902  2.6200
  116MOL   H30035030   3.440   2.898   6.326 -0.3683  0.5360  1.8249
  116MOL   H30135031   3.416   3.123   6.410  1.6026  0.5277 -2.6160
  116MOL   H30235032   3.069   3.210   6.015  0.0473  0.4374 -0.4325
  117MOL     C135033   5.590   4.526   5.195 -0.4000  0.4367  0.8704
  117MOL     C235034   5.499   4.566   5.312  0.1613 -1.2565  0.0162
  117MOL     C335035   5.450   4.449   5.395  1.2064  0.2842 -0.3642
  117MOL     C435036   5.311   4.431   5.425  0.2090  0.3269 -0.2938
  117MOL     C535037   5.268   4.332   5.515 -0.5462 -0.1419  0.1271
  117MOL     C635038   5.365   4.242   5.556 -0.1697 -0.0354 -0.4181
  117MOL     C735039   5.499   4.266   5.534  0.5148 -0.1947 -0.6894
  117MOL     N835040   5.545   4.365   5.449 -0.1365 -0.0696 -0.5615
  117MOL     H935041   5.684   4.480   5.226 -1.3371 -1.6779  0.6421
  117MOL    H1035042   5.544   4.457   5.124 -1.0952  2.9224 -1.1888
  117MOL    H1135043   5.414   4.595   5.250 -0.8241 -1.8141  1.0912
  117MOL    H1235044   5.240   4.502   5.384  1.4292  0.8800 -1.5148
  117MOL    H1335045   5.163   4.324   5.539 -0.8693 -0.0760 -1.2689
  117MOL    H1435046   5.347   4.155   5.617 -2.5008 -0.1726 -1.2880
  117MOL    H1535047   5.574   4.202   5.576 -0.2818  0.0534  1.1605
  117MOL    H1635048   5.610   4.621   5.146  2.9900 -0.9048 -0.5014
  117MOL    C1735049   5.547   4.685   5.407 -0.0588  0.8555  0.0186
  117MOL    C1835050   5.565   4.817   5.341 -0.2261 -0.2434  0.1589
  117MOL    C1935051   5.440   4.862   5.262  0.4898  0.2546 -0.3825
  117MOL    C2035052   5.308   4.863   5.323  1.0491 -0.0430  0.6018
  117MOL    C2135053   5.198   4.891   5.249 -0.0708  0.5672  0.2349
  117MOL    C2235054   5.217   4.921   5.118 -0.5109 -0.8846 -1.0971
  117MOL    C2335055   5.348   4.934   5.065 -0.2177 -0.0131 -0.4380
  117MOL    N2435056   5.454   4.899   5.136  0.5117 -0.1715  0.2204
  117MOL    H2535057   5.633   4.642   5.459 -0.5008 -0.9406 -0.6892
  117MOL    H2635058   5.471   4.693   5.485  0.1535 -0.6660  0.3981
  117MOL    H2735059   5.646   4.806   5.269 -1.4645 -1.3985 -1.0965
  117MOL    H2835060   5.300   4.829   5.426 -0.9048 -0.2020  0.4215
  117MOL    H2935061   5.096   4.876   5.282  1.0201  0.6084  3.7936
  117MOL    H3035062   5.127   4.929   5.058 -2.1923 -2.4031  1.1421
  117MOL    H3135063   5.371   4.959   4.962  0.9803  3.4503  0.5790
  117MOL    C3235064   5.608   4.928   5.442 -0.2621  0.0022  0.2090
  117MOL    C3335065   5.674   5.054   5.370 -0.5122  0.5713  0.0501
  117MOL    C3435066   5.574   5.161   5.323  0.3178 -1.0760 -0.0860
  117MOL    C3535067   5.567   5.204   5.192  0.1138 -0.0442 -0.3163
  117MOL    C3635068   5.476   5.307   5.157  0.2994 -0.2265 -0.3703
  117MOL    C3735069   5.400   5.365   5.263  0.4350  0.2166 -0.5742
  117MOL    C3835070   5.412   5.312   5.391 -0.4715 -0.4935  0.0126
  117MOL    N3935071   5.499   5.222   5.424  0.1768  0.1349  0.5479
  117MOL    H4035072   5.674   4.881   5.515  0.9871  0.7009 -0.4480
  117MOL    H4135073   5.521   4.956   5.501 -1.3646 -1.0864 -0.8860
  117MOL    H4235074   5.725   5.026   5.277  0.5856 -2.0565  1.4041
  117MOL    H4335075   5.619   5.158   5.110 -1.0354 -0.0017 -1.0681
  117MOL    H4435076   5.465   5.345   5.057  0.2312  1.8298  0.3888
  117MOL    H4535077   5.340   5.454   5.246  1.8758  1.6616  1.6174
  117MOL    H4635078   5.355   5.354   5.473  2.3127 -0.9756  2.2646
  117MOL    C4735079   5.782   5.103   5.457 -0.0728 -0.4028 -0.6823
  117MOL    C4835080   5.886   5.210   5.410  0.7187 -0.0698 -0.7865
  117MOL    C4935081   5.879   5.329   5.499 -0.4309 -0.4526  0.0604
  117MOL    C5035082   5.855   5.458   5.443  0.3357 -0.1712  0.6024
  117MOL    C5135083   5.864   5.569   5.527 -0.7570 -0.1175 -0.0448
  117MOL    C5235084   5.912   5.547   5.656 -0.2724 -0.4334 -0.3593
  117MOL    C5335085   5.930   5.416   5.704 -0.0291  0.1031 -0.2503
  117MOL    N5435086   5.916   5.307   5.627  0.0803  0.3778 -0.3035
  117MOL    H5535087   5.833   5.016   5.497 -0.6939 -1.1450 -1.5000
  117MOL    H5635088   5.728   5.146   5.542 -0.3557 -1.4797 -0.3141
  117MOL    H5735089   5.858   5.248   5.312 -2.3849  1.3485  0.5670
  117MOL    H5835090   5.829   5.467   5.339 -1.7455 -0.8193  1.0442
  117MOL    H5935091   5.825   5.663   5.490  1.2842 -0.4307 -3.1414
  117MOL    H6035092   5.922   5.623   5.732 -0.0936 -0.6142 -0.2011
  117MOL    H6135093   5.959   5.406   5.807 -0.3562  0.6762 -0.0980
  117MOL    C6235094   6.027   5.150   5.395  0.3481 -0.1420  0.0642
  117MOL    C6335095   6.130   5.252   5.328  0.4065  0.1743  0.1671
  117MOL    C6435096   6.228   5.292   5.436 -0.5291  0.2471 -0.1861
  117MOL    C6535097   6.227   5.424   5.486 -0.8043  0.4776 -0.4118
  117MOL    C6635098   6.327   5.461   5.572 -0.3219 -0.1157  0.0032
  117MOL    C6735099   6.418   5.363   5.621  0.5157 -0.1836  0.4728
  117MOL    C6835100   6.397   5.229   5.580  0.3329  0.2977  0.3210
  117MOL    N6935101   6.311   5.199   5.480  0.1861  0.1376  0.6441
  117MOL    H7035102   6.015   5.061   5.333 -1.9207  0.5916 -0.5762
  117MOL    H7135103   6.062   5.124   5.495  0.4621  2.9614  0.8807
  117MOL    H7235104   6.090   5.345   5.287  1.2772  1.0638  1.3405
  117MOL    H7335105   6.152   5.496   5.457 -2.4101 -1.6610 -1.6978
  117MOL    H7435106   6.338   5.558   5.617 -4.1178  0.4947 -0.2590
  117MOL    H7535107   6.498   5.394   5.687  0.2656 -1.3520  1.3239
  117MOL    H7635108   6.456   5.145   5.613 -0.2087 -0.5603 -0.8725
  117MOL    C7735109   6.200   5.194   5.203  0.7018 -0.0623 -0.0495
  117MOL    C7835110   6.105   5.148   5.098 -0.1218  0.3141  0.5011
  117MOL    C7935111   6.032   5.263   5.027  0.1503 -0.4251 -0.7894
  117MOL    C8035112   5.892   5.273   5.021 -0.5275 -0.3421  0.2174
  117MOL    C8135113   5.835   5.381   4.954  0.1808  0.1524 -0.0866
  117MOL    C8235114   5.922   5.479   4.898  0.3281  0.4077 -0.0777
  117MOL    C8335115   6.057   5.451   4.900 -0.0307  0.3657 -0.2668
  117MOL    N8435116   6.115   5.350   4.969  0.2672 -0.6942 -0.1747
  117MOL    H8535117   6.248   5.103   5.241 -1.6766 -0.7231  1.4908
  117MOL    H8635118   6.273   5.259   5.155 -1.1753  2.6943  0.6967
  117MOL    H8735119   6.025   5.086   5.138 -0.0543  0.6101  1.1012
  117MOL    H8835120   5.834   5.209   5.084  0.7457 -1.3374  0.3988
  117MOL    H8935121   5.728   5.387   4.940  0.1269 -0.0504  0.2399
  117MOL    H9035122   5.900   5.570   4.846  4.1219  1.0067 -0.7901
  117MOL    H9135123   6.134   5.510   4.851  2.3653 -0.4405  2.4015
  117MOL    C9235124   6.172   5.059   4.990  0.2682 -0.0716 -0.2482
  117MOL    C9335125   6.227   4.921   5.040 -0.7644  0.1957 -0.3778
  117MOL    C9435126   6.130   4.853   5.138  1.0016 -0.4569  0.1123
  117MOL    C9535127   6.175   4.824   5.268 -0.0645  0.1485  0.4157
  117MOL    C9635128   6.089   4.746   5.350  0.2769 -0.2734 -0.7234
  117MOL    C9735129   5.960   4.719   5.304 -0.1797 -0.4318  0.6306
  117MOL    C9835130   5.913   4.771   5.181 -0.2164  0.2825  0.1669
  117MOL    N9935131   6.001   4.834   5.099 -0.3495  0.4203  0.3663
  117MOL   H10035132   6.251   5.109   4.935 -1.1894  2.3614 -0.1871
  117MOL   H10135133   6.094   5.032   4.918  2.1204  1.0127 -2.7511
  117MOL   H10235134   6.320   4.936   5.096 -0.5547  1.6407 -1.1070
  117MOL   H10335135   6.267   4.864   5.307  0.0997  0.5505 -0.3716
  117MOL   H10435136   6.126   4.705   5.443  3.0455  1.9208 -0.7738
  117MOL   H10535137   5.897   4.654   5.363 -2.6845  2.7332  1.5271
  117MOL   H10635138   5.817   4.763   5.133 -1.2371  1.7953  1.8747
  117MOL   C10735139   6.246   4.813   4.929 -0.5314 -0.3127  0.2248
  117MOL   C10835140   6.345   4.839   4.814  0.3895 -0.2853 -0.1963
  117MOL   C10935141   6.486   4.862   4.863  0.3192 -0.3052  0.3050
  117MOL   C11035142   6.557   4.971   4.813 -0.4101 -0.4294  0.1916
  117MOL   C11135143   6.692   4.979   4.842 -0.2795  0.1426  0.3035
  117MOL   C11235144   6.743   4.881   4.935 -0.3369 -0.0462 -0.4582
  117MOL   C11335145   6.666   4.775   4.992  0.5557 -0.9093  0.2350
  117MOL   N11435146   6.538   4.769   4.951  0.2973 -0.0403 -0.5356
  117MOL   H11535147   6.149   4.806   4.879 -1.5676  2.3963  1.8023
  117MOL   H11635148   6.270   4.714   4.970 -0.5420  0.0857  1.1943
  117MOL   H11735149   6.309   4.933   4.772 -2.1674  0.6466  3.8355
  117MOL   H11835150   6.509   5.038   4.743  1.7188  2.6759  1.6181
  117MOL   H11935151   6.746   5.060   4.795 -1.5581  1.3653  0.9051
  117MOL   H12035152   6.847   4.884   4.964 -1.1100  1.0438  2.3808
  117MOL   H12135153   6.705   4.706   5.065 -1.4624 -0.5462  1.6987
  117MOL   C12235154   6.352   4.717   4.712 -0.0817 -0.6106 -0.0135
  117MOL   C12335155   6.240   4.718   4.610 -0.3628  0.0106 -0.1254
  117MOL   C12435156   6.226   4.855   4.547  0.1052  0.3014  0.2571
  117MOL   C12535157   6.099   4.920   4.546 -0.0892  0.4329 -0.3481
  117MOL   C12635158   6.090   5.046   4.495 -0.1596 -0.0970  0.3761
  117MOL   C12735159   6.206   5.098   4.437  0.0735  0.2643 -0.1051
  117MOL   C12835160   6.326   5.024   4.429 -0.4564  0.1338  0.4208
  117MOL   N12935161   6.331   4.901   4.479  0.2768 -0.0395 -0.1593
  117MOL   H13035162   6.372   4.624   4.765  1.5746  0.0696  0.6066
  117MOL   H13135163   6.443   4.735   4.653 -0.7836  1.0792 -0.6015
  117MOL   H13235164   6.150   4.699   4.669  0.0909 -1.0795  0.2362
  117MOL   H13335165   6.007   4.876   4.583  1.1424 -4.2566 -2.4045
  117MOL   H13435166   6.001   5.108   4.500 -0.5091 -0.6752  1.5169
  117MOL   H13535167   6.197   5.200   4.402 -0.3742  0.4123  0.4251
  117MOL   H13635168   6.412   5.077   4.392 -0.4332 -0.4583 -0.3898
  117MOL   C13735169   6.257   4.610   4.499  0.2780  0.1813 -0.6749
  117MOL   C13835170   6.247   4.463   4.557  0.4592 -0.2222  0.7873
  117MOL   C13935171   6.120   4.449   4.635 -0.6212  0.8532 -0.1829
  117MOL   C14035172   6.122   4.400   4.765 -0.1079 -0.2751 -0.1748
  117MOL   C14135173   6.001   4.396   4.839  0.0197  0.4731  1.0541
  117MOL   C14235174   5.882   4.437   4.773  0.4145 -0.5950  0.1688
  117MOL   C14335175   5.891   4.483   4.636 -0.3095 -0.1536  0.1486
  117MOL   N14435176   6.008   4.485   4.573  0.2754 -0.1058  0.3262
  117MOL   H14535177   6.347   4.614   4.439 -0.8039  0.8026 -2.3076
  117MOL   H14635178   6.171   4.624   4.433 -0.8728 -0.6988  0.6055
  117MOL   H14735179   6.335   4.447   4.619  2.0839  2.2058 -0.8428
  117MOL   H14835180   6.218   4.393   4.815  0.7124  0.8742 -1.5599
  117MOL   H14935181   6.007   4.369   4.943 -2.6150  1.9040  1.6080
  117MOL   H15035182   5.787   4.434   4.823 -0.7806 -0.4354 -2.0621
  117MOL   H15135183   5.807   4.530   4.587 -0.3249  0.1219  0.4362
  117MOL   C15235184   6.255   4.356   4.447 -0.0356  0.1373  0.2814
  117MOL   C15335185   6.398   4.315   4.410  0.0256  0.0121  0.7805
  117MOL   C15435186   6.466   4.243   4.521 -0.2051  0.7430 -0.8007
  117MOL   C15535187   6.428   4.115   4.559 -0.8367 -0.2015 -0.5364
  117MOL   C15635188   6.486   4.059   4.675  0.4714  1.1472 -0.0518
  117MOL   C15735189   6.584   4.127   4.747 -0.5801  0.5532  0.3838
  117MOL   C15835190   6.609   4.259   4.707 -0.0525 -0.5822 -0.2116
  117MOL   N15935191   6.557   4.309   4.592 -0.3081 -0.6037 -0.0216
  117MOL   H16035192   6.197   4.400   4.367  1.5086  0.6375 -0.5745
  117MOL   H16135193   6.195   4.267   4.467 -1.8611  0.9536 -1.4610
  117MOL   H16235194   6.460   4.404   4.400  0.9540 -0.6858  0.1801
  117MOL   H16335195   6.347   4.069   4.505 -2.1891  2.0187 -0.4788
  117MOL   H16435196   6.459   3.959   4.707  2.5010  0.1217 -1.4919
  117MOL   H16535197   6.614   4.083   4.841  0.4207  1.7426  0.6394
  117MOL   H16635198   6.681   4.317   4.763 -0.5558  2.6193 -2.7453
  117MOL   C16735199   6.399   4.238   4.281  0.3540 -0.8421 -0.0263
  117MOL   C16835200   6.518   4.155   4.232  0.1630  0.5313 -0.3269
  117MOL   C16935201   6.490   4.061   4.112  0.3718 -1.0247  0.2086
  117MOL   C17035202   6.530   3.928   4.120  0.3037  0.0612  0.2243
  117MOL   C17135203   6.512   3.851   4.008 -0.4278 -0.0563  0.2873
  117MOL   C17235204   6.446   3.907   3.894 -0.3248 -0.7280  0.2341
  117MOL   C17335205   6.392   4.033   3.904 -0.3323  0.1558  0.5642
  117MOL   N17435206   6.409   4.113   4.014  0.6125 -0.4514 -0.2030
  117MOL   H17535207   6.375   4.298   4.193 -1.1998  1.7561  2.0711
  117MOL   H17635208   6.317   4.166   4.282 -0.4472  0.0647  0.8111
  117MOL   H17735209   6.543   4.083   4.309  0.4593  0.5673 -0.3908
  117MOL   H17835210   6.585   3.888   4.204  2.2347 -0.3469 -1.1983
  117MOL   H17935211   6.552   3.751   4.005 -0.2983  0.0373 -1.4735
  117MOL   H18035212   6.436   3.847   3.805 -1.5766 -0.0012 -0.1314
  117MOL   H18135213   6.347   4.086   3.821  0.3559  3.0122  1.9530
  117MOL   C18235214   6.641   4.232   4.196 -0.0106  0.1175  0.2275
  117MOL   C18335215   6.774   4.176   4.246  0.9679 -0.4356  0.1113
  117MOL   C18435216   6.822   4.060   4.160  0.3002 -0.0631  0.0838
  117MOL   C18535217   6.822   4.069   4.019  0.2647  0.4461 -0.1163
  117MOL   C18635218   6.884   3.964   3.948  0.2065  0.1166  0.1476
  117MOL   C18735219   6.954   3.865   4.020 -0.3894  0.0224 -0.0681
  117MOL   C18835220   6.942   3.867   4.161 -0.1303  0.8483 -0.4258
  117MOL   N18935221   6.878   3.960   4.232 -0.3135 -0.1657  0.0648
  117MOL   H19035222   6.628   4.337   4.224 -0.8547  0.4248 -1.2230
  117MOL   H19135223   6.643   4.253   4.089 -0.3063  0.9365  0.3793
  117MOL   H19235224   6.759   4.128   4.343 -0.6101 -0.7918 -0.2980
  117MOL   H19335225   6.773   4.145   3.958  2.5032  2.6124  0.6955
  117MOL   H19435226   6.902   3.961   3.841 -1.7168  0.9006 -0.2175
  117MOL   H19535227   7.019   3.797   3.967  0.2133  0.8580 -0.4210
  117MOL   H19635228   7.004   3.797   4.216  0.5184 -0.6755 -2.9981
  117MOL   C19735229   6.891   4.279   4.255 -0.7491  0.0047 -0.6275
  117MOL   C19835230   6.872   4.377   4.371  0.3259  0.6279  0.1652
  117MOL   C19935231   6.960   4.336   4.492 -0.0882  0.3802  0.7415
  117MOL   C20035232   6.915   4.237   4.576  0.0179 -0.3954 -1.1313
  117MOL   C20135233   7.009   4.171   4.661 -0.6947 -0.4904 -0.1950
  117MOL   C20235234   7.145   4.205   4.650  0.2801 -0.9494  0.2934
  117MOL   C20335235   7.178   4.309   4.562  0.0443 -0.1491  0.1245
  117MOL   N20435236   7.087   4.374   4.482 -0.1876  0.0984 -0.0066
  117MOL   H20535237   6.900   4.335   4.162 -0.8202  1.1746  0.0635
  117MOL   H20635238   6.987   4.232   4.276 -1.4783 -1.8646 -1.3539
  117MOL   H20735239   6.769   4.369   4.406 -0.2541  1.3487 -1.3218
  117MOL   H20835240   6.816   4.193   4.570 -0.5210  0.9192 -2.0447
  117MOL   H20935241   6.983   4.093   4.731 -1.4777  0.8850  1.0600
  117MOL   H21035242   7.223   4.151   4.701 -0.4009 -3.7290 -1.4976
  117MOL   H21135243   7.282   4.334   4.543  0.5900 -1.2678  1.5661
  117MOL   C21235244   6.892   4.526   4.322 -0.3587  0.1787 -0.4493
  117MOL   C21335245   6.766   4.592   4.257  0.2558 -0.1427 -0.9627
  117MOL   C21435246   6.756   4.737   4.316 -0.2172 -0.6932 -0.3827
  117MOL   C21535247   6.657   4.768   4.398  0.5069  0.4568  0.1703
  117MOL   C21635248   6.640   4.894   4.455 -1.2050 -0.3265 -0.1275
  117MOL   C21735249   6.749   4.979   4.438 -0.3331 -0.2378 -0.2366
  117MOL   C21835250   6.846   4.948   4.341 -0.7711 -0.4727 -0.1245
  117MOL   N21935251   6.850   4.829   4.283  0.3017  0.2186  0.8809
  117MOL   H22035252   6.990   4.535   4.277  0.1920  0.3813  0.7758
  117MOL   H22135253   6.910   4.578   4.417  0.7941  0.8678 -1.0423
  117MOL   H22235254   6.677   4.532   4.275 -0.0684  0.5775 -0.0993
  117MOL   H22335255   6.588   4.689   4.423  0.9761  0.2155  0.7003
  117MOL   H22435256   6.559   4.911   4.525 -0.5298 -1.7641  1.0329
  117MOL   H22535257   6.744   5.075   4.488 -1.0880 -0.8427  0.8817
  117MOL   H22635258   6.929   5.015   4.327 -0.4317 -0.5969  1.1798
  117MOL   C22735259   6.788   4.586   4.110  0.0070 -0.0075 -0.4178
  117MOL   C22835260   6.677   4.641   4.026  0.4289  0.8763 -0.4901
  117MOL   C22935261   6.708   4.634   3.880  0.3616  0.0980  0.1916
  117MOL   C23035262   6.751   4.748   3.807  0.4232 -0.1906  0.5242
  117MOL   C23135263   6.801   4.734   3.676 -0.5846  0.2249  0.4357
  117MOL   C23235264   6.806   4.603   3.625  0.6157 -0.4884 -0.1646
  117MOL   C23335265   6.753   4.501   3.698 -0.0723  0.0367 -0.4251
  117MOL   N23435266   6.710   4.513   3.823 -0.3995  0.0830  0.0940
  117MOL   H23535267   6.801   4.484   4.075  1.7227  0.5493 -1.5273
  117MOL   H23635268   6.876   4.646   4.083 -0.2589  0.0156 -1.2361
  117MOL   H23735269   6.666   4.749   4.038 -0.0296  0.8880 -0.9677
  117MOL   H23835270   6.739   4.851   3.835 -0.9524 -0.1113 -0.2859
  117MOL   H23935271   6.841   4.817   3.621 -0.5050 -0.7666 -1.0142
  117MOL   H24035272   6.846   4.581   3.527 -0.2783  0.3543 -0.7241
  117MOL   H24135273   6.760   4.405   3.650  0.8255 -0.4690  0.6986
  117MOL   C24235274   6.537   4.586   4.063  0.1842 -0.4261 -0.1868
  117MOL   C24335275   6.427   4.606   3.957 -0.1026  0.3439 -0.1777
  117MOL   C24435276   6.305   4.519   3.987 -0.3808  0.0893 -0.2023
  117MOL   C24535277   6.266   4.422   3.892 -0.3538  0.6656 -0.3286
  117MOL   C24635278   6.149   4.348   3.925 -0.3160 -1.1804  0.5161
  117MOL   C24735279   6.078   4.386   4.036 -0.0779 -0.3695  0.3078
  117MOL   C24835280   6.125   4.488   4.125  0.3208  0.2076 -0.6151
  117MOL   N24935281   6.233   4.552   4.097  0.0505  0.3054  0.2281
  117MOL   H25035282   6.510   4.631   4.159 -0.1712 -2.3722  0.6471
  117MOL   H25135283   6.537   4.477   4.070 -2.6591 -0.4254  0.4667
  117MOL   H25235284   6.472   4.544   3.879  0.0679 -1.9496  1.6775
  117MOL   H25335285   6.324   4.411   3.802  4.1923  0.7187  2.4250
  117MOL   H25435286   6.102   4.283   3.853 -1.1472  1.0150 -0.9698
  117MOL   H25535287   5.976   4.354   4.050 -0.0954 -0.1501  0.6985
  117MOL   H25635288   6.061   4.525   4.204 -0.3014  1.9294 -1.8926
  117MOL   C25735289   6.393   4.741   3.895 -0.1613  0.1847  0.4444
  117MOL   C25835290   6.328   4.729   3.756  0.4509  0.0042 -0.8092
  117MOL   C25935291   6.227   4.844   3.743  0.1771 -0.1684  0.1960
  117MOL   C26035292   6.097   4.818   3.717  0.3617  0.8577  0.1618
  117MOL   C26135293   6.007   4.923   3.736  0.2525 -0.3394  0.2738
  117MOL   C26235294   6.053   5.054   3.762 -0.9473  0.2215 -0.9731
  117MOL   C26335295   6.195   5.076   3.760  0.2739  0.0134  0.0472
  117MOL   N26435296   6.277   4.971   3.766  0.1547 -0.5699 -0.1093
  117MOL   H26535297   6.480   4.806   3.890 -0.0921  0.0448 -0.2036
  117MOL   H26635298   6.329   4.800   3.962  1.5049  1.5143  0.9012
  117MOL   H26735299   6.273   4.635   3.751  0.0868  0.2542 -1.5439
  117MOL   H26835300   6.063   4.716   3.700  0.2912  0.9386 -0.1916
  117MOL   H26935301   5.902   4.902   3.746  0.4082 -1.6407 -0.6935
  117MOL   H27035302   5.981   5.134   3.765 -2.1612 -0.9004  0.7336
  117MOL   H27135303   6.244   5.171   3.774  0.0044  0.2271 -0.4281
  117MOL   C27235304   6.431   4.719   3.637  0.1110 -0.4520 -0.2624
  117MOL   C27335305   6.378   4.720   3.493 -0.1855  0.7619 -0.7811
  117MOL   C27435306   6.333   4.861   3.454 -1.0072  0.7242  0.5313
  117MOL   C27535307   6.207   4.880   3.408  0.3505  0.5206 -0.3143
  117MOL   C27635308   6.168   5.007   3.371  0.4306  0.4754 -0.1232
  117MOL   C27735309   6.263   5.111   3.383  0.4038 -0.0545 -0.1147
  117MOL   C27835310   6.387   5.093   3.439 -0.4460  0.0264  0.2831
  117MOL   N27935311   6.419   4.964   3.472 -0.6071  0.4144  0.5357
  117MOL   H28035312   6.490   4.629   3.656  0.8315 -0.1036 -0.7876
  117MOL   H28135313   6.510   4.794   3.642 -0.2372 -0.0613 -0.6142
  117MOL   H28235314   6.292   4.653   3.487 -0.1878  0.8406 -1.7366
  117MOL   H28335315   6.144   4.792   3.406  0.6330  0.3247 -0.6546
  117MOL   H28435316   6.074   5.027   3.323  1.2908 -0.1301 -2.0983
  117MOL   H28535317   6.235   5.212   3.355  0.5619  0.9115  3.0556
  117MOL   H28635318   6.457   5.174   3.456  1.3100 -1.3139 -0.3358
  117MOL   C28735319   6.477   4.671   3.384  0.2502 -0.4470  0.0556
  117MOL   C28835320   6.513   4.517   3.393 -0.1049 -0.3038 -0.2083
  117MOL   C28935321   6.586   4.469   3.271  0.3085  0.4194  0.5712
  117MOL   C29035322   6.725   4.427   3.271  0.0773 -0.4812 -0.1704
  117MOL   C29135323   6.773   4.357   3.161 -1.0286 -0.4798  0.6672
  117MOL   C29235324   6.690   4.347   3.045  0.0811  0.3151 -0.1945
  117MOL   C29335325   6.561   4.389   3.050  0.3499 -0.3980  0.1677
  117MOL   N29435326   6.510   4.447   3.159  0.1837 -0.4030 -0.6896
  117MOL   H29535327   6.569   4.729   3.382 -0.1807  0.2107 -0.7898
  117MOL   H29635328   6.429   4.683   3.287  1.9861 -1.6038 -0.9837
  117MOL   H29735329   6.432   4.447   3.415 -2.6169  1.9053 -2.0439
  117MOL   H29835330   6.785   4.440   3.360 -1.5390 -1.1557  1.0483
  117MOL   H29935331   6.872   4.316   3.151 -1.3869 -1.6637  1.7946
  117MOL   H30035332   6.735   4.312   2.954  0.0671  0.3376 -0.2102
  117MOL   H30135333   6.494   4.371   2.966 -0.3408 -1.4966  0.9276
  117MOL   H30235334   6.584   4.509   3.476 -0.4900  0.2128  0.1790
  118MOL     C135335   4.594   1.319   2.782 -0.0267  0.1101  0.5126
  118MOL     C235336   4.623   1.362   2.642  0.7143  0.2447 -0.9012
  118MOL     C335337   4.500   1.344   2.546  0.0795 -0.3387  0.3974
  118MOL     C435338   4.502   1.236   2.455  0.1278  0.0760  0.6943
  118MOL     C535339   4.388   1.211   2.379 -0.2316  0.5269  0.4516
  118MOL     C635340   4.270   1.276   2.416 -0.5435 -0.2923  0.3620
  118MOL     C735341   4.273   1.381   2.511 -0.3925  0.1832  0.0474
  118MOL     N835342   4.386   1.414   2.573  0.2299 -0.4196 -0.3235
  118MOL     H935343   4.667   1.352   2.856  0.0124  1.8615 -0.2821
  118MOL    H1035344   4.507   1.381   2.802 -0.2610 -0.3273  0.8603
  118MOL    H1135345   4.694   1.288   2.607 -0.3388 -1.5416  0.6419
  118MOL    H1235346   4.588   1.173   2.435 -0.0605  0.0528 -0.0916
  118MOL    H1335347   4.379   1.131   2.307  2.0704  2.1838 -1.7596
  118MOL    H1435348   4.183   1.246   2.359 -0.1865 -0.2191 -0.2288
  118MOL    H1535349   4.185   1.424   2.555 -1.1192 -2.1243  0.9238
  118MOL    H1635350   4.580   1.211   2.793  1.0221  0.0169  1.0695
  118MOL    C1735351   4.711   1.490   2.626 -0.0738 -0.9418  0.3427
  118MOL    C1835352   4.648   1.624   2.676 -0.1260 -0.2817 -0.4568
  118MOL    C1935353   4.741   1.695   2.766 -0.2714  0.5243  0.0686
  118MOL    C2035354   4.709   1.710   2.905 -0.3160  0.4874  0.8562
  118MOL    C2135355   4.800   1.780   2.981  0.2777 -0.2121  0.1879
  118MOL    C2235356   4.908   1.846   2.922  0.1813  0.4069 -0.1788
  118MOL    C2335357   4.928   1.827   2.782  0.6761  0.0647  0.3083
  118MOL    N2435358   4.852   1.750   2.707 -0.2806 -0.6702 -0.4715
  118MOL    H2535359   4.754   1.505   2.527  4.2676 -0.1438  2.2228
  118MOL    H2635360   4.807   1.464   2.670  0.9699 -0.4862 -1.6027
  118MOL    H2735361   4.555   1.604   2.729  0.2401  2.5656  1.3548
  118MOL    H2835362   4.620   1.664   2.945 -0.6570  0.5288  0.1550
  118MOL    H2935363   4.781   1.778   3.087 -0.9353 -1.2158 -0.0392
  118MOL    H3035364   4.978   1.895   2.987 -0.1731  2.2536 -1.1323
  118MOL    H3135365   5.019   1.865   2.737 -0.3582  3.8007  1.1603
  118MOL    C3235366   4.600   1.708   2.554  0.2155  0.0578 -0.9488
  118MOL    C3335367   4.568   1.859   2.586 -0.7408  0.2097 -0.3090
  118MOL    C3435368   4.552   1.939   2.460 -0.6718  0.2019 -0.0308
  118MOL    C3535369   4.647   2.042   2.427  0.7462  0.5045 -0.1707
  118MOL    C3635370   4.621   2.121   2.312  0.6734  0.9551  0.3882
  118MOL    C3735371   4.508   2.084   2.234 -0.2923  0.0092  0.2360
  118MOL    C3835372   4.420   1.980   2.274  1.1076  0.6985 -0.7141
  118MOL    N3935373   4.446   1.909   2.386 -0.5059  0.6363 -0.3463
  118MOL    H4035374   4.512   1.656   2.517 -0.1759  0.6700 -0.8930
  118MOL    H4135375   4.686   1.708   2.488  0.6493 -0.2461 -0.3901
  118MOL    H4235376   4.653   1.904   2.637  0.5861 -1.8021 -0.7006
  118MOL    H4335377   4.723   2.061   2.501  0.5336  0.4060  0.0739
  118MOL    H4435378   4.692   2.196   2.280  0.5342  0.0697 -2.1671
  118MOL    H4535379   4.478   2.145   2.149  0.2143 -1.1505 -0.7836
  118MOL    H4635380   4.327   1.966   2.221 -0.1075  0.8358  1.3398
  118MOL    C4735381   4.452   1.875   2.683  0.6824  0.1318  0.2939
  118MOL    C4835382   4.455   1.991   2.780 -0.3680 -0.2952 -0.4695
  118MOL    C4935383   4.458   2.123   2.704  0.1946  0.9647 -0.0077
  118MOL    C5035384   4.353   2.165   2.615 -0.2060 -0.8575 -0.7361
  118MOL    C5135385   4.380   2.285   2.539  0.1291  0.2558 -0.1740
  118MOL    C5235386   4.503   2.358   2.566 -0.6282 -0.3998 -0.0709
  118MOL    C5335387   4.591   2.311   2.665 -0.4168 -0.5119  0.8729
  118MOL    N5435388   4.572   2.194   2.726  0.1963  0.2827  0.2629
  118MOL    H5535389   4.440   1.783   2.739 -1.6332  1.4310  2.0081
  118MOL    H5635390   4.366   1.882   2.617  0.2076  1.4126  1.0282
  118MOL    H5735391   4.540   1.978   2.847 -1.4506  0.3741  1.0676
  118MOL    H5835392   4.264   2.106   2.596 -0.9367 -0.2559  0.7381
  118MOL    H5935393   4.312   2.322   2.463  1.3738  1.3718 -0.7763
  118MOL    H6035394   4.531   2.452   2.520  0.7489 -0.3802  0.8045
  118MOL    H6135395   4.683   2.362   2.687 -1.0755  0.5542  1.2243
  118MOL    C6235396   4.322   1.987   2.871 -0.3690 -0.4040  0.1798
  118MOL    C6335397   4.345   1.898   3.004  0.5833 -0.0184  0.1987
  118MOL    C6435398   4.362   1.986   3.132  0.3736 -0.1677  1.1777
  118MOL    C6535399   4.473   1.974   3.211  0.0641  0.4769 -0.7342
  118MOL    C6635400   4.484   2.041   3.334 -0.4259  0.9044 -0.3090
  118MOL    C6735401   4.375   2.129   3.365  0.1584 -0.3687 -0.2578
  118MOL    C6835402   4.266   2.145   3.280 -0.2218  0.8516 -0.2413
  118MOL    N6935403   4.259   2.074   3.169 -0.1593 -0.2374  0.6887
  118MOL    H7035404   4.237   1.958   2.811  1.2401 -0.3909 -2.1755
  118MOL    H7135405   4.293   2.089   2.897 -1.3824 -0.8147  0.6734
  118MOL    H7235406   4.436   1.841   2.987  1.2783  1.5735 -1.6622
  118MOL    H7335407   4.545   1.899   3.181 -0.5583  0.1188 -1.3684
  118MOL    H7435408   4.567   2.018   3.400 -1.3110  0.5945  0.7256
  118MOL    H7535409   4.363   2.190   3.453  1.5191 -0.0030 -0.3089
  118MOL    H7635410   4.189   2.218   3.302 -0.5263  1.0325 -1.8567
  118MOL    C7735411   4.225   1.798   3.022 -0.2038  0.0917 -0.6267
  118MOL    C7835412   4.231   1.691   3.137 -0.7539  0.3654  0.3088
  118MOL    C7935413   4.344   1.586   3.123  0.2068  0.1759 -0.3443
  118MOL    C8035414   4.466   1.596   3.182  0.5283  0.7777  0.5423
  118MOL    C8135415   4.563   1.494   3.165 -0.1860 -0.2804 -0.7755
  118MOL    C8235416   4.523   1.380   3.099 -0.2320  0.1133  0.0852
  118MOL    C8335417   4.390   1.375   3.054  0.2850  0.1207  0.4450
  118MOL    N8435418   4.304   1.477   3.052  0.6553 -0.2053  0.0981
  118MOL    H8535419   4.215   1.741   2.930 -1.7876 -0.6038 -0.0437
  118MOL    H8635420   4.136   1.859   3.039  1.3308  2.6622 -1.3867
  118MOL    H8735421   4.141   1.632   3.123  1.0519 -3.0021  2.1834
  118MOL    H8835422   4.486   1.683   3.242  1.1672  1.0065  0.0022
  118MOL    H8935423   4.662   1.502   3.208  0.2592 -0.4746 -1.7500
  118MOL    H9035424   4.579   1.289   3.087  4.5033  2.8935  0.1150
  118MOL    H9135425   4.357   1.293   2.992 -0.5719  0.6441  0.1976
  118MOL    C9235426   4.213   1.739   3.287  0.0048  0.1889 -0.2630
  118MOL    C9335427   4.171   1.617   3.377 -0.6967 -0.6085 -0.1097
  118MOL    C9435428   4.237   1.627   3.516 -0.0512 -0.0362  0.8076
  118MOL    C9535429   4.350   1.546   3.539  0.4614 -0.4082  0.2786
  118MOL    C9635430   4.426   1.568   3.657 -0.5054 -0.6133  0.3915
  118MOL    C9735431   4.386   1.672   3.743 -0.0238 -0.0649  0.2005
  118MOL    C9835432   4.271   1.745   3.716  0.5674 -0.4635  0.0436
  118MOL    N9935433   4.198   1.724   3.601  0.2705 -0.0375  0.1324
  118MOL   H10035434   4.141   1.819   3.302 -2.0810 -1.5256 -0.9344
  118MOL   H10135435   4.305   1.787   3.320 -0.8837  0.3285  2.0724
  118MOL   H10235436   4.205   1.525   3.332  1.7403  1.0296 -1.7178
  118MOL   H10335437   4.380   1.464   3.476  0.0501 -1.1429  1.0209
  118MOL   H10435438   4.514   1.510   3.683 -1.3727 -1.4560  1.5238
  118MOL   H10535439   4.453   1.696   3.825 -1.0113 -1.9723  1.6047
  118MOL   H10635440   4.253   1.834   3.775  0.7734  0.9046 -1.8946
  118MOL   C10735441   4.012   1.612   3.372 -0.2670  0.4511  0.6205
  118MOL   C10835442   3.940   1.478   3.408 -0.0118 -0.1053  0.4516
  118MOL   C10935443   3.797   1.493   3.448 -0.5777  0.0458  0.1621
  118MOL   C11035444   3.760   1.487   3.585 -0.4317 -0.7448  0.2441
  118MOL   C11135445   3.625   1.504   3.607  0.7847  0.0175  0.0021
  118MOL   C11235446   3.536   1.527   3.503  0.0029  0.5276  0.5551
  118MOL   C11335447   3.584   1.543   3.373 -0.2465 -0.5432 -0.7752
  118MOL   N11435448   3.715   1.522   3.346 -0.6295  0.2441 -0.2382
  118MOL   H11535449   3.970   1.653   3.281 -0.9738 -3.0772 -0.7070
  118MOL   H11635450   3.978   1.686   3.445 -0.3948  1.5023 -0.4762
  118MOL   H11735451   3.993   1.454   3.500  1.6974 -0.0959 -0.5046
  118MOL   H11835452   3.824   1.465   3.669  1.3620 -2.4631 -1.4989
  118MOL   H11935453   3.595   1.495   3.711  1.7187 -0.4769  0.2350
  118MOL   H12035454   3.433   1.545   3.532 -1.3561 -1.0499 -2.9016
  118MOL   H12135455   3.509   1.570   3.300 -1.6404 -1.8033  0.1452
  118MOL   C12235456   3.969   1.367   3.302 -0.3569  0.3379  0.0700
  118MOL   C12335457   4.050   1.239   3.349 -0.4234 -0.8039 -0.1980
  118MOL   C12435458   4.042   1.129   3.243 -0.7843 -0.0119  0.5234
  118MOL   C12535459   4.083   1.148   3.112  0.6292 -0.1271 -0.3414
  118MOL   C12635460   4.096   1.035   3.028  0.3261 -0.0168  0.3933
  118MOL   C12735461   4.061   0.912   3.065 -0.4547 -0.0403 -0.4686
  118MOL   C12835462   4.019   0.898   3.201  1.0736 -0.4487  0.4753
  118MOL   N12935463   4.016   1.001   3.286  0.0098 -0.2869 -0.1761
  118MOL   H13035464   4.023   1.413   3.220 -0.2860 -0.5975 -0.4171
  118MOL   H13135465   3.869   1.341   3.268 -0.5884  0.7374  0.4287
  118MOL   H13235466   3.979   1.202   3.424  0.4589 -1.9696  0.0651
  118MOL   H13335467   4.111   1.245   3.074  0.4203 -0.2174 -0.7247
  118MOL   H13435468   4.140   1.047   2.931  1.4163 -0.7062  0.7920
  118MOL   H13535469   4.073   0.829   2.998 -1.5962 -1.8522  1.5034
  118MOL   H13635470   3.981   0.810   3.249 -1.5785  0.2019 -0.3379
  118MOL   C13735471   4.187   1.266   3.414 -0.0114  0.2743  0.1768
  118MOL   C13835472   4.268   1.144   3.463 -0.4603  1.1056  0.1777
  118MOL   C13935473   4.397   1.127   3.381 -0.5667 -0.6782  0.3575
  118MOL   C14035474   4.391   1.036   3.278  0.1314 -0.3825  0.0003
  118MOL   C14135475   4.504   1.019   3.204 -0.4786  0.0517 -0.0842
  118MOL   C14235476   4.614   1.090   3.235 -0.0836  0.4152  0.3280
  118MOL   C14335477   4.613   1.183   3.335 -0.0236 -0.0232  0.3292
  118MOL   N14435478   4.504   1.204   3.405  0.5091 -0.0345 -0.5713
  118MOL   H14535479   4.184   1.337   3.496  2.2056  0.1955  0.3736
  118MOL   H14635480   4.244   1.314   3.334 -3.0510  0.9345 -1.6578
  118MOL   H14735481   4.203   1.057   3.456  0.3281  0.5225 -0.0771
  118MOL   H14835482   4.299   0.984   3.255 -0.6078  1.5398 -1.5634
  118MOL   H14935483   4.506   0.942   3.128 -0.3784 -0.7179  0.6992
  118MOL   H15035484   4.705   1.077   3.177 -1.0504 -1.3065 -0.8743
  118MOL   H15135485   4.700   1.247   3.344  0.8190 -0.8261 -1.8056
  118MOL   C15235486   4.300   1.152   3.613  0.0801 -0.4545 -0.7389
  118MOL   C15335487   4.178   1.136   3.715  0.9584  0.5544 -0.6237
  118MOL   C15435488   4.122   0.996   3.713 -0.6358 -0.0891  0.2999
  118MOL   C15535489   3.987   0.981   3.668  0.4696 -0.7408 -0.1549
  118MOL   C15635490   3.934   0.851   3.666 -0.7083  0.2637 -0.4997
  118MOL   C15735491   4.011   0.741   3.713  0.0676  0.1707 -0.6342
  118MOL   C15835492   4.142   0.767   3.753  0.3710 -0.2877  0.2476
  118MOL   N15935493   4.198   0.893   3.755 -0.2817 -0.1805  0.0819
  118MOL   H16035494   4.349   1.250   3.617 -1.8853  0.4726  1.4013
  118MOL   H16135495   4.376   1.081   3.645  0.7401  0.9545  0.9276
  118MOL   H16235496   4.096   1.206   3.701  1.8612  1.8512  0.3981
  118MOL   H16335497   3.932   1.071   3.643 -1.5191 -1.4319  1.5482
  118MOL   H16435498   3.836   0.834   3.623 -0.8496 -0.4900  0.1062
  118MOL   H16535499   3.968   0.642   3.718  0.9415 -0.3187 -2.5374
  118MOL   H16635500   4.216   0.693   3.778  2.2252  2.1622  2.3526
  118MOL   C16735501   4.220   1.165   3.865  0.0086  0.2954 -0.2298
  118MOL   C16835502   4.117   1.137   3.973  0.2211  0.1407  0.3283
  118MOL   C16935503   4.172   1.133   4.109 -0.1782  0.7598 -0.7477
  118MOL   C17035504   4.184   1.005   4.170  0.2320 -0.1885 -0.1137
  118MOL   C17135505   4.230   0.998   4.300 -0.6130 -0.6216  0.3398
  118MOL   C17235506   4.263   1.120   4.366  0.5961 -0.0112 -0.2168
  118MOL   C17335507   4.253   1.237   4.295  0.3671 -0.0188  0.0774
  118MOL   N17435508   4.206   1.245   4.173  0.0424  0.1893  0.4673
  118MOL   H17535509   4.255   1.267   3.879 -1.5243  0.8137 -0.1222
  118MOL   H17635510   4.303   1.098   3.890  0.9979  0.7663 -2.1680
  118MOL   H17735511   4.074   1.037   3.968  1.5330 -0.3305 -2.2242
  118MOL   H17835512   4.153   0.918   4.113  0.3842  0.3474 -1.0247
  118MOL   H17935513   4.241   0.897   4.335  0.1418 -0.4430  0.6195
  118MOL   H18035514   4.312   1.105   4.461  1.4808  1.0751 -0.4909
  118MOL   H18135515   4.282   1.334   4.334 -2.2270  0.2187  1.5714
  118MOL   C18235516   3.987   1.221   3.962  0.8562 -0.0923 -0.2214
  118MOL   C18335517   3.899   1.237   4.084  0.4606 -0.4746 -0.0361
  118MOL   C18435518   3.784   1.329   4.050 -0.1152 -1.1217 -0.3275
  118MOL   C18535519   3.750   1.438   4.136 -0.2341  0.6577  0.3974
  118MOL   C18635520   3.638   1.519   4.113  0.4983 -0.4537 -0.8510
  118MOL   C18735521   3.564   1.493   3.997  0.1376 -0.4788  0.0807
  118MOL   C18835522   3.595   1.376   3.929  0.3820 -0.5686  0.5988
  118MOL   N18935523   3.711   1.303   3.941  0.0436 -0.6584 -0.3102
  118MOL   H19035524   3.932   1.186   3.876  1.3041 -0.3273 -0.4174
  118MOL   H19135525   4.011   1.321   3.926 -0.0662 -0.2784 -1.3441
  118MOL   H19235526   3.957   1.280   4.166  0.2767 -2.0642  0.9653
  118MOL   H19335527   3.803   1.461   4.227 -1.8022  2.7913  0.8189
  118MOL   H19435528   3.601   1.604   4.168 -0.4965 -0.5447 -1.3733
  118MOL   H19535529   3.476   1.551   3.975 -0.6715 -0.7387  2.4885
  118MOL   H19635530   3.529   1.344   3.849  1.1172 -0.5341 -0.0319
  118MOL   C19735531   3.839   1.104   4.138  0.2196 -0.5784  0.0765
  118MOL   C19835532   3.774   1.116   4.281 -0.1752 -0.8046 -0.1984
  118MOL   C19935533   3.662   1.018   4.307  0.6213  0.6717 -0.3297
  118MOL   C20035534   3.528   1.062   4.317  0.6842  0.4944  0.8767
  118MOL   C20135535   3.426   0.963   4.344 -0.8683 -0.7452 -0.0081
  118MOL   C20235536   3.468   0.840   4.396  0.0173 -0.1703 -0.4725
  118MOL   C20335537   3.606   0.808   4.394 -0.0329  0.1401  0.3437
  118MOL   N20435538   3.696   0.895   4.351 -0.3447  0.9135  0.2695
  118MOL   H20535539   3.915   1.028   4.150 -0.0508 -0.5662  2.0252
  118MOL   H20635540   3.765   1.064   4.069  1.4415  0.7694 -2.0925
  118MOL   H20735541   3.717   1.208   4.271  0.6248 -0.1394  1.1619
  118MOL   H20835542   3.499   1.157   4.276 -0.8205 -1.0929 -1.9062
  118MOL   H20935543   3.323   0.996   4.345 -0.5257  0.4912 -2.6925
  118MOL   H21035544   3.395   0.773   4.440 -0.5112 -0.5915 -1.9732
  118MOL   H21135545   3.638   0.711   4.428 -1.0742 -0.6679 -0.9527
  118MOL   C21235546   3.876   1.127   4.391 -0.1853  0.1460 -0.5211
  118MOL   C21335547   3.835   1.189   4.523 -0.0355 -0.5383  0.3272
  118MOL   C21435548   3.938   1.165   4.629 -0.4476 -0.2979  0.0013
  118MOL   C21535549   3.939   1.048   4.704  0.1327 -0.2280  0.4889
  118MOL   C21635550   4.056   1.004   4.768  0.2280  0.1288 -0.9191
  118MOL   C21735551   4.166   1.089   4.768 -0.1115 -0.5460  0.0083
  118MOL   C21835552   4.156   1.213   4.704  0.7022  0.0703  0.3945
  118MOL   N21935553   4.050   1.243   4.628  0.2575 -0.0634 -0.0986
  118MOL   H22035554   3.964   1.185   4.361 -0.5730  0.4925 -0.9894
  118MOL   H22135555   3.921   1.030   4.411  0.3746  0.9156  2.2593
  118MOL   H22235556   3.748   1.143   4.568  0.1010  0.5623  1.7773
  118MOL   H22335557   3.850   0.988   4.694  0.6318 -0.5628 -2.0691
  118MOL   H22435558   4.061   0.906   4.814  0.7418 -0.1227 -1.5042
  118MOL   H22535559   4.260   1.057   4.809 -0.4723 -0.5368  0.8446
  118MOL   H22635560   4.236   1.285   4.704  0.4696  0.4158  3.3581
  118MOL   C22735561   3.800   1.338   4.512  0.3920  0.2840 -0.2768
  118MOL   C22835562   3.756   1.395   4.646 -0.5557  0.5293 -0.1520
  118MOL   C22935563   3.809   1.535   4.655  0.1811 -0.1016  0.9820
  118MOL   C23035564   3.787   1.632   4.558 -0.5377  0.3542  0.0419
  118MOL   C23135565   3.838   1.764   4.577  0.0177 -0.4778 -0.6609
  118MOL   C23235566   3.909   1.796   4.691  0.2861 -0.0391 -0.2966
  118MOL   C23335567   3.917   1.700   4.790 -0.0567 -0.2230 -0.5431
  118MOL   N23435568   3.875   1.572   4.768 -0.4025 -0.5733 -0.6105
  118MOL   H23535569   3.722   1.359   4.438 -0.7005  0.0531  0.7768
  118MOL   H23635570   3.886   1.393   4.477  0.0766  0.3146 -1.0052
  118MOL   H23735571   3.804   1.337   4.725  0.4059  2.7506  0.9407
  118MOL   H23835572   3.733   1.606   4.468 -0.6243 -1.8324  0.7086
  118MOL   H23935573   3.832   1.832   4.494  0.1506  1.9511  1.2840
  118MOL   H24035574   3.954   1.894   4.695  2.3663 -1.0340  1.3511
  118MOL   H24135575   3.964   1.707   4.887 -2.5353  0.0618  0.6843
  118MOL   C24235576   3.607   1.384   4.677 -0.6875 -0.1466 -0.2893
  118MOL   C24335577   3.563   1.431   4.819 -0.4737 -0.0584  0.3316
  118MOL   C24435578   3.409   1.445   4.823 -0.6656  0.5712 -0.0174
  118MOL   C24535579   3.340   1.570   4.821 -0.3818 -0.4300 -0.5558
  118MOL   C24635580   3.203   1.577   4.801  0.4139  0.2915 -0.1051
  118MOL   C24735581   3.136   1.459   4.785  0.3900  0.3857 -0.2049
  118MOL   C24835582   3.204   1.332   4.793 -0.4815 -0.4386 -0.2133
  118MOL   N24935583   3.343   1.332   4.804 -0.4116  0.1882  0.0737
  118MOL   H25035584   3.581   1.278   4.675 -1.2087 -0.0320  0.4029
  118MOL   H25135585   3.537   1.433   4.609  1.1740  1.1922 -1.2997
  118MOL   H25235586   3.601   1.532   4.831  1.2775 -0.9189  2.3833
  118MOL   H25335587   3.392   1.664   4.835  0.8860 -1.4255  1.6298
  118MOL   H25435588   3.144   1.668   4.803  0.1298  0.1317 -1.2263
  118MOL   H25535589   3.028   1.452   4.774  0.2409  0.9450  0.9128
  118MOL   H25635590   3.160   1.236   4.772 -5.0395  1.3424  0.6833
  118MOL   C25735591   3.617   1.338   4.933  1.3402  0.0272 -0.2567
  118MOL   C25835592   3.567   1.363   5.075 -0.0754 -0.1839  0.2960
  118MOL   C25935593   3.602   1.240   5.153 -0.0681 -0.0502 -0.0344
  118MOL   C26035594   3.504   1.162   5.214 -0.7221 -0.1037  0.2022
  118MOL   C26135595   3.540   1.065   5.302 -0.0173 -0.5207 -1.1461
  118MOL   C26235596   3.680   1.032   5.308 -0.0214 -0.5424 -0.2332
  118MOL   C26335597   3.771   1.107   5.232  0.2673 -0.2166 -0.4227
  118MOL   N26435598   3.733   1.213   5.161 -0.4265  0.2700 -0.2140
  118MOL   H26535599   3.726   1.332   4.934  1.2705 -1.2274  1.6626
  118MOL   H26635600   3.586   1.238   4.905  1.5030 -0.3084  0.7705
  118MOL   H26735601   3.459   1.363   5.084 -0.0943 -0.2056  0.0806
  118MOL   H26835602   3.397   1.179   5.207 -0.8763 -0.6148  1.2683
  118MOL   H26935603   3.475   1.003   5.361  1.4805 -2.3550 -1.3751
  118MOL   H27035604   3.705   0.939   5.357  2.6429 -0.0557 -0.6080
  118MOL   H27135605   3.876   1.083   5.238  0.9658  2.5228 -1.0403
  118MOL   C27235606   3.624   1.498   5.123 -0.3941 -0.2350 -0.3736
  118MOL   C27335607   3.585   1.565   5.262 -0.3982 -0.9456 -0.5282
  118MOL   C27435608   3.441   1.607   5.263 -0.1367  0.4443  0.3647
  118MOL   C27535609   3.401   1.736   5.231 -0.0193  0.4327  0.0501
  118MOL   C27635610   3.266   1.761   5.202 -0.0603  0.8360  0.5707
  118MOL   C27735611   3.170   1.653   5.193  0.3027 -0.2625  0.1045
  118MOL   C27835612   3.215   1.524   5.225 -0.0370  0.4366  0.5544
  118MOL   N27935613   3.346   1.502   5.269 -0.4296 -0.1389  0.2542
  118MOL   H28035614   3.606   1.577   5.051  0.7591  1.0018  0.6764
  118MOL   H28135615   3.731   1.481   5.137 -0.2663  1.9793  1.6339
  118MOL   H28235616   3.632   1.664   5.262  0.6543 -1.3775  3.4537
  118MOL   H28335617   3.470   1.819   5.241 -0.5276  0.6822  1.7184
  118MOL   H28435618   3.235   1.858   5.166  0.1175  0.7122  0.0804
  118MOL   H28535619   3.067   1.674   5.167 -0.2154 -2.7993 -0.0761
  118MOL   H28635620   3.147   1.443   5.247  0.4048 -0.5927 -1.7167
  118MOL   C28735621   3.632   1.490   5.392 -0.4531 -0.4831 -0.8408
  118MOL   C28835622   3.645   1.576   5.522 -0.5263  0.0586 -0.1507
  118MOL   C28935623   3.717   1.711   5.505 -0.1202  0.3814  0.0788
  118MOL   C29035624   3.853   1.717   5.503  0.0883  0.3133  0.4020
  118MOL   C29135625   3.916   1.836   5.504 -0.2569 -0.2317 -0.0041
  118MOL   C29235626   3.840   1.952   5.493 -0.1218 -0.2674 -0.0654
  118MOL   C29335627   3.703   1.942   5.492 -0.1195 -0.3903  0.9242
  118MOL   N29435628   3.637   1.822   5.497  0.3995  0.1398 -0.3938
  118MOL   H29535629   3.733   1.462   5.361 -0.0519 -0.5526  0.4858
  118MOL   H29635630   3.574   1.403   5.422 -1.9704  0.6722 -0.3450
  118MOL   H29735631   3.700   1.518   5.596 -1.3043  0.2392  0.5815
  118MOL   H29835632   3.912   1.628   5.514  0.8989  1.1950  3.7419
  118MOL   H29935633   4.024   1.840   5.505 -0.2691  0.8473 -1.7202
  118MOL   H30035634   3.884   2.051   5.495 -1.3777  0.3431 -1.2664
  118MOL   H30135635   3.634   2.024   5.507 -2.2845 -2.4554  2.7753
  118MOL   H30235636   3.549   1.599   5.567 -1.4983 -1.8744 -1.1869
  119MOL     C135637   1.835   5.874   3.050  0.2967 -0.0638 -0.0632
  119MOL     C235638   1.917   5.997   3.089 -0.3607 -0.5333 -0.1246
  119MOL     C335639   1.995   6.041   2.967  0.0499  0.0696  0.7348
  119MOL     C435640   2.134   6.023   2.951  0.8560  0.4893  0.1490
  119MOL     C535641   2.190   6.076   2.836  0.5104 -0.5377  0.2847
  119MOL     C635642   2.115   6.159   2.750 -0.1223  0.8669  0.6522
  119MOL     C735643   1.976   6.169   2.774 -0.1676 -0.2756 -0.2944
  119MOL     N835644   1.920   6.106   2.879  0.2553  1.0124  0.6135
  119MOL     H935645   1.774   5.827   3.127 -0.8272  1.9267  0.2825
  119MOL    H1035646   1.770   5.894   2.965  0.1661 -1.5680 -0.3488
  119MOL    H1135647   1.988   5.970   3.168  1.1680  2.9956 -0.2007
  119MOL    H1235648   2.192   5.969   3.024 -0.4468  3.4021  3.5123
  119MOL    H1335649   2.294   6.060   2.811  0.1288  0.4223 -2.0072
  119MOL    H1435650   2.158   6.219   2.671 -0.7004  1.1235  0.5382
  119MOL    H1535651   1.912   6.232   2.714  2.1481 -0.3359 -2.9142
  119MOL    H1635652   1.904   5.804   3.002  0.3122  1.9913 -3.1746
  119MOL    C1735653   1.829   6.107   3.144  0.1652  0.3041 -0.1866
  119MOL    C1835654   1.783   6.100   3.291  0.5608 -0.1505  0.1908
  119MOL    C1935655   1.901   6.094   3.393 -0.1621 -0.3087 -0.6424
  119MOL    C2035656   1.945   6.200   3.478  0.5293 -0.2849 -0.1856
  119MOL    C2135657   2.019   6.176   3.595  0.3852  0.4131 -0.0966
  119MOL    C2235658   2.057   6.045   3.626  0.3455  0.3405  0.4537
  119MOL    C2335659   2.020   5.948   3.536  0.2094  0.0384 -0.7835
  119MOL    N2435660   1.941   5.971   3.425  0.1745 -1.1479 -1.0457
  119MOL    H2535661   1.744   6.130   3.080 -1.2452 -2.9027  0.4700
  119MOL    H2635662   1.892   6.197   3.150 -0.0519  0.4877 -0.6052
  119MOL    H2735663   1.714   6.017   3.309  1.0450 -0.8034 -0.8636
  119MOL    H2835664   1.920   6.304   3.462 -1.6363 -0.6467  0.6681
  119MOL    H2935665   2.031   6.256   3.666 -0.2368 -0.4580  1.0090
  119MOL    H3035666   2.113   6.018   3.715 -2.0691 -0.6159  1.7346
  119MOL    H3135667   2.047   5.847   3.561 -1.0744  0.1503  1.2063
  119MOL    C3235668   1.689   6.213   3.341  0.2288 -0.0982  0.5893
  119MOL    C3335669   1.539   6.208   3.287  0.8967 -0.5112  0.1132
  119MOL    C3435670   1.458   6.093   3.339 -0.0569 -0.1185  0.2427
  119MOL    C3535671   1.467   6.032   3.468 -0.7453  0.4163  0.6161
  119MOL    C3635672   1.364   5.946   3.502  0.8558  0.1867 -0.3058
  119MOL    C3735673   1.264   5.919   3.418 -0.4385 -0.4826  0.6487
  119MOL    C3835674   1.269   5.973   3.285  0.1220  0.5556  0.1035
  119MOL    N3935675   1.364   6.059   3.248  0.3839 -0.6260  0.2206
  119MOL    H4035676   1.746   6.304   3.318 -0.2723 -0.0710 -0.5966
  119MOL    H4135677   1.675   6.216   3.449  0.4488 -2.0479  0.6788
  119MOL    H4235678   1.537   6.194   3.179 -1.2263 -0.1725  0.0713
  119MOL    H4335679   1.539   6.058   3.544  1.1524  0.3857 -1.1321
  119MOL    H4435680   1.357   5.890   3.594 -1.7844 -0.0634 -0.6175
  119MOL    H4535681   1.181   5.857   3.451 -0.6919 -0.4106  0.1507
  119MOL    H4635682   1.196   5.946   3.210 -0.8285  0.8646  0.9069
  119MOL    C4735683   1.448   6.330   3.326 -0.1645  0.1054 -0.4811
  119MOL    C4835684   1.490   6.465   3.277  0.0981  0.3925  0.5800
  119MOL    C4935685   1.549   6.463   3.136 -0.4463  0.5115 -0.2283
  119MOL    C5035686   1.686   6.500   3.111 -0.7098  0.3885 -0.8465
  119MOL    C5135687   1.732   6.486   2.982 -0.8533  0.0166  0.0672
  119MOL    C5235688   1.643   6.443   2.880 -0.3335 -0.2952 -0.0434
  119MOL    C5335689   1.516   6.407   2.916  0.2597  0.5533  0.0059
  119MOL    N5435690   1.462   6.419   3.042 -0.7781  0.1305  0.1698
  119MOL    H5535691   1.429   6.331   3.433  1.0602  0.1634 -0.2498
  119MOL    H5635692   1.355   6.310   3.274 -1.0677 -0.4108  1.2996
  119MOL    H5735693   1.557   6.509   3.351  1.1742 -0.2492  0.0051
  119MOL    H5835694   1.743   6.535   3.196 -1.6563 -0.3697  0.1247
  119MOL    H5935695   1.832   6.497   2.943 -0.0742 -1.0287  1.7390
  119MOL    H6035696   1.671   6.419   2.778  0.1480  1.9520 -0.4657
  119MOL    H6135697   1.443   6.376   2.842 -0.2244 -1.9788  1.4614
  119MOL    C6235698   1.370   6.568   3.276 -1.2127  0.1952 -0.4484
  119MOL    C6335699   1.293   6.581   3.409 -0.6184  0.5735  0.1285
  119MOL    C6435700   1.383   6.632   3.516  0.9645  0.1011 -0.0964
  119MOL    C6535701   1.417   6.549   3.622 -0.0987 -0.2450 -0.1888
  119MOL    C6635702   1.517   6.592   3.712  0.1881  0.3980 -0.3194
  119MOL    C6735703   1.579   6.712   3.688  0.0648  0.2264  0.1051
  119MOL    C6835704   1.531   6.797   3.584  0.3820 -0.0017 -0.9653
  119MOL    N6935705   1.435   6.757   3.495  0.0795  0.3898  0.2653
  119MOL    H7035706   1.294   6.545   3.202 -3.5638  1.1399  1.6081
  119MOL    H7135707   1.400   6.671   3.255 -1.9994  0.6233  0.5237
  119MOL    H7235708   1.262   6.479   3.428 -0.4226  0.4513 -0.2021
  119MOL    H7335709   1.368   6.454   3.641  0.5282 -0.2641  1.4026
  119MOL    H7435710   1.543   6.522   3.790  0.8626  1.4458  0.4014
  119MOL    H7535711   1.667   6.748   3.740 -0.1004  0.6472  0.0997
  119MOL    H7635712   1.579   6.892   3.570 -0.8432  0.6877 -0.6167
  119MOL    C7735713   1.161   6.665   3.401 -0.3175 -0.6487  0.1346
  119MOL    C7835714   1.053   6.619   3.295 -0.9738  0.1603  0.0107
  119MOL    C7935715   1.043   6.469   3.288  0.2002 -0.6547  0.4519
  119MOL    C8035716   1.041   6.400   3.165 -0.5904 -0.4840 -0.3745
  119MOL    C8135717   1.042   6.267   3.154 -0.1756  0.3997 -0.3069
  119MOL    C8235718   1.041   6.197   3.276 -0.2937 -0.3606  0.0086
  119MOL    C8335719   1.024   6.267   3.396  0.7140  0.5207  0.3682
  119MOL    N8435720   1.015   6.399   3.395  0.1569  0.0426  0.2006
  119MOL    H8535721   1.192   6.768   3.389 -1.8617 -0.1956 -0.1003
  119MOL    H8635722   1.125   6.684   3.503 -0.7481 -1.8289  0.2117
  119MOL    H8735723   1.087   6.641   3.194  2.1245  2.0550  1.3607
  119MOL    H8835724   1.044   6.458   3.074  1.5016  1.1285  0.6839
  119MOL    H8935725   1.031   6.210   3.063  0.1826 -1.6088  0.8744
  119MOL    H9035726   1.047   6.089   3.277 -1.3625 -0.4307 -0.2463
  119MOL    H9135727   1.021   6.215   3.491 -2.6988  2.6157  1.4808
  119MOL    C9235728   0.914   6.669   3.329  0.4613 -0.4998 -0.0445
  119MOL    C9335729   0.894   6.821   3.286 -0.0100  0.0863 -0.2766
  119MOL    C9435730   0.941   6.847   3.137  0.0127  0.5112 -0.6385
  119MOL    C9535731   1.049   6.934   3.124 -0.2537 -0.4072 -0.0374
  119MOL    C9635732   1.083   6.973   2.991  0.3791 -0.2142 -0.0788
  119MOL    C9735733   1.017   6.912   2.884 -0.0578  0.2758 -0.6098
  119MOL    C9835734   0.913   6.823   2.907  0.1055 -0.3718 -0.4373
  119MOL    N9935735   0.871   6.791   3.034 -0.2289 -0.1857 -0.1793
  119MOL   H10035736   0.879   6.655   3.431 -3.4803 -2.5333 -1.5664
  119MOL   H10135737   0.848   6.612   3.265  0.5150 -1.9863  1.2102
  119MOL   H10235738   0.966   6.867   3.354  1.9101 -1.8615 -0.9428
  119MOL   H10335739   1.087   6.980   3.213  1.5459  1.6448 -1.7958
  119MOL   H10435740   1.167   7.039   2.973  0.4705 -1.2511 -3.9133
  119MOL   H10535741   1.050   6.951   2.788  0.7671  2.2537  0.4455
  119MOL   H10635742   0.846   6.793   2.828  0.2738 -0.2468 -0.6287
  119MOL   C10735743   0.757   6.890   3.309 -0.1182  0.0032  0.4504
  119MOL   C10835744   0.714   6.900   3.463  0.4440  0.4009 -0.2373
  119MOL   C10935745   0.819   6.968   3.542 -0.7678 -0.1043  0.0119
  119MOL   C11035746   0.892   6.894   3.640 -0.0075  0.5018 -0.4939
  119MOL   C11135747   0.990   6.958   3.719  0.3442 -0.2741  0.6160
  119MOL   C11235748   1.015   7.094   3.694  0.1821  0.4565  0.4228
  119MOL   C11335749   0.954   7.157   3.580  0.4033 -0.3468  0.3727
  119MOL   N11435750   0.847   7.097   3.522 -0.5811  0.6243  0.7676
  119MOL   H11535751   0.683   6.839   3.247 -1.2689  0.9361  1.0520
  119MOL   H11635752   0.745   6.990   3.268  0.5180 -0.1066 -0.0202
  119MOL   H11735753   0.699   6.798   3.499  1.6945  1.4057  3.2337
  119MOL   H11835754   0.881   6.788   3.656 -1.9342  0.8606  0.7630
  119MOL   H11935755   1.028   6.915   3.811  1.1513 -1.2220 -0.1629
  119MOL   H12035756   1.089   7.148   3.751  0.0943  0.0759  0.9045
  119MOL   H12135757   0.967   7.262   3.556  2.1009 -0.4660  0.7063
  119MOL   C12235758   0.574   6.955   3.491 -0.7086  0.1261  1.0265
  119MOL   C12335759   0.528   6.944   3.639  0.5595 -0.3005  0.0676
  119MOL   C12435760   0.523   7.067   3.718  0.3927  0.0208 -0.1097
  119MOL   C12535761   0.595   7.073   3.843  0.2232 -0.2601  0.3577
  119MOL   C12635762   0.582   7.188   3.921  0.3545  0.8699 -0.5698
  119MOL   C12735763   0.507   7.297   3.877 -0.1558  0.4695 -0.0118
  119MOL   C12835764   0.441   7.281   3.755 -0.0777  0.0633  0.1681
  119MOL   N12935765   0.452   7.172   3.675 -0.2832 -0.7790  0.5967
  119MOL   H13035766   0.497   6.904   3.434  0.6627  0.5176 -1.2439
  119MOL   H13135767   0.566   7.058   3.456 -0.4606 -0.1780  0.0459
  119MOL   H13235768   0.601   6.880   3.688  0.8766  0.0339  0.0290
  119MOL   H13335769   0.657   6.995   3.884 -0.0356  0.8306  2.9707
  119MOL   H13435770   0.630   7.191   4.018 -1.3023  0.0739  0.2933
  119MOL   H13535771   0.500   7.381   3.944  0.8467 -1.4208  2.5161
  119MOL   H13635772   0.376   7.363   3.728  0.5846  1.0491  1.5536
  119MOL   C13735773   0.390   6.866   3.663 -0.4835  0.2511 -0.4586
  119MOL   C13835774   0.380   6.714   3.628  0.1872  0.4610 -0.6637
  119MOL   C13935775   0.517   6.644   3.624 -0.4124  1.0612 -0.5789
  119MOL   C14035776   0.553   6.573   3.509 -0.1509  0.1423  0.1735
  119MOL   C14135777   0.664   6.493   3.505  0.0209 -0.3545  0.2086
  119MOL   C14235778   0.748   6.496   3.618 -0.6268  0.7694 -0.4223
  119MOL   C14335779   0.714   6.581   3.723 -0.3580 -0.3652 -0.4713
  119MOL   N14435780   0.595   6.643   3.736  0.3142  0.0062  0.7447
  119MOL   H14535781   0.307   6.915   3.613  1.2819  2.1219 -1.6754
  119MOL   H14635782   0.362   6.881   3.767 -0.3561  0.5571 -0.4671
  119MOL   H14735783   0.336   6.719   3.528  1.1919  1.3043 -1.0775
  119MOL   H14835784   0.484   6.571   3.425  1.5114  1.0642 -1.2460
  119MOL   H14935785   0.688   6.442   3.413 -0.6898 -0.9764  0.3644
  119MOL   H15035786   0.831   6.427   3.630 -1.3546 -0.0707 -0.1940
  119MOL   H15135787   0.781   6.598   3.806 -0.9931  2.4384 -0.4556
  119MOL   C15235788   0.284   6.632   3.719  0.6310 -0.4746  0.5606
  119MOL   C15335789   0.132   6.665   3.706 -0.1688  0.7590  0.6399
  119MOL   C15435790   0.071   6.637   3.569 -0.1242  0.4161  0.1447
  119MOL   C15535791   0.013   6.742   3.490  0.8533  0.4929  0.7022
  119MOL   C15635792   8.127   6.720   3.358 -0.9349 -0.1458  0.7107
  119MOL   C15735793   8.128   6.581   3.314  0.3792  0.1451 -0.6113
  119MOL   C15835794   0.011   6.480   3.409 -0.4785 -0.1215  0.3197
  119MOL   N15935795   0.067   6.507   3.529 -0.5076 -0.1810 -0.2465
  119MOL   H16035796   0.322   6.643   3.821  0.9532 -1.4688  0.5524
  119MOL   H16135797   0.288   6.527   3.688 -1.1717 -0.1774 -0.7377
  119MOL   H16235798   0.127   6.774   3.716  0.3203  0.7978  0.4815
  119MOL   H16335799   0.012   6.845   3.525  1.7466  1.3579 -1.6836
  119MOL   H16435800   8.093   6.795   3.288 -1.3305 -1.2744 -0.3244
  119MOL   H16535801   8.093   6.553   3.216 -1.0696 -0.5960  0.1134
  119MOL   H16635802   0.029   6.380   3.372  0.3212 -0.6361  2.0546
  119MOL   C16735803   0.047   6.599   3.823  0.0453  0.3642 -0.2587
  119MOL   C16835804   0.024   6.684   3.953 -0.0720  0.0826  0.1973
  119MOL   C16935805   0.034   6.836   3.925  1.1472 -0.6429 -0.2872
  119MOL   C17035806   8.082   6.910   3.855 -0.0775  0.2834 -0.6778
  119MOL   C17135807   8.105   7.045   3.826  0.0613 -0.3929  0.0231
  119MOL   C17235808   0.068   7.110   3.866  0.1113  0.4160 -0.4631
  119MOL   C17335809   0.158   7.027   3.942 -0.3757  0.0374 -0.0115
  119MOL   N17435810   0.146   6.896   3.964  0.0297 -0.2279 -0.3111
  119MOL   H17535811   0.093   6.505   3.853  0.7944  0.3189 -1.5485
  119MOL   H17635812   8.098   6.589   3.782 -0.6055  1.7164  0.9501
  119MOL   H17735813   0.114   6.657   4.009 -0.7696  0.6544  1.6327
  119MOL   H17835814   7.989   6.858   3.841 -0.6985  1.1828  0.1131
  119MOL   H17935815   8.025   7.095   3.773  1.0093  1.6247  0.4569
  119MOL   H18035816   0.091   7.210   3.832 -2.3793  0.9918 -0.5527
  119MOL   H18135817   0.256   7.066   3.966 -0.5635 -0.2824  1.2731
  119MOL   C18235818   8.045   6.643   4.025 -0.5818 -0.0425 -1.0434
  119MOL   C18335819   8.028   6.657   4.182 -0.6756 -0.0368 -0.0242
  119MOL   C18435820   8.092   6.781   4.234 -0.1250 -0.1904  0.4947
  119MOL   C18535821   0.058   6.762   4.312 -0.3736 -0.2827 -0.3694
  119MOL   C18635822   0.115   6.875   4.364  0.6495  0.6158 -0.1910
  119MOL   C18735823   0.066   7.000   4.333  0.5215  0.6045  0.0482
  119MOL   C18835824   8.114   7.008   4.240 -0.7763 -0.2574  0.5025
  119MOL   N18935825   8.045   6.901   4.201 -0.7539 -0.0443 -0.0168
  119MOL   H19035826   8.025   6.537   4.012 -0.7224 -0.4127  1.7678
  119MOL   H19135827   7.955   6.689   3.984 -0.5652 -0.8063 -1.9316
  119MOL   H19235828   8.081   6.575   4.229  0.1969 -0.1384 -1.1629
  119MOL   H19335829   0.100   6.665   4.336 -1.0425 -0.2799  0.8480
  119MOL   H19435830   0.192   6.871   4.439  1.3109 -1.4003 -0.9208
  119MOL   H19535831   0.101   7.088   4.385 -0.2045  1.4318 -0.8361
  119MOL   H19635832   8.074   7.103   4.207  1.9666  0.9728  0.5674
  119MOL   C19735833   7.880   6.658   4.227  0.4480  0.9991  0.0864
  119MOL   C19835834   7.810   6.525   4.197 -0.0450 -0.1246 -0.3447
  119MOL   C19935835   7.871   6.410   4.274 -0.4922 -0.6428 -0.6326
  119MOL   C20035836   7.899   6.288   4.204  0.3921 -0.0427  0.8733
  119MOL   C20135837   7.939   6.178   4.281  0.0974  0.6101  0.2962
  119MOL   C20235838   7.946   6.187   4.419  0.2256  0.5815  0.5324
  119MOL   C20335839   7.903   6.310   4.476 -0.1784  0.2156 -0.6574
  119MOL   N20435840   7.867   6.417   4.404  0.0614 -1.0412 -0.6506
  119MOL   H20535841   7.829   6.743   4.182 -1.6524 -0.6070 -0.6322
  119MOL   H20635842   7.861   6.677   4.333 -1.2036  0.6066 -0.1230
  119MOL   H20735843   7.816   6.510   4.089 -1.0143  0.5723 -0.4994
  119MOL   H20835844   7.901   6.280   4.096 -0.0924  0.7154  0.8015
  119MOL   H20935845   7.959   6.078   4.247  2.8241  1.0648  0.4457
  119MOL   H21035846   7.970   6.103   4.482  1.1626  0.3715 -0.1018
  119MOL   H21135847   7.909   6.318   4.584  2.0463 -1.4771 -0.6048
  119MOL   C21235848   7.664   6.528   4.226 -0.3117  0.2273 -0.8972
  119MOL   C21335849   7.573   6.399   4.208  0.4876 -0.0376  0.4680
  119MOL   C21435850   7.430   6.411   4.250  0.3201 -0.0432  0.1436
  119MOL   C21535851   7.375   6.322   4.339  0.3790  0.4087  0.1511
  119MOL   C21635852   7.239   6.323   4.365  0.4066 -0.1759  0.3250
  119MOL   C21735853   7.162   6.423   4.294  0.0070  0.3273 -0.2159
  119MOL   C21835854   7.220   6.525   4.216  0.3145  0.3490  0.6413
  119MOL   N21935855   7.356   6.511   4.193 -0.3861  0.0346 -0.7255
  119MOL   H22035856   7.615   6.615   4.181  1.3120  2.7556  2.0433
  119MOL   H22135857   7.669   6.563   4.329  0.4402  2.2426 -1.5890
  119MOL   H22235858   7.616   6.322   4.272 -1.0029 -0.5739  0.8454
  119MOL   H22335859   7.441   6.252   4.388  0.8203  0.9065  0.2796
  119MOL   H22435860   7.195   6.253   4.435  1.8101 -0.3406  1.0532
  119MOL   H22535861   7.055   6.432   4.311 -0.1625 -0.9975 -0.5145
  119MOL   H22635862   7.167   6.603   4.162  0.4812  0.2600  0.3469
  119MOL   C22735863   7.586   6.347   4.064  0.6066  0.1246  0.4353
  119MOL   C22835864   7.505   6.217   4.025  0.2014  0.2045 -0.4455
  119MOL   C22935865   7.510   6.194   3.874 -0.2043 -0.0410 -1.0771
  119MOL   C23035866   7.422   6.263   3.787 -0.1087  0.5349  0.0119
  119MOL   C23135867   7.435   6.243   3.645 -0.1460  0.7049 -0.4618
  119MOL   C23235868   7.532   6.154   3.602 -0.6035 -0.4130 -0.6649
  119MOL   C23335869   7.612   6.085   3.692 -0.3318  0.1576 -0.3732
  119MOL   N23435870   7.607   6.108   3.828 -0.2732  0.3510  0.9796
  119MOL   H23535871   7.688   6.346   4.027  0.7004  0.7677  0.6761
  119MOL   H23635872   7.540   6.421   3.998  0.7366  0.8820  1.1833
  119MOL   H23735873   7.402   6.240   4.049  0.4481 -0.3801  1.2276
  119MOL   H23835874   7.347   6.333   3.822 -1.3366 -1.7690  2.1124
  119MOL   H23935875   7.374   6.300   3.576  0.0582 -0.7408 -1.8908
  119MOL   H24035876   7.557   6.144   3.497  0.7104 -2.4108 -0.1965
  119MOL   H24135877   7.693   6.019   3.666 -0.3054 -0.3101  0.8427
  119MOL   C24235878   7.536   6.093   4.103  0.1504 -0.5288 -0.2835
  119MOL   C24335879   7.418   5.994   4.105 -0.2976 -1.3883  0.7561
  119MOL   C24435880   7.458   5.853   4.157  0.2168 -0.4478 -0.3369
  119MOL   C24535881   7.429   5.743   4.074 -0.7055  0.4470  0.5768
  119MOL   C24635882   7.447   5.611   4.129 -0.0459 -0.6098  0.2253
  119MOL   C24735883   7.503   5.603   4.256  0.1706 -0.4526  0.1569
  119MOL   C24835884   7.520   5.722   4.331  0.1668 -0.7355  0.3069
  119MOL   N24935885   7.502   5.847   4.280  0.3043 -0.7410  0.4252
  119MOL   H25035886   7.563   6.111   4.207 -2.4105 -1.7892  0.6463
  119MOL   H25135887   7.620   6.041   4.056  0.4790 -1.1228  0.9623
  119MOL   H25235888   7.394   5.975   4.000 -1.0929  0.2884  0.6181
  119MOL   H25335889   7.383   5.753   3.976 -2.7707 -1.3095  1.3106
  119MOL   H25435890   7.430   5.525   4.067 -0.9223 -0.4502  0.2384
  119MOL   H25535891   7.527   5.512   4.309  0.2537 -0.2415  0.4868
  119MOL   H25635892   7.567   5.726   4.428  0.1354 -0.2966  0.3058
  119MOL   C25735893   7.280   6.029   4.168  0.2289 -0.0862 -0.4401
  119MOL   C25835894   7.154   5.956   4.117  0.0759 -0.2176  0.1176
  119MOL   C25935895   7.078   5.901   4.237 -0.1053 -0.8867  0.2625
  119MOL   C26035896   7.066   5.763   4.260  0.5917  0.2956  0.1837
  119MOL   C26135897   7.005   5.724   4.380 -0.8462  0.0504 -0.6138
  119MOL   C26235898   6.966   5.818   4.472  0.7515  0.4301 -0.6698
  119MOL   C26335899   6.979   5.955   4.438  0.0353  0.1652 -0.0356
  119MOL   N26435900   7.030   5.996   4.322 -0.3801 -0.2377  0.2382
  119MOL   H26535901   7.260   6.135   4.161 -0.8764 -0.1913  1.0062
  119MOL   H26635902   7.289   6.017   4.276  1.2404 -0.6510 -0.5794
  119MOL   H26735903   7.183   5.863   4.067  0.6365  1.2572 -2.3820
  119MOL   H26835904   7.098   5.693   4.185 -1.2299 -0.3327 -0.0292
  119MOL   H26935905   6.989   5.620   4.404  0.2316 -0.7218 -3.0839
  119MOL   H27035906   6.923   5.789   4.566  1.7485  0.2424 -0.2650
  119MOL   H27135907   6.963   6.031   4.514 -1.0070  0.9624 -1.0256
  119MOL   C27235908   7.064   6.042   4.016  0.1950  0.7045 -0.2286
  119MOL   C27335909   7.113   6.063   3.869 -0.0095  0.4102  0.2215
  119MOL   C27435910   7.175   5.931   3.810 -0.4674 -0.2367  0.3100
  119MOL   C27535911   7.300   5.930   3.753 -0.1943  0.7907  0.5814
  119MOL   C27635912   7.344   5.812   3.696  0.0997  0.1025 -0.1635
  119MOL   C27735913   7.256   5.704   3.685  0.6536  0.8423  0.1520
  119MOL   C27835914   7.135   5.715   3.747 -0.9381  0.6931 -0.0782
  119MOL   N27935915   7.092   5.825   3.806 -0.0560 -0.0799  0.4888
  119MOL   H28035916   7.048   6.136   4.070 -0.1886  0.4063  0.1831
  119MOL   H28135917   6.969   5.989   4.018  1.0631 -0.8310  1.3671
  119MOL   H28235918   7.195   6.134   3.879  0.7668 -0.4512 -0.0027
  119MOL   H28335919   7.361   6.019   3.757  1.2247 -0.1772  0.9347
  119MOL   H28435920   7.447   5.806   3.664  0.0447 -1.1077 -0.1359
  119MOL   H28535921   7.289   5.613   3.637  0.9514 -0.6927  3.1455
  119MOL   H28635922   7.068   5.631   3.738 -0.8649  0.6063  0.1983
  119MOL   C28735923   7.016   6.133   3.776  0.2002  0.3076 -0.1135
  119MOL   C28835924   7.060   6.134   3.632  0.3185 -0.1281 -0.1321
  119MOL   C28935925   6.981   6.207   3.537  0.0399 -0.1097  0.6271
  119MOL   C29035926   6.890   6.145   3.446  0.0735 -0.2050 -0.4488
  119MOL   C29135927   6.839   6.224   3.335 -0.1231 -0.0148 -0.2486
  119MOL   C29235928   6.880   6.356   3.330 -0.3060  0.0379 -0.8226
  119MOL   C29335929   6.943   6.416   3.436 -0.8214 -0.2831  0.0403
  119MOL   N29435930   6.999   6.344   3.537  0.1684 -0.5058  0.3071
  119MOL   H29535931   7.008   6.230   3.826  0.2779  1.2564 -1.9273
  119MOL   H29635932   6.918   6.085   3.778  0.0286  0.6933  2.1398
  119MOL   H29735933   7.055   6.028   3.607 -0.1586  0.2985 -1.9107
  119MOL   H29835934   6.886   6.037   3.446 -0.4553 -0.1878 -0.6729
  119MOL   H29935935   6.785   6.190   3.247  1.0388 -0.4138 -0.8163
  119MOL   H30035936   6.849   6.420   3.249 -1.1227  1.1016  0.3153
  119MOL   H30135937   6.956   6.523   3.434 -2.1816 -0.1451 -2.7759
  119MOL   H30235938   7.162   6.173   3.635 -0.6139  2.4549 -1.2229
  120MOL     C135939   4.181   6.883   3.744  0.2804 -0.1013 -0.1666
  120MOL     C235940   4.191   6.961   3.882  0.0650 -0.1312  0.0268
  120MOL     C335941   4.077   7.062   3.905  0.3003 -0.3643  0.3653
  120MOL     C435942   4.106   7.199   3.893 -0.5807 -0.2624 -0.4210
  120MOL     C535943   4.003   7.288   3.909  0.3338 -0.2118  1.0535
  120MOL     C635944   3.874   7.243   3.943  0.0008 -0.4204 -0.6535
  120MOL     C735945   3.852   7.105   3.948  0.0532 -0.0102 -0.5842
  120MOL     N835946   3.951   7.013   3.919  0.6305  0.2956 -0.1429
  120MOL     H935947   4.099   6.811   3.740  0.2713 -0.1087  0.1852
  120MOL    H1035948   4.154   6.957   3.668 -2.3076 -0.4663  0.3423
  120MOL    H1135949   4.283   7.017   3.865  0.7171 -1.5088 -1.1382
  120MOL    H1235950   4.204   7.240   3.876 -1.4284  1.1399 -2.0337
  120MOL    H1335951   4.024   7.393   3.893  0.0008 -0.4947 -1.3744
  120MOL    H1435952   3.792   7.313   3.955 -0.9161 -1.7578  1.0998
  120MOL    H1535953   3.756   7.060   3.964  0.3357 -1.3858 -2.5656
  120MOL    H1635954   4.277   6.838   3.721 -0.0431 -0.9889  0.1963
  120MOL    C1735955   4.212   6.867   3.998  0.3373 -0.4505  0.1364
  120MOL    C1835956   4.345   6.786   4.001 -0.0749 -0.3266 -0.9879
  120MOL    C1935957   4.475   6.869   3.981 -0.6697 -0.3742 -0.0175
  120MOL    C2035958   4.575   6.820   3.897 -0.2758 -0.0773  0.5057
  120MOL    C2135959   4.699   6.884   3.890  0.2364  0.0705  0.1657
  120MOL    C2235960   4.721   6.993   3.979  0.7130 -0.8548 -0.0494
  120MOL    C2335961   4.615   7.044   4.055  0.1798  0.0182 -0.8749
  120MOL    N2435962   4.494   6.984   4.057  0.5069  0.0215  0.1718
  120MOL    H2535963   4.125   6.804   4.016 -1.8986  2.4283 -0.2109
  120MOL    H2635964   4.225   6.942   4.076  1.1739 -1.6529  1.1567
  120MOL    H2735965   4.342   6.701   3.933 -1.5362 -2.1152  1.2416
  120MOL    H2835966   4.562   6.730   3.839  0.0693 -1.7515  2.9864
  120MOL    H2935967   4.778   6.851   3.824 -0.2115 -3.4598  1.2759
  120MOL    H3035968   4.814   7.046   3.969  0.9748 -1.3859 -0.4242
  120MOL    H3135969   4.618   7.129   4.121 -1.8430 -1.7262  1.6051
  120MOL    C3235970   4.362   6.702   4.128  0.4706 -0.3175 -0.1840
  120MOL    C3335971   4.259   6.586   4.156 -0.7184  0.4283 -0.0261
  120MOL    C3435972   4.320   6.449   4.185 -0.3290 -0.3945  0.3767
  120MOL    C3535973   4.308   6.339   4.097 -0.1502  0.2273 -0.4412
  120MOL    C3635974   4.366   6.215   4.139  0.0887 -0.2731  0.1036
  120MOL    C3735975   4.434   6.208   4.263  0.6230 -0.1634 -0.9011
  120MOL    C3835976   4.447   6.324   4.335  0.7331  0.6656 -0.9001
  120MOL    N3935977   4.396   6.442   4.297  0.3746 -0.1463 -0.5781
  120MOL    H4035978   4.376   6.764   4.216 -0.4080  0.6608 -0.7335
  120MOL    H4135979   4.456   6.646   4.122  0.6439 -0.4181  2.5895
  120MOL    H4235980   4.218   6.570   4.056 -0.8193 -2.1929  0.4065
  120MOL    H4335981   4.247   6.338   4.008  1.1286 -1.8875 -1.3514
  120MOL    H4435982   4.356   6.130   4.074  4.4744 -1.2395  0.5807
  120MOL    H4535983   4.468   6.113   4.303  0.1221 -0.7384 -1.8283
  120MOL    H4635984   4.496   6.336   4.431 -0.0683  0.7182 -0.5005
  120MOL    C4735985   4.143   6.629   4.246  0.9752  0.5279  0.2660
  120MOL    C4835986   4.001   6.566   4.237 -0.5457  0.4690 -0.1899
  120MOL    C4935987   3.924   6.565   4.366 -0.1984 -0.5229 -0.0899
  120MOL    C5035988   3.909   6.449   4.445 -0.5695 -1.0781 -0.1183
  120MOL    C5135989   3.830   6.451   4.562  0.0727 -0.1876 -0.6645
  120MOL    C5235990   3.784   6.574   4.605 -0.4318  0.7731  0.0042
  120MOL    C5335991   3.815   6.688   4.527 -0.0079 -0.4446 -0.0791
  120MOL    N5435992   3.875   6.684   4.406 -0.6312  0.5423  0.3757
  120MOL    H5535993   4.124   6.736   4.242  0.8411  0.6132  2.7999
  120MOL    H5635994   4.175   6.609   4.348 -0.8527 -2.8070  0.2660
  120MOL    H5735995   4.013   6.458   4.229  0.0648  0.6677 -2.0933
  120MOL    H5835996   3.955   6.356   4.416  0.1974 -0.9222  0.5576
  120MOL    H5935997   3.829   6.364   4.626  1.3624  0.8250  0.7600
  120MOL    H6035998   3.723   6.569   4.694 -1.8377 -1.2587 -1.0430
  120MOL    H6135999   3.774   6.784   4.550  1.2454 -0.2640  1.4822
  120MOL    C6236000   3.922   6.604   4.109  0.1726 -0.4839 -0.0829
  120MOL    C6336001   3.777   6.558   4.099  0.3000  0.1184 -0.7280
  120MOL    C6436002   3.701   6.650   3.999 -0.1421  0.4135 -0.2850
  120MOL    C6536003   3.599   6.740   4.040  1.1910  0.0290  0.0790
  120MOL    C6636004   3.537   6.824   3.942  0.2990  0.7976 -0.2135
  120MOL    C6736005   3.585   6.814   3.810  0.0567 -0.0193 -0.1868
  120MOL    C6836006   3.686   6.726   3.784  0.7059 -0.3118 -0.1915
  120MOL    N6936007   3.740   6.641   3.872  0.1213  0.0909  0.5973
  120MOL    H7036008   3.976   6.579   4.018 -1.0109 -0.5601 -0.7834
  120MOL    H7136009   3.917   6.711   4.128 -0.9545 -0.8998  2.2237
  120MOL    H7236010   3.725   6.563   4.195  0.6996 -1.1050 -0.4371
  120MOL    H7336011   3.549   6.750   4.135 -0.5411 -2.8842 -0.4616
  120MOL    H7436012   3.454   6.889   3.965  1.9835  3.2100 -0.7826
  120MOL    H7536013   3.536   6.861   3.727  1.8484  0.7863 -0.8186
  120MOL    H7636014   3.721   6.724   3.681  0.0852 -2.4700 -0.3800
  120MOL    C7736015   3.763   6.411   4.062 -0.3038  0.6222  0.9504
  120MOL    C7836016   3.631   6.343   4.100  0.6201  0.6666  0.3769
  120MOL    C7936017   3.606   6.229   4.010 -0.5251 -0.5835  0.7300
  120MOL    C8036018   3.502   6.236   3.908  0.0878 -0.2284  0.0454
  120MOL    C8136019   3.497   6.132   3.806  0.3103 -0.0336 -0.0444
  120MOL    C8236020   3.597   6.034   3.817  0.6736 -0.6918 -0.1763
  120MOL    C8336021   3.695   6.040   3.920  0.3361  0.1788 -0.3069
  120MOL    N8436022   3.693   6.133   4.015  0.4010  0.4776  0.1977
  120MOL    H8536023   3.844   6.362   4.115  1.1385  1.1528 -0.7166
  120MOL    H8636024   3.780   6.402   3.954 -1.7529  2.8412  0.5008
  120MOL    H8736025   3.555   6.417   4.075  1.7516  1.1611 -1.7283
  120MOL    H8836026   3.425   6.311   3.897  1.8561  1.8470  1.4783
  120MOL    H8936027   3.423   6.124   3.728  1.3645 -0.0700 -1.0687
  120MOL    H9036028   3.598   5.945   3.756  0.7568 -0.2855 -0.7739
  120MOL    H9136029   3.779   5.973   3.933 -0.7559 -1.0314  0.6840
  120MOL    C9236030   3.611   6.304   4.250  0.4356  0.2682 -0.0451
  120MOL    C9336031   3.476   6.229   4.297 -0.0996  0.6293  0.2601
  120MOL    C9436032   3.510   6.167   4.433  0.0020  0.0883 -0.8067
  120MOL    C9536033   3.518   6.025   4.447  0.1693 -0.0050  0.3122
  120MOL    C9636034   3.562   5.966   4.567  0.5832  0.4527 -0.6321
  120MOL    C9736035   3.596   6.053   4.671  0.2477  0.5884 -0.1230
  120MOL    C9836036   3.584   6.191   4.657  0.3666  0.0888 -0.3854
  120MOL    N9936037   3.541   6.247   4.542 -0.3619 -0.1543  0.4269
  120MOL   H10036038   3.643   6.382   4.319  0.1889 -0.4769  0.9364
  120MOL   H10136039   3.697   6.238   4.259 -0.9266 -1.7937 -1.6318
  120MOL   H10236040   3.463   6.158   4.216  2.0497 -2.0240  2.1624
  120MOL   H10336041   3.498   5.965   4.359 -1.5033 -2.1828  2.1358
  120MOL   H10436042   3.563   5.859   4.580  2.2544  0.7662  2.1074
  120MOL   H10536043   3.634   6.001   4.758 -1.9121  0.0752  0.5496
  120MOL   H10636044   3.602   6.259   4.738  0.5064 -1.3958  0.8457
  120MOL   C10736045   3.356   6.329   4.301 -0.5370  0.5476  0.5293
  120MOL   C10836046   3.227   6.277   4.230  0.1472 -0.0358  0.0999
  120MOL   C10936047   3.192   6.135   4.258 -0.5751  0.0403 -0.3650
  120MOL   C11036048   3.240   6.021   4.180 -0.2413  0.7820  0.2064
  120MOL   C11136049   3.214   5.894   4.226 -0.5079  0.2640 -0.0395
  120MOL   C11236050   3.146   5.884   4.349 -0.7989  0.5348 -0.3495
  120MOL   C11336051   3.098   5.997   4.417  0.6431 -0.5087  0.0026
  120MOL   N11436052   3.131   6.124   4.378 -0.2558 -0.1998 -0.1456
  120MOL   H11536053   3.381   6.422   4.252  1.4624  0.3815  1.2200
  120MOL   H11636054   3.322   6.353   4.402 -2.1105 -1.4560  0.5217
  120MOL   H11736055   3.258   6.273   4.126 -1.3157 -0.9318 -0.3244
  120MOL   H11836056   3.306   6.039   4.097 -0.2034  2.8860  0.6629
  120MOL   H11936057   3.252   5.806   4.176  1.4257  0.3877  1.1581
  120MOL   H12036058   3.143   5.784   4.390 -1.1257  0.3553 -0.8135
  120MOL   H12136059   3.052   5.986   4.515  1.5639  0.9626  0.6189
  120MOL   C12236060   3.105   6.372   4.227 -0.4760 -1.0317 -0.9380
  120MOL   C12336061   3.137   6.506   4.152  0.4242  0.3315  0.1590
  120MOL   C12436062   3.178   6.486   4.010  0.1769 -0.1826  0.1009
  120MOL   C12536063   3.121   6.393   3.919  0.5743 -0.5111  1.1846
  120MOL   C12636064   3.166   6.381   3.788 -0.2255 -0.2314  0.5818
  120MOL   C12736065   3.272   6.470   3.756 -0.0766  0.4368  0.6430
  120MOL   C12836066   3.327   6.556   3.846 -0.0586 -0.0848  0.1609
  120MOL   N12936067   3.280   6.566   3.971  0.5999  0.2875  0.0845
  120MOL   H13036068   3.067   6.393   4.327 -2.9112 -0.9402 -1.8513
  120MOL   H13136069   3.010   6.327   4.200 -1.2299  1.2747 -2.2809
  120MOL   H13236070   3.222   6.553   4.201  0.3950  0.0877  0.4468
  120MOL   H13336071   3.041   6.327   3.951 -0.1869 -1.0747 -1.7076
  120MOL   H13436072   3.124   6.313   3.715  0.4809 -0.2897  0.2210
  120MOL   H13536073   3.315   6.475   3.657 -0.5370  1.2875  0.4805
  120MOL   H13636074   3.411   6.621   3.823  0.0468 -0.0037  0.7684
  120MOL   C13736075   3.007   6.601   4.150 -0.3417 -0.3694  0.4298
  120MOL   C13836076   3.026   6.731   4.237  0.1735 -0.6157 -0.2759
  120MOL   C13936077   2.977   6.866   4.182  0.7934 -0.2612  0.2030
  120MOL   C14036078   3.068   6.969   4.156  0.1302 -0.8473  0.4990
  120MOL   C14136079   3.017   7.096   4.130 -0.0968  0.3092 -0.5409
  120MOL   C14236080   2.881   7.112   4.129 -0.0913 -0.5843 -0.2858
  120MOL   C14336081   2.794   7.006   4.149  0.6691 -0.5029  0.3860
  120MOL   N14436082   2.840   6.884   4.178  0.3146 -0.5174  0.9515
  120MOL   H14536083   2.912   6.562   4.186 -1.1177 -0.7226 -1.9671
  120MOL   H14636084   2.986   6.631   4.048 -0.0931  0.3176  0.5789
  120MOL   H14736085   3.134   6.745   4.233  0.3821 -1.8272  0.6310
  120MOL   H14836086   3.173   6.943   4.166  0.4300 -0.1695 -0.7749
  120MOL   H14936087   3.075   7.182   4.102 -1.9829  1.6216 -0.4923
  120MOL   H15036088   2.832   7.207   4.109  0.7043  0.0832  0.8868
  120MOL   H15136089   2.687   7.017   4.154  0.7346 -1.1897  4.1843
  120MOL   C15236090   2.974   6.720   4.384  0.3718  0.4081  0.4645
  120MOL   C15336091   3.053   6.808   4.491 -0.0731 -0.3831 -0.7209
  120MOL   C15436092   2.953   6.859   4.598 -0.2548  0.3654 -0.3025
  120MOL   C15536093   2.934   6.996   4.620  0.1560 -0.1075  0.6098
  120MOL   C15636094   2.832   7.032   4.713  0.4141 -0.1015 -0.6247
  120MOL   C15736095   2.760   6.935   4.779  0.3031 -0.4114 -0.0711
  120MOL   C15836096   2.785   6.802   4.746  0.3721  0.4038  0.1295
  120MOL   N15936097   2.883   6.764   4.662 -0.2071  0.0684 -0.4888
  120MOL   H16036098   2.970   6.618   4.420 -0.3348  0.1447 -0.3214
  120MOL   H16136099   2.869   6.749   4.379  0.2312 -0.1743 -0.0712
  120MOL   H16236100   3.105   6.888   4.437  1.0625 -1.2781 -0.9829
  120MOL   H16336101   2.989   7.069   4.563  0.2120  0.5713  1.5238
  120MOL   H16436102   2.829   7.129   4.759  1.9361 -0.8485  1.0903
  120MOL   H16536103   2.688   6.958   4.856 -0.6940 -0.3273 -1.0189
  120MOL   H16636104   2.726   6.721   4.788  0.8777  0.2384  0.5252
  120MOL   C16736105   3.169   6.723   4.551  0.3187 -0.5148 -0.0726
  120MOL   C16836106   3.274   6.791   4.642  0.1563 -0.6874  0.0054
  120MOL   C16936107   3.325   6.702   4.762  0.2519 -0.3928 -0.2831
  120MOL   C17036108   3.285   6.720   4.891  0.6292  0.3290 -0.2198
  120MOL   C17136109   3.327   6.633   4.996 -0.2442 -0.1567 -0.2750
  120MOL   C17236110   3.409   6.527   4.955  0.3221 -0.3706  0.2134
  120MOL   C17336111   3.450   6.515   4.822  0.1332  0.8672 -0.0220
  120MOL   N17436112   3.411   6.605   4.725 -0.6905  0.3533  0.4330
  120MOL   H17536113   3.214   6.663   4.471 -0.8837 -1.9490  0.3141
  120MOL   H17636114   3.126   6.648   4.617  0.7839 -0.5326  0.2103
  120MOL   H17736115   3.218   6.873   4.686  0.0763 -0.1871 -1.0171
  120MOL   H17836116   3.219   6.803   4.913 -0.5680 -0.1198 -2.0509
  120MOL   H17936117   3.295   6.648   5.098  0.0899  0.1125 -0.2092
  120MOL   H18036118   3.443   6.462   5.034  2.3740 -1.6283 -1.6563
  120MOL   H18136119   3.528   6.442   4.807 -0.3038  0.2792  0.5154
  120MOL   C18236120   3.401   6.834   4.572  0.2356 -0.0827 -0.1646
  120MOL   C18336121   3.399   6.952   4.473 -0.0456  0.8913  0.5972
  120MOL   C18436122   3.323   7.077   4.517 -0.2824 -0.2366 -0.5550
  120MOL   C18536123   3.231   7.145   4.436  0.5120 -0.6753 -0.9509
  120MOL   C18636124   3.166   7.263   4.484  0.5162 -0.3867 -0.6042
  120MOL   C18736125   3.181   7.296   4.615 -0.0317  0.2388 -0.5951
  120MOL   C18836126   3.266   7.218   4.695  0.1535 -1.1075 -0.2553
  120MOL   N18936127   3.343   7.117   4.649 -0.0542  0.0821 -0.4751
  120MOL   H19036128   3.463   6.756   4.527  1.5295  1.9789 -2.0446
  120MOL   H19136129   3.470   6.857   4.653 -0.1492  1.0452 -0.1523
  120MOL   H19236130   3.349   6.916   4.384  0.8116 -0.5182  0.6718
  120MOL   H19336131   3.205   7.108   4.338  0.2755 -0.3271 -1.0227
  120MOL   H19436132   3.110   7.328   4.418  2.7700  1.1845 -1.0032
  120MOL   H19536133   3.117   7.367   4.665 -0.5753 -1.6673  1.5169
  120MOL   H19636134   3.278   7.232   4.801  0.1308  1.5720 -0.5751
  120MOL   C19736135   3.550   6.983   4.436 -0.5987  0.4207 -0.7059
  120MOL   C19836136   3.578   7.094   4.331  0.6439  0.0417  0.4567
  120MOL   C19936137   3.731   7.110   4.309  0.5350 -0.6838  0.2664
  120MOL   C20036138   3.804   6.996   4.267  0.7342 -0.5936  0.3322
  120MOL   C20136139   3.945   7.018   4.246 -0.0356 -0.3907  0.0001
  120MOL   C20236140   3.998   7.147   4.257 -0.1702 -0.4697 -0.4844
  120MOL   C20336141   3.910   7.252   4.293 -0.3935  0.2378  0.4049
  120MOL   N20436142   3.780   7.237   4.321 -0.0372 -0.1592  0.5011
  120MOL   H20536143   3.610   6.894   4.416  1.9992  1.7457  0.8017
  120MOL   H20636144   3.589   7.029   4.527 -3.1345 -1.3149  1.3166
  120MOL   H20736145   3.538   7.187   4.372 -0.6791 -0.2773 -0.0840
  120MOL   H20836146   3.759   6.899   4.255  0.3902 -0.3051 -0.7712
  120MOL   H20936147   4.003   6.931   4.220 -0.9862 -0.2061 -2.8784
  120MOL   H21036148   4.104   7.158   4.241 -0.0537  0.3373  0.7483
  120MOL   H21136149   3.937   7.356   4.298  0.6225  0.0612 -1.1013
  120MOL   C21236150   3.506   7.071   4.194 -0.8085  0.0130  0.4753
  120MOL   C21336151   3.491   7.194   4.092 -0.2514  0.2084 -0.5525
  120MOL   C21436152   3.432   7.160   3.956 -0.0205  0.2135 -0.3149
  120MOL   C21536153   3.506   7.160   3.837  0.0469  0.4075 -0.9353
  120MOL   C21636154   3.453   7.117   3.717  1.1386  0.6132 -0.5575
  120MOL   C21736155   3.318   7.082   3.720  0.4050  0.3183  0.0063
  120MOL   C21836156   3.248   7.086   3.840  0.4383 -0.3269 -0.2702
  120MOL   N21936157   3.308   7.116   3.956 -0.1099 -1.1252 -0.2060
  120MOL   H22036158   3.411   7.021   4.208  0.8087 -2.6016  2.4673
  120MOL   H22136159   3.567   7.006   4.131  0.9481  0.0156  2.1254
  120MOL   H22236160   3.596   7.217   4.078 -0.9725  2.5053 -2.6537
  120MOL   H22336161   3.613   7.179   3.836  0.4461 -1.5501  0.5959
  120MOL   H22436162   3.506   7.122   3.623  0.8390  0.6825 -0.7246
  120MOL   H22536163   3.271   7.055   3.627  0.3107 -1.3189  0.5139
  120MOL   H22636164   3.143   7.064   3.845  0.5694 -1.2829 -1.4218
  120MOL   C22736165   3.442   7.314   4.173 -0.0955 -0.3476  0.0829
  120MOL   C22836166   3.396   7.434   4.090  0.3119 -0.0040 -0.1652
  120MOL   C22936167   3.336   7.541   4.182 -0.3916 -0.0199 -0.9910
  120MOL   C23036168   3.415   7.653   4.223  0.0574  0.0255  0.4377
  120MOL   C23136169   3.345   7.743   4.312 -0.0277 -0.2839 -0.2016
  120MOL   C23236170   3.220   7.702   4.364  0.3722  0.0439  0.8616
  120MOL   C23336171   3.159   7.586   4.315  0.1299 -0.6238 -0.4680
  120MOL   N23436172   3.218   7.504   4.231 -0.8189  0.1440  0.1796
  120MOL   H23536173   3.513   7.349   4.248 -1.2004  0.8015  0.6265
  120MOL   H23636174   3.356   7.280   4.231  0.5176 -0.5287  0.8986
  120MOL   H23736175   3.315   7.394   4.028 -0.4707  1.1187  0.1124
  120MOL   H23836176   3.513   7.683   4.188 -0.0358 -0.5159 -0.2922
  120MOL   H23936177   3.395   7.830   4.351 -2.4824  1.5914 -1.0861
  120MOL   H24036178   3.173   7.744   4.452 -1.6622 -0.2137 -0.0841
  120MOL   H24136179   3.072   7.536   4.356 -0.3840 -1.1796 -2.2062
  120MOL   C24236180   3.511   7.496   3.999 -0.0253 -0.0816 -0.0972
  120MOL   C24336181   3.475   7.571   3.869 -0.8098  0.2628  0.7047
  120MOL   C24436182   3.600   7.656   3.827 -0.1233  0.1975  0.0524
  120MOL   C24536183   3.587   7.789   3.822  0.2563 -0.5043 -0.3004
  120MOL   C24636184   3.703   7.855   3.780 -0.9314 -0.4624 -0.0797
  120MOL   C24736185   3.828   7.790   3.779 -0.2508 -0.7882 -0.0646
  120MOL   C24836186   3.827   7.652   3.793  0.3121  0.1710  0.5754
  120MOL   N24936187   3.713   7.583   3.814 -0.3484 -0.2696  0.4823
  120MOL   H25036188   3.584   7.420   3.972 -0.4522 -1.1165  1.5776
  120MOL   H25136189   3.585   7.554   4.054 -1.2826 -1.6155  3.3286
  120MOL   H25236190   3.398   7.643   3.897 -0.9961 -0.8232  3.1452
  120MOL   H25336191   3.496   7.842   3.848  0.8190  0.0666  0.5437
  120MOL   H25436192   3.706   7.962   3.770  1.4294 -0.3732  1.1512
  120MOL   H25536193   3.926   7.834   3.764  0.1371 -1.0828  1.5364
  120MOL   H25636194   3.913   7.590   3.777 -0.8940 -1.4075  0.1456
  120MOL   C25736195   3.431   7.477   3.747  0.1534  0.0647 -0.6615
  120MOL   C25836196   3.411   7.545   3.608  0.8317 -0.4255  0.3980
  120MOL   C25936197   3.415   7.447   3.492  0.6716 -0.6383 -0.2369
  120MOL   C26036198   3.516   7.466   3.399  0.1888  0.1254  0.4788
  120MOL   C26136199   3.523   7.370   3.290 -0.1227 -0.2552  0.0074
  120MOL   C26236200   3.425   7.266   3.292  0.0528 -0.5576  0.0341
  120MOL   C26336201   3.331   7.257   3.393 -0.6164  0.1370 -0.1618
  120MOL   N26436202   3.321   7.353   3.487  0.1645 -0.2249 -0.2520
  120MOL   H26536203   3.344   7.419   3.778 -1.0612  1.1439 -1.9943
  120MOL   H26636204   3.511   7.403   3.736 -0.8658 -1.0970 -0.2935
  120MOL   H26736205   3.497   7.610   3.597  0.6997 -0.6220 -2.0514
  120MOL   H26836206   3.593   7.540   3.415 -0.4873  0.7333  0.9806
  120MOL   H26936207   3.596   7.382   3.211  1.6066 -0.4385  1.5396
  120MOL   H27036208   3.436   7.182   3.226 -0.4743  0.0651 -0.8556
  120MOL   H27136209   3.261   7.174   3.397 -0.0154 -0.3531  0.1988
  120MOL   C27236210   3.289   7.647   3.591 -0.0123 -0.1352 -0.3660
  120MOL   C27336211   3.138   7.601   3.588  0.2082  0.1056  0.2359
  120MOL   C27436212   3.092   7.541   3.724  0.1018 -0.6411  0.0337
  120MOL   C27536213   3.040   7.412   3.732  0.3742 -0.1685  0.3318
  120MOL   C27636214   3.004   7.369   3.858  0.1946  0.6967  0.5079
  120MOL   C27736215   3.023   7.449   3.971  0.1643  0.2314 -0.2201
  120MOL   C27836216   3.075   7.580   3.952 -0.9216 -0.3261 -0.1867
  120MOL   N27936217   3.106   7.620   3.831  0.1094 -0.2842  0.6648
  120MOL   H28036218   3.310   7.700   3.498 -2.8920 -0.5264 -1.2967
  120MOL   H28136219   3.292   7.716   3.675 -2.1618  0.1285 -0.4797
  120MOL   H28236220   3.124   7.527   3.509 -2.6724 -1.0068  1.6816
  120MOL   H28336221   3.022   7.353   3.644 -1.7622 -0.4376  0.9114
  120MOL   H28436222   2.965   7.270   3.877  0.9663  0.1679 -0.5681
  120MOL   H28536223   3.007   7.413   4.071  1.2666 -2.1749 -0.8587
  120MOL   H28636224   3.085   7.656   4.028 -0.1147 -1.9109  1.3148
  120MOL   C28736225   3.052   7.715   3.534  0.5091 -0.4157  0.1332
  120MOL   C28836226   2.897   7.696   3.525 -0.1777  0.6590 -0.7949
  120MOL   C28936227   2.834   7.820   3.460 -0.5402 -0.5070  0.4458
  120MOL   C29036228   2.780   7.826   3.332  0.3322  0.0545 -0.5010
  120MOL   C29136229   2.736   7.952   3.293  0.9350 -0.1435  0.6609
  120MOL   C29236230   2.746   8.065   3.373 -0.1365  0.1631 -0.0583
  120MOL   C29336231   2.805   8.048   3.501 -0.2684 -0.7541  0.6336
  120MOL   N29436232   2.841   7.924   3.547 -0.6858 -0.1555  0.3423
  120MOL   H29536233   3.090   7.742   3.435  0.7220  1.1020  0.6116
  120MOL   H29636234   3.082   7.800   3.596  0.8326 -0.4414  0.0098
  120MOL   H29736235   2.847   7.697   3.622 -0.5253  0.5022 -0.9703
  120MOL   H29836236   2.770   7.741   3.266 -2.1829  0.3008 -0.4855
  120MOL   H29936237   2.690   7.958   3.196  1.7515  0.3984  0.3005
  120MOL   H30036238   2.727   0.015   3.342 -1.9355 -0.4628 -1.0705
  120MOL   H30136239   2.815   8.139   3.560 -0.2588  0.0610 -0.6008
  120MOL   H30236240   2.860   7.607   3.474 -0.7316  0.2128  0.3696
  121MOL     C136241   1.662   2.529   4.032  1.1776 -0.0612  0.1966
  121MOL     C236242   1.792   2.456   4.075  0.1516 -0.3526 -0.4103
  121MOL     C336243   1.770   2.383   4.203  0.7228  0.4946 -0.1250
  121MOL     C436244   1.826   2.436   4.318  0.0179  0.4912  0.8628
  121MOL     C536245   1.813   2.359   4.436 -0.1504 -0.2046 -0.6781
  121MOL     C636246   1.746   2.237   4.437 -0.2403 -0.5823 -0.1159
  121MOL     C736247   1.687   2.196   4.316 -0.3918 -0.0073 -0.4567
  121MOL     N836248   1.706   2.269   4.201  0.3836  0.1248 -0.7200
  121MOL     H936249   1.670   2.573   3.932  1.5603 -0.5189  0.0246
  121MOL    H1036250   1.571   2.471   4.019  1.3507 -0.0072 -1.3898
  121MOL    H1136251   1.860   2.538   4.098 -0.7812 -0.5529  3.4206
  121MOL    H1236252   1.878   2.531   4.316  1.0826 -0.1002  0.5955
  121MOL    H1336253   1.846   2.397   4.532  0.7023  1.0977 -1.4714
  121MOL    H1436254   1.723   2.189   4.531  0.3754 -3.4426 -1.3575
  121MOL    H1536255   1.622   2.111   4.323 -1.4839  0.7626 -1.1449
  121MOL    H1636256   1.646   2.611   4.101 -0.9536  2.2308 -2.8574
  121MOL    C1736257   1.845   2.378   3.949  0.0575 -0.0715  0.0848
  121MOL    C1836258   1.971   2.301   3.974  0.2595 -0.2923 -0.1857
  121MOL    C1936259   2.007   2.197   3.865  0.9218 -0.2521  0.2445
  121MOL    C2036260   1.998   2.059   3.888 -0.3669  0.9429 -0.0651
  121MOL    C2136261   2.020   1.961   3.788 -0.3515  0.5597  0.4230
  121MOL    C2236262   2.033   2.017   3.661 -0.1994 -0.1146 -0.3748
  121MOL    C2336263   2.037   2.161   3.640 -0.1697  0.4427 -0.4075
  121MOL    N2436264   2.028   2.248   3.739  0.1076 -0.3383  0.1950
  121MOL    H2536265   1.858   2.448   3.866 -1.0010 -1.4619 -1.2612
  121MOL    H2636266   1.763   2.311   3.923 -0.9199  1.4131 -0.7222
  121MOL    H2736267   1.933   2.243   4.058 -0.3447  1.6201  0.8883
  121MOL    H2836268   1.992   2.021   3.988 -0.8686  0.7523 -0.1659
  121MOL    H2936269   2.038   1.857   3.811 -0.1880  0.8597  1.6720
  121MOL    H3036270   2.056   1.952   3.578  0.2033 -0.7879  0.2567
  121MOL    H3136271   2.050   2.206   3.543  0.5450  2.0092  0.4058
  121MOL    C3236272   2.097   2.376   4.022  0.5787 -0.0989  0.1212
  121MOL    C3336273   2.161   2.476   3.929  0.0104  0.0004 -0.0663
  121MOL    C3436274   2.091   2.613   3.920 -0.2261 -0.3821  0.7126
  121MOL    C3536275   2.036   2.664   3.802  0.2459  0.5321 -0.0227
  121MOL    C3636276   1.970   2.790   3.811 -0.4693  0.1910  0.9085
  121MOL    C3736277   1.951   2.851   3.931 -0.8170  0.4191 -0.2427
  121MOL    C3836278   2.006   2.795   4.047  0.1960  0.2568  0.2660
  121MOL    N3936279   2.076   2.678   4.040  0.5546  0.4647  0.3962
  121MOL    H4036280   2.175   2.300   4.026  0.2686 -0.3468  1.6062
  121MOL    H4136281   2.079   2.425   4.117  1.4605  0.4364  0.0154
  121MOL    H4236282   2.147   2.436   3.829  0.1860 -1.0788  0.3311
  121MOL    H4336283   2.048   2.604   3.713 -0.5120 -1.1931  1.0112
  121MOL    H4436284   1.935   2.837   3.721  1.0594  0.7218  0.5789
  121MOL    H4536285   1.909   2.950   3.940  2.2662  1.6999  0.5327
  121MOL    H4636286   2.015   2.841   4.145  2.7367 -0.4360  0.4120
  121MOL    C4736287   2.316   2.499   3.948  0.5439  0.0638  0.4350
  121MOL    C4836288   2.417   2.446   3.846 -0.2482  0.3199  0.2013
  121MOL    C4936289   2.377   2.488   3.704 -0.3081  0.2935  0.1257
  121MOL    C5036290   2.323   2.395   3.616  0.6208 -0.5029  0.2531
  121MOL    C5136291   2.284   2.432   3.489  0.5544  0.6590 -0.3802
  121MOL    C5236292   2.302   2.565   3.452 -0.1493 -0.2850 -0.4011
  121MOL    C5336293   2.355   2.655   3.546 -0.3308  0.9844 -0.4270
  121MOL    N5436294   2.399   2.615   3.668  0.7752  0.1022 -0.7320
  121MOL    H5536295   2.342   2.466   4.049 -0.8069 -2.1543  0.1034
  121MOL    H5636296   2.324   2.607   3.952  3.0924 -0.0035 -1.4524
  121MOL    H5736297   2.423   2.337   3.845  0.2617  0.3539 -0.8059
  121MOL    H5836298   2.315   2.291   3.642 -4.2515 -0.5180 -0.7033
  121MOL    H5936299   2.260   2.361   3.411 -1.1256  0.1622  0.5583
  121MOL    H6036300   2.278   2.600   3.352  0.8747  1.4485 -0.0723
  121MOL    H6136301   2.376   2.755   3.511 -0.9107  1.0529 -0.5878
  121MOL    C6236302   2.563   2.485   3.884 -0.0278 -0.5225  0.0358
  121MOL    C6336303   2.662   2.453   3.769 -0.2834 -0.7688 -0.0574
  121MOL    C6436304   2.797   2.511   3.807  0.2723  0.5159 -0.1253
  121MOL    C6536305   2.863   2.471   3.924 -0.6145  0.1079  0.9924
  121MOL    C6636306   2.977   2.540   3.971  0.4486  0.1864 -0.0036
  121MOL    C6736307   3.016   2.655   3.903  0.7078  0.1505  0.3351
  121MOL    C6836308   2.949   2.689   3.786 -0.1252  0.2616  0.6545
  121MOL    N6936309   2.840   2.620   3.739 -0.7676 -0.1136  0.5153
  121MOL    H7036310   2.595   2.441   3.978 -0.5260 -0.4140  0.2577
  121MOL    H7136311   2.580   2.593   3.885  2.3374 -0.8913  0.8808
  121MOL    H7236312   2.633   2.506   3.678 -0.2583  0.8515  0.8636
  121MOL    H7336313   2.816   2.404   3.995  0.0318 -0.7201  0.6571
  121MOL    H7436314   3.029   2.514   4.062 -0.4068 -0.1241  0.3909
  121MOL    H7536315   3.103   2.711   3.935  0.6323  0.4421  0.0316
  121MOL    H7636316   2.995   2.773   3.736  0.9339  0.0888  1.3205
  121MOL    C7736317   2.675   2.305   3.733 -0.0076 -0.1422 -0.1739
  121MOL    C7836318   2.736   2.266   3.593 -0.8843 -0.5551 -0.3922
  121MOL    C7936319   2.769   2.118   3.598 -0.1552  0.0930 -0.0746
  121MOL    C8036320   2.906   2.076   3.592 -0.0569 -0.3541 -0.6896
  121MOL    C8136321   2.934   1.939   3.580  0.6449  0.2399 -0.6698
  121MOL    C8236322   2.824   1.851   3.589  0.7363  0.5877  0.4671
  121MOL    C8336323   2.695   1.904   3.610 -0.0496 -0.3541  0.0853
  121MOL    N8436324   2.663   2.032   3.604  0.6539  0.3725 -0.1591
  121MOL    H8536325   2.579   2.253   3.730 -0.2490  0.3582 -1.3005
  121MOL    H8636326   2.733   2.259   3.813 -0.6140  0.3856  0.5791
  121MOL    H8736327   2.837   2.308   3.590 -0.0887 -2.3518  0.0668
  121MOL    H8836328   2.977   2.157   3.578 -2.0914  1.4339 -0.9727
  121MOL    H8936329   3.036   1.905   3.567  0.2866 -1.2223  0.1216
  121MOL    H9036330   2.844   1.745   3.585 -0.1374  0.2754  3.5050
  121MOL    H9136331   2.621   1.826   3.618 -1.2655  0.8345  0.5368
  121MOL    C9236332   2.662   2.319   3.474 -0.4593 -0.1136 -0.6958
  121MOL    C9336333   2.708   2.274   3.334  0.4404  0.4496 -0.1741
  121MOL    C9436334   2.600   2.319   3.239  0.6179 -0.0403  0.6107
  121MOL    C9536335   2.604   2.461   3.204  0.6096 -0.3588  0.0639
  121MOL    C9636336   2.503   2.513   3.121  0.3651  0.3854  0.5518
  121MOL    C9736337   2.402   2.425   3.074 -0.2232 -0.1235  0.2461
  121MOL    C9836338   2.421   2.287   3.094 -0.2449 -0.8983 -0.4088
  121MOL    N9936339   2.507   2.231   3.180 -0.4794 -0.8045 -0.6967
  121MOL   H10036340   2.646   2.426   3.480 -3.3992 -0.4694 -1.1577
  121MOL   H10136341   2.563   2.272   3.474 -0.5896  0.1491 -1.1839
  121MOL   H10236342   2.704   2.165   3.338  1.8178  0.3827 -0.3519
  121MOL   H10336343   2.683   2.527   3.235 -0.2204  1.0211 -0.6857
  121MOL   H10436344   2.506   2.619   3.098  2.9075  0.1332 -0.4320
  121MOL   H10536345   2.321   2.454   3.009 -1.3788 -2.3555  0.6615
  121MOL   H10636346   2.346   2.226   3.047  0.4952 -1.1373 -1.3017
  121MOL   C10736347   2.852   2.315   3.299 -0.0448  0.0896  0.1492
  121MOL   C10836348   2.896   2.280   3.154  0.0366  0.0817 -0.2758
  121MOL   C10936349   3.013   2.368   3.120  0.7695 -0.0545 -0.0745
  121MOL   C11036350   3.007   2.444   3.002 -0.4725  0.2664 -0.1290
  121MOL   C11136351   3.112   2.528   2.976 -0.8721 -0.7606  0.1632
  121MOL   C11236352   3.223   2.534   3.058 -0.3482  0.1469 -0.2486
  121MOL   C11336353   3.228   2.444   3.168  0.5908  0.1693 -0.3337
  121MOL   N11436354   3.122   2.362   3.198 -0.2739  0.1862 -0.3064
  121MOL   H11536355   2.920   2.269   3.371 -0.2779 -0.4441  0.0365
  121MOL   H11636356   2.874   2.417   3.329 -0.6289  0.0678  0.6638
  121MOL   H11736357   2.811   2.299   3.088 -1.3426 -1.4020  1.0058
  121MOL   H11836358   2.915   2.437   2.944 -0.9974 -1.6828  0.9196
  121MOL   H11936359   3.114   2.583   2.883 -0.2784  0.4911  0.9004
  121MOL   H12036360   3.307   2.597   3.031 -0.1042 -0.0990 -0.0576
  121MOL   H12136361   3.322   2.437   3.222 -0.1637 -0.9837  0.8706
  121MOL   C12236362   2.932   2.134   3.137  0.1307 -0.0369 -0.1007
  121MOL   C12336363   2.821   2.053   3.067  0.0976  0.0576 -0.1717
  121MOL   C12436364   2.792   2.087   2.924 -0.4008  0.1478 -0.3603
  121MOL   C12536365   2.663   2.084   2.875  0.3652 -0.3889  0.3563
  121MOL   C12636366   2.628   2.107   2.741  0.4390  0.6840  0.1152
  121MOL   C12736367   2.730   2.139   2.655 -0.4046  0.1267  0.0550
  121MOL   C12836368   2.861   2.147   2.713 -0.2571 -0.1599  0.7454
  121MOL   N12936369   2.892   2.117   2.841  0.5961 -0.0443 -0.2856
  121MOL   H13036370   2.956   2.088   3.233 -0.1193  1.7475  0.8577
  121MOL   H13136371   3.022   2.130   3.076 -0.2519 -0.9827 -0.5945
  121MOL   H13236372   2.734   2.090   3.121  0.3690  1.2763 -0.5476
  121MOL   H13336373   2.583   2.052   2.940 -1.3878  2.4521 -0.3141
  121MOL   H13436374   2.524   2.115   2.714  0.7415  2.5672 -0.5059
  121MOL   H13536375   2.696   2.165   2.556  1.4507  0.0448 -0.6249
  121MOL   H13636376   2.944   2.176   2.650 -0.0293 -1.3177  0.4867
  121MOL   C13736377   2.818   1.901   3.082 -0.1423 -0.5011 -0.2389
  121MOL   C13836378   2.938   1.831   3.011  0.0709  0.0404  0.0229
  121MOL   C13936379   3.063   1.824   3.107  0.5894  0.4074  0.8987
  121MOL   C14036380   3.189   1.856   3.061 -0.0699 -1.2259 -0.2826
  121MOL   C14136381   3.301   1.843   3.149 -0.3997 -0.3054  0.5700
  121MOL   C14236382   3.282   1.794   3.276  0.1525  0.0695 -0.4708
  121MOL   C14336383   3.145   1.752   3.308 -0.0159 -0.1921 -0.2563
  121MOL   N14436384   3.039   1.765   3.226 -0.0727 -0.2074  0.4227
  121MOL   H14536385   2.727   1.861   3.037 -0.0580 -0.4020 -0.4954
  121MOL   H14636386   2.808   1.880   3.189 -1.4524 -1.0029 -0.4409
  121MOL   H14736387   2.972   1.883   2.921 -0.8320  0.9175  0.1838
  121MOL   H14836388   3.206   1.884   2.958  1.9022 -0.0244  0.3344
  121MOL   H14936389   3.400   1.857   3.106 -1.4236 -1.2104 -2.2324
  121MOL   H15036390   3.363   1.785   3.347  0.4189  1.4460 -0.5747
  121MOL   H15136391   3.127   1.737   3.414  1.9758 -2.0779 -0.1546
  121MOL   C15236392   2.908   1.682   2.965 -0.0022  0.6946 -0.2798
  121MOL   C15336393   2.852   1.676   2.823  0.2339  0.1781  0.4126
  121MOL   C15436394   2.862   1.533   2.770  0.4879  0.6184 -0.5310
  121MOL   C15536395   2.944   1.500   2.659 -0.1683 -0.4801 -0.0112
  121MOL   C15636396   2.937   1.367   2.606  0.3145 -0.1137 -0.2002
  121MOL   C15736397   2.850   1.275   2.668  0.3573  0.1059  0.6784
  121MOL   C15836398   2.784   1.314   2.785  0.0837  0.2211  0.2616
  121MOL   N15936399   2.795   1.439   2.839  0.7156  0.5724  0.0470
  121MOL   H16036400   2.842   1.639   3.040 -0.9043  1.8433 -0.4064
  121MOL   H16136401   3.005   1.631   2.964  1.5658  3.5436  0.1922
  121MOL   H16236402   2.915   1.746   2.768 -0.3557  2.1177  2.1534
  121MOL   H16336403   2.985   1.580   2.599 -0.9857  0.6442  0.8935
  121MOL   H16436404   2.995   1.337   2.519 -2.3077  0.5405 -2.2318
  121MOL   H16536405   2.849   1.177   2.622 -0.5951  0.9649 -1.2119
  121MOL   H16636406   2.709   1.257   2.839  1.2488  0.6895  2.4539
  121MOL   C16736407   2.705   1.726   2.795  0.2171 -0.1320 -1.0647
  121MOL   C16836408   2.631   1.700   2.659  0.5739 -0.3768 -0.1556
  121MOL   C16936409   2.478   1.703   2.683  0.0396  0.6205  0.9728
  121MOL   C17036410   2.400   1.582   2.667  0.5520  0.4116 -0.5344
  121MOL   C17136411   2.264   1.605   2.694  0.0479 -0.3168  0.3818
  121MOL   C17236412   2.215   1.733   2.716 -0.4874  0.2926 -0.3005
  121MOL   C17336413   2.301   1.843   2.725 -0.0448 -0.4043 -0.3063
  121MOL   N17436414   2.431   1.828   2.704  0.5223 -0.3704 -0.0301
  121MOL   H17536415   2.708   1.831   2.822  1.7603 -0.8842  1.9298
  121MOL   H17636416   2.651   1.669   2.871 -1.8692 -0.5849 -2.8459
  121MOL   H17736417   2.652   1.597   2.630 -2.4054 -1.5514  1.6715
  121MOL   H17836418   2.450   1.486   2.657 -2.3062 -1.1486 -0.2736
  121MOL   H17936419   2.199   1.519   2.687 -1.0025  0.5312 -0.3658
  121MOL   H18036420   2.115   1.748   2.752 -1.7979 -5.1209 -1.1788
  121MOL   H18136421   2.270   1.942   2.757  0.7022 -1.0349  2.5001
  121MOL   C18236422   2.668   1.785   2.545 -0.2502  0.7169 -0.9940
  121MOL   C18336423   2.599   1.769   2.402 -0.3799 -0.9660  0.3215
  121MOL   C18436424   2.498   1.882   2.362  0.2165 -0.0621  0.7299
  121MOL   C18536425   2.375   1.848   2.306  0.2224  0.2004 -0.6113
  121MOL   C18636426   2.300   1.949   2.252  0.6356 -0.2320 -0.5088
  121MOL   C18736427   2.339   2.082   2.272 -0.2869  0.4663  0.1882
  121MOL   C18836428   2.465   2.109   2.324 -0.4784 -0.6599  0.1243
  121MOL   N18936429   2.541   2.011   2.376  0.5522 -0.4995 -0.2722
  121MOL   H19036430   2.777   1.783   2.538 -0.0945 -0.1352  1.3044
  121MOL   H19136431   2.652   1.886   2.580 -1.0058  0.0541  0.6151
  121MOL   H19236432   2.535   1.681   2.404  0.5384 -1.6326  0.2617
  121MOL   H19336433   2.346   1.744   2.310 -1.3957  0.6560 -0.2017
  121MOL   H19436434   2.200   1.941   2.212  0.7723  0.9479 -1.1106
  121MOL   H19536435   2.268   2.160   2.248 -1.6942 -1.0727 -0.7712
  121MOL   H19636436   2.495   2.212   2.338 -2.1884 -0.0330 -0.6175
  121MOL   C19736437   2.693   1.754   2.285  0.3172  0.0853 -0.3781
  121MOL   C19836438   2.782   1.618   2.292  0.2960 -0.5673  0.1741
  121MOL   C19936439   2.693   1.494   2.295 -0.2360  0.1705 -0.4159
  121MOL   C20036440   2.681   1.424   2.411  0.0236  0.1606  0.1541
  121MOL   C20136441   2.604   1.308   2.411  0.2602  0.9124  0.2557
  121MOL   C20236442   2.544   1.265   2.297  0.1466 -0.0445  0.4760
  121MOL   C20336443   2.557   1.348   2.185 -0.4155 -0.0570  0.0889
  121MOL   N20436444   2.620   1.466   2.188  0.4298 -0.2115  0.5076
  121MOL   H20536445   2.756   1.843   2.289  0.2206  0.0948  1.2702
  121MOL   H20636446   2.642   1.760   2.189 -1.0868 -1.3188  0.2629
  121MOL   H20736447   2.834   1.614   2.389  0.1028  1.2719  0.3688
  121MOL   H20836448   2.732   1.452   2.502 -1.1372  0.4912  0.7261
  121MOL   H20936449   2.588   1.251   2.502 -0.2315  1.2099  0.3586
  121MOL   H21036450   2.474   1.182   2.297 -0.4042  0.3938 -1.5885
  121MOL   H21136451   2.512   1.323   2.090 -1.0861  1.1082  0.0856
  121MOL   C21236452   2.883   1.632   2.171  0.0341  0.3932  0.1622
  121MOL   C21336453   3.035   1.639   2.209  0.0630 -0.2834 -0.0165
  121MOL   C21436454   3.079   1.754   2.288  0.2566 -0.0649  0.3900
  121MOL   C21536455   3.152   1.857   2.226  0.6094  0.1492  0.3258
  121MOL   C21636456   3.187   1.969   2.302 -0.4220  0.2915  0.0999
  121MOL   C21736457   3.141   1.979   2.432  0.2443 -0.3052  0.3771
  121MOL   C21836458   3.072   1.869   2.489 -0.5789  0.0148  0.3816
  121MOL   N21936459   3.047   1.761   2.418  0.3595 -0.7291  0.0778
  121MOL   H22036460   2.854   1.725   2.123 -0.6736 -0.0466 -0.2809
  121MOL   H22136461   2.866   1.549   2.102  0.8198 -1.2118  1.8541
  121MOL   H22236462   3.090   1.656   2.116  0.3474 -3.7319 -0.5473
  121MOL   H22336463   3.176   1.852   2.121 -2.3567 -1.0883 -0.3402
  121MOL   H22436464   3.228   2.061   2.262 -1.2678  1.3809  1.6631
  121MOL   H22536465   3.160   2.067   2.492  0.7516 -1.5863  2.1708
  121MOL   H22636466   3.036   1.864   2.591  2.1263 -2.4264  1.2786
  121MOL   C22736467   3.078   1.506   2.270 -0.0339 -0.3198  0.4996
  121MOL   C22836468   3.224   1.451   2.237 -0.0310 -0.3999 -0.0256
  121MOL   C22936469   3.335   1.549   2.275  0.6435  0.5358 -0.8138
  121MOL   C23036470   3.407   1.619   2.180 -0.0091 -0.7004 -0.1816
  121MOL   C23136471   3.514   1.698   2.230 -0.5689  0.4286 -0.7392
  121MOL   C23236472   3.543   1.703   2.369 -0.0201 -0.9295 -0.2320
  121MOL   C23336473   3.461   1.626   2.453 -0.3449 -0.7085 -0.1322
  121MOL   N23436474   3.361   1.552   2.406  0.2074 -0.0962 -0.3623
  121MOL   H23536475   3.008   1.430   2.235  0.9642 -2.5500  3.1111
  121MOL   H23636476   3.078   1.504   2.379  0.6970 -0.7214  0.4975
  121MOL   H23736477   3.222   1.453   2.128 -1.5227 -0.1365 -0.0140
  121MOL   H23836478   3.377   1.612   2.076 -2.8918  0.6344  0.5361
  121MOL   H23936479   3.583   1.752   2.167  1.2872  0.3448  1.1339
  121MOL   H24036480   3.625   1.760   2.409 -0.2760 -1.1256  0.5803
  121MOL   H24136481   3.468   1.626   2.560 -2.0197 -1.3281 -0.0057
  121MOL   C24236482   3.248   1.311   2.283 -0.2502 -0.2122 -0.1458
  121MOL   C24336483   3.389   1.255   2.265 -0.5134 -0.4046 -1.2423
  121MOL   C24436484   3.405   1.121   2.345  0.2540  0.2901 -0.0285
  121MOL   C24536485   3.461   1.122   2.473 -0.8657 -0.4340 -0.1260
  121MOL   C24636486   3.483   1.002   2.543 -0.1817  0.0777 -0.2397
  121MOL   C24736487   3.431   0.886   2.483  0.3763  0.5923 -0.8653
  121MOL   C24836488   3.370   0.893   2.358 -0.4524  0.1873 -0.0905
  121MOL   N24936489   3.360   1.009   2.285 -0.3331 -0.5008  0.2739
  121MOL   H25036490   3.174   1.245   2.238 -1.1276  1.2684 -0.9123
  121MOL   H25136491   3.234   1.307   2.391  3.1783  0.6360  0.3856
  121MOL   H25236492   3.464   1.326   2.299 -0.6082 -0.8731 -0.0203
  121MOL   H25336493   3.497   1.219   2.506 -0.2250 -1.4159  2.1105
  121MOL   H25436494   3.518   1.005   2.645 -0.8216  2.3502 -0.0491
  121MOL   H25536495   3.437   0.790   2.532  1.5106  0.2289 -1.7147
  121MOL   H25636496   3.323   0.804   2.317 -2.0333  0.9697 -0.0258
  121MOL   C25736497   3.426   1.242   2.112  0.1460 -0.9707  0.2759
  121MOL   C25836498   3.551   1.170   2.061  0.3274 -0.0140 -0.4621
  121MOL   C25936499   3.507   1.080   1.952 -0.1400 -0.3108 -0.2943
  121MOL   C26036500   3.495   0.944   1.968 -0.4258 -0.2622 -0.2377
  121MOL   C26136501   3.442   0.862   1.864  0.1795 -0.0533 -0.4094
  121MOL   C26236502   3.414   0.927   1.743 -0.0551 -0.5260 -0.0504
  121MOL   C26336503   3.443   1.064   1.729  0.6510  0.0273 -1.4017
  121MOL   N26436504   3.482   1.141   1.833 -0.3563 -0.6317 -0.0842
  121MOL   H26536505   3.426   1.342   2.068  0.1668 -0.9582  0.3043
  121MOL   H26636506   3.337   1.202   2.063  0.6755 -1.7619 -0.0354
  121MOL   H26736507   3.574   1.106   2.146  0.5673 -0.1338 -0.6159
  121MOL   H26836508   3.506   0.899   2.065  1.3638  0.1577 -0.2314
  121MOL   H26936509   3.432   0.755   1.867 -0.1525 -0.0232 -0.4307
  121MOL   H27036510   3.388   0.881   1.649  1.6021 -0.6714 -0.4614
  121MOL   H27136511   3.427   1.109   1.632  0.2248  1.0196 -0.8683
  121MOL   C27236512   3.672   1.250   2.020  0.1697  0.0352  0.0630
  121MOL   C27336513   3.717   1.348   2.125 -0.5261  0.1311  0.7885
  121MOL   C27436514   3.772   1.283   2.248 -0.2560  0.5107 -0.0501
  121MOL   C27536515   3.720   1.327   2.368  0.2297 -0.2164 -0.0074
  121MOL   C27636516   3.761   1.266   2.488  0.4632  0.1109  0.6175
  121MOL   C27736517   3.858   1.165   2.477  0.7171 -0.6773  0.3652
  121MOL   C27836518   3.908   1.136   2.352  0.8077 -0.3486  0.6247
  121MOL   N27936519   3.870   1.192   2.238 -0.2505 -1.1524  0.7812
  121MOL   H28036520   3.644   1.299   1.927 -2.8678 -1.5073  0.1002
  121MOL   H28136521   3.752   1.180   1.993  0.0932  0.1678 -0.5241
  121MOL   H28236522   3.634   1.418   2.133  0.9800  2.3870 -2.1808
  121MOL   H28336523   3.643   1.401   2.383 -0.5183 -0.9896 -0.0003
  121MOL   H28436524   3.711   1.294   2.579  0.7402  0.2748  0.7195
  121MOL   H28536525   3.904   1.126   2.567  1.6582 -2.2458 -0.7731
  121MOL   H28636526   3.993   1.075   2.327  0.7292 -0.8320  1.4911
  121MOL   C28736527   3.831   1.442   2.062  0.3006 -0.3148  0.1720
  121MOL   C28836528   3.897   1.542   2.157  0.0374 -0.8415  1.2165
  121MOL   C28936529   3.947   1.669   2.087 -0.4323 -0.1243  0.3718
  121MOL   C29036530   4.080   1.681   2.040 -0.8154 -0.2094 -0.2340
  121MOL   C29136531   4.112   1.794   1.954  0.6969  0.0086 -0.4109
  121MOL   C29236532   4.006   1.883   1.925  0.1009  1.0004 -0.3385
  121MOL   C29336533   3.878   1.855   1.978 -0.6152 -1.3902 -0.2995
  121MOL   N29436534   3.849   1.750   2.050 -0.1401 -0.3021 -0.0073
  121MOL   H29536535   3.784   1.494   1.979 -2.9887 -1.8878  0.9476
  121MOL   H29636536   3.909   1.377   2.021 -1.7520 -1.6504 -1.7467
  121MOL   H29736537   3.977   1.494   2.214  0.3420 -0.9576  0.6914
  121MOL   H29836538   4.161   1.615   2.067 -0.4126 -0.3590 -1.7412
  121MOL   H29936539   4.212   1.812   1.915  0.4123  0.3751 -0.9799
  121MOL   H30036540   4.023   1.973   1.868 -0.4511  1.1155 -0.3308
  121MOL   H30136541   3.797   1.926   1.971 -0.9749 -1.7769 -0.0636
  121MOL   H30236542   3.835   1.582   2.237  1.0258 -0.0017  1.5918
  122MOL     C136543   0.324   7.389   2.163 -0.4836  0.1851 -0.7014
  122MOL     C236544   0.222   7.293   2.219 -0.0123  0.1707 -0.1618
  122MOL     C336545   0.276   7.153   2.223  1.2939  0.8150 -0.1115
  122MOL     C436546   0.196   7.044   2.170 -0.0021  0.2226  0.2116
  122MOL     C536547   0.252   6.919   2.155 -0.4740  0.3528  0.1856
  122MOL     C636548   0.375   6.897   2.220 -0.4250 -0.7795 -0.8022
  122MOL     C736549   0.451   7.006   2.264  0.5022  0.1998 -0.0889
  122MOL     N836550   0.398   7.132   2.271 -0.1846 -0.3029  0.0877
  122MOL     H936551   0.283   7.489   2.152 -1.8880 -0.4369 -1.2509
  122MOL    H1036552   0.418   7.390   2.219 -0.4258  0.0444 -0.7946
  122MOL    H1136553   0.143   7.293   2.144  1.2169  1.4969 -1.4915
  122MOL    H1236554   0.094   7.047   2.133  0.5956  1.2208 -1.4116
  122MOL    H1336555   0.196   6.844   2.101  0.4357 -0.1922 -0.0041
  122MOL    H1436556   0.420   6.799   2.210  0.3642 -0.4030 -0.9893
  122MOL    H1536557   0.555   6.997   2.291  0.3486 -2.6146 -0.3235
  122MOL    H1636558   0.341   7.356   2.060 -0.7982  1.7510 -1.2599
  122MOL    C1736559   0.162   7.329   2.358  0.4286 -0.3186  0.0282
  122MOL    C1836560   0.064   7.455   2.365 -0.7344  0.6545 -0.6120
  122MOL    C1936561   8.085   7.417   2.294 -0.4442 -0.7385 -0.8444
  122MOL    C2036562   8.029   7.490   2.182  0.2357 -0.6216 -0.1016
  122MOL    C2136563   7.924   7.437   2.108 -0.7567 -0.6272 -0.3878
  122MOL    C2236564   7.870   7.321   2.153 -0.2718  0.5472 -0.4332
  122MOL    C2336565   7.925   7.258   2.266  0.2091 -0.4637 -0.3036
  122MOL    N2436566   8.024   7.307   2.342  0.0852 -0.0592 -0.8397
  122MOL    H2536567   0.254   7.344   2.415  0.7532  1.9119 -1.0142
  122MOL    H2636568   0.117   7.243   2.407  1.0003 -0.1515  0.8591
  122MOL    H2736569   0.109   7.531   2.302  0.5964  0.5358  0.1768
  122MOL    H2836570   8.074   7.579   2.140 -1.5459  0.5439  0.3979
  122MOL    H2936571   7.893   7.477   2.012 -0.0906  0.0922 -0.3053
  122MOL    H3036572   7.792   7.270   2.098 -0.2208 -0.2865  0.2730
  122MOL    H3136573   7.876   7.165   2.295  0.4753  0.0661  1.8989
  122MOL    C3236574   0.037   7.506   2.507  0.8501 -0.0294 -0.0010
  122MOL    C3336575   0.160   7.571   2.578  0.1039 -0.0928 -0.2636
  122MOL    C3436576   0.191   7.708   2.508 -1.1664 -0.1175 -0.1143
  122MOL    C3536577   0.287   7.717   2.404  1.0798  0.0095  0.3290
  122MOL    C3636578   0.303   7.843   2.345  0.0587  0.3042 -0.0193
  122MOL    C3736579   0.216   7.949   2.381 -0.7841 -0.2333 -0.8756
  122MOL    C3836580   0.126   7.928   2.487  0.0027 -0.6534 -0.1325
  122MOL    N3936581   0.119   7.811   2.553  0.3210 -0.3530  0.3127
  122MOL    H4036582   8.144   7.429   2.569  0.9434  0.0971  0.2238
  122MOL    H4136583   8.110   7.581   2.497  0.5115 -0.6830 -2.6856
  122MOL    H4236584   0.241   7.503   2.551  1.1935  1.9228 -2.2029
  122MOL    H4336585   0.342   7.627   2.381  0.3744  0.2161 -2.2298
  122MOL    H4436586   0.367   7.842   2.258  0.0927  1.3792 -0.0131
  122MOL    H4536587   0.207   8.041   2.326  2.1968  0.5399 -0.1199
  122MOL    H4636588   0.075   8.018   2.519  1.6873  0.0378  0.6831
  122MOL    C4736589   0.150   7.583   2.732  0.7849 -0.4301  0.2168
  122MOL    C4836590   0.133   7.459   2.817  0.2647 -0.4043 -0.3984
  122MOL    C4936591   0.225   7.342   2.778  0.1877 -0.8112  0.1552
  122MOL    C5036592   0.175   7.230   2.713 -0.8252 -0.3511  0.7804
  122MOL    C5136593   0.261   7.135   2.669  1.0061 -0.0808  0.4113
  122MOL    C5236594   0.398   7.152   2.685  0.2669 -0.2463 -0.0295
  122MOL    C5336595   0.440   7.266   2.759  0.3103  0.1554  0.3459
  122MOL    N5436596   0.353   7.360   2.804 -0.4678  0.3096  0.1978
  122MOL    H5536597   0.064   7.650   2.741 -0.2203 -1.7652  0.8129
  122MOL    H5636598   0.240   7.634   2.768  0.6077 -0.8837  1.3270
  122MOL    H5736599   0.035   7.420   2.790  0.0304 -0.1889  0.1280
  122MOL    H5836600   0.073   7.224   2.679 -0.5115 -0.2677 -0.2008
  122MOL    H5936601   0.233   7.040   2.625 -3.1473  1.8729 -1.4163
  122MOL    H6036602   0.453   7.066   2.649 -2.3841 -2.0881  0.2301
  122MOL    H6136603   0.546   7.282   2.775  0.1349  3.5224 -1.3909
  122MOL    C6236604   0.109   7.481   2.972 -0.2729  0.2290 -0.2313
  122MOL    C6336605   0.112   7.354   3.061 -0.1035 -0.3263  0.7492
  122MOL    C6436606   0.172   7.383   3.198  0.2262 -0.4756  0.0683
  122MOL    C6536607   0.278   7.316   3.258  0.3347  0.8622 -0.4141
  122MOL    C6636608   0.314   7.341   3.391  0.0093 -0.2590 -0.1793
  122MOL    C6736609   0.243   7.433   3.460 -0.9016 -0.2211 -0.0316
  122MOL    C6836610   0.142   7.500   3.394 -0.1938 -0.1366 -0.8228
  122MOL    N6936611   0.103   7.471   3.269 -0.0550 -0.0688 -0.2633
  122MOL    H7036612   0.015   7.534   2.982 -0.7480 -0.6010 -0.2738
  122MOL    H7136613   0.180   7.555   3.010  0.7722 -1.3778  1.1033
  122MOL    H7236614   0.186   7.284   3.021 -0.8349  1.1821 -3.5259
  122MOL    H7336615   0.326   7.243   3.194 -0.3338  0.0508 -0.0049
  122MOL    H7436616   0.398   7.281   3.422 -0.2158 -0.7793 -0.5681
  122MOL    H7536617   0.258   7.446   3.566 -1.4493  0.1890 -0.0015
  122MOL    H7636618   0.084   7.579   3.439 -0.0892  0.2832 -1.4293
  122MOL    C7736619   8.127   7.277   3.083  0.1934  0.3061 -0.0938
  122MOL    C7836620   8.138   7.126   3.032  0.0718 -0.3624  0.4255
  122MOL    C7936621   0.113   7.045   3.081 -0.2032 -0.1829  0.1211
  122MOL    C8036622   0.208   6.986   2.988  0.2321 -0.6853  0.8160
  122MOL    C8136623   0.317   6.920   3.043 -0.3673  1.0564  0.0096
  122MOL    C8236624   0.341   6.921   3.177 -0.4523 -0.0328 -0.7927
  122MOL    C8336625   0.248   6.981   3.265 -0.5376  0.1464  0.2599
  122MOL    N8436626   0.134   7.037   3.214  0.2884  0.1094  0.2493
  122MOL    H8536627   8.046   7.323   3.026 -0.6011 -0.9154  0.0400
  122MOL    H8636628   8.096   7.267   3.187  0.6911  1.9496  0.2296
  122MOL    H8736629   0.001   7.140   2.925 -0.1709  0.6481  0.5237
  122MOL    H8836630   0.219   6.993   2.881  2.8972 -0.4035  1.0774
  122MOL    H8936631   0.386   6.874   2.975  0.1570 -1.7986  2.4052
  122MOL    H9036632   0.423   6.869   3.225  0.1532  0.4999 -1.2379
  122MOL    H9136633   0.261   6.985   3.372  0.2894 -0.2868  0.1855
  122MOL    C9236634   8.005   7.043   3.056  0.1738  0.8611  0.2323
  122MOL    C9336635   7.991   6.909   2.981  0.3041  0.6150 -0.6968
  122MOL    C9436636   7.859   6.837   3.025  0.0843 -0.3209 -0.4526
  122MOL    C9536637   7.739   6.858   2.958 -0.1786  0.1606  0.0554
  122MOL    C9636638   7.628   6.800   3.013 -0.2634 -0.0691  0.3992
  122MOL    C9736639   7.631   6.719   3.121 -0.1455  0.0434  0.3181
  122MOL    C9836640   7.758   6.709   3.186  0.2317 -0.5163 -0.4443
  122MOL    N9936641   7.870   6.750   3.127  0.5043 -0.2445 -0.2590
  122MOL   H10036642   7.932   7.118   3.026  0.2027  0.2080 -1.5014
  122MOL   H10136643   8.004   7.027   3.164 -1.2821  2.5007  0.4777
  122MOL   H10236644   8.070   6.838   3.007 -1.5528 -0.4900  2.0677
  122MOL   H10336645   7.725   6.923   2.873 -2.7263 -0.1176  0.2271
  122MOL   H10436646   7.538   6.816   2.955 -0.3192 -0.5825  0.3395
  122MOL   H10536647   7.544   6.668   3.159  1.2190 -1.3267  1.7051
  122MOL   H10636648   7.787   6.652   3.273  1.7791 -0.1503 -0.6914
  122MOL   C10736649   8.006   6.920   2.828  1.0536 -0.3083 -0.4699
  122MOL   C10836650   7.988   6.791   2.747  0.1099  0.4019 -0.6369
  122MOL   C10936651   7.963   6.817   2.600  0.6162 -0.2197  0.3326
  122MOL   C11036652   7.856   6.766   2.526  0.0256  0.3901 -0.1236
  122MOL   C11136653   7.849   6.797   2.389 -0.2274 -0.0322  0.5841
  122MOL   C11236654   7.945   6.881   2.333  0.3092 -0.2049 -0.1037
  122MOL   C11336655   8.045   6.934   2.411  0.6760 -0.1169 -0.0556
  122MOL   N11436656   8.053   6.908   2.547 -0.2038  0.3109  0.8356
  122MOL   H11536657   8.101   6.967   2.801  0.4913 -0.5046 -2.9130
  122MOL   H11636658   7.930   6.990   2.792  1.3153  1.2743  1.9437
  122MOL   H11736659   7.894   6.742   2.773  0.4471 -0.1027 -0.3664
  122MOL   H11836660   7.783   6.698   2.566  0.1042 -0.3593 -1.2160
  122MOL   H11936661   7.778   6.755   2.318  0.1670  0.0575  0.1318
  122MOL   H12036662   7.929   6.901   2.228  2.6343  0.5646 -0.3546
  122MOL   H12136663   8.106   7.015   2.372  0.7424  0.0094  0.3048
  122MOL   C12236664   8.093   6.684   2.779 -0.2292 -0.8717  0.4114
  122MOL   C12336665   8.085   6.552   2.698  0.2265  0.0642 -0.7269
  122MOL   C12436666   0.011   6.568   2.568 -0.0255 -0.4315  0.4145
  122MOL   C12536667   8.087   6.578   2.444  0.4880  0.6667 -0.8844
  122MOL   C12636668   0.010   6.610   2.330  0.7570  0.4223 -0.6316
  122MOL   C12736669   0.143   6.640   2.339 -0.1343  1.1728  0.2858
  122MOL   C12836670   0.209   6.623   2.464  0.0230  0.2556  0.4911
  122MOL   N12936671   0.144   6.595   2.579 -0.1319  0.9424  0.0915
  122MOL   H13036672   8.094   6.669   2.887  0.6732 -1.3123  0.3474
  122MOL   H13136673   0.034   6.738   2.757 -0.8401  0.3083  0.6851
  122MOL   H13236674   7.979   6.541   2.675 -0.1453  2.7108 -0.4097
  122MOL   H13336675   7.980   6.564   2.455  0.5876  1.9014  2.0056
  122MOL   H13436676   8.107   6.644   2.244  0.6447  1.5268 -0.1255
  122MOL   H13536677   0.203   6.667   2.253  0.1994  0.7370  0.3773
  122MOL   H13636678   0.314   6.646   2.471 -0.2027  1.4519  0.1389
  122MOL   C13736679   8.127   6.423   2.770 -0.3956 -0.0691 -0.8160
  122MOL   C13836680   8.055   6.386   2.901 -0.2188  0.2476  0.3698
  122MOL   C13936681   7.908   6.369   2.877 -0.0478  0.3388 -0.9901
  122MOL   C14036682   7.824   6.455   2.953  0.0908  0.4020 -0.0076
  122MOL   C14136683   7.683   6.445   2.935 -0.0078  0.0169 -0.8778
  122MOL   C14236684   7.637   6.341   2.860  0.2783  0.6560  0.5764
  122MOL   C14336685   7.727   6.265   2.782 -1.1781 -0.2577  0.7335
  122MOL   N14436686   7.861   6.279   2.794  0.1970 -0.6074  0.2712
  122MOL   H14536687   0.083   6.430   2.778 -0.5231  0.1978  0.9030
  122MOL   H14636688   8.105   6.336   2.708 -0.8816 -0.4070 -0.1840
  122MOL   H14736689   8.072   6.476   2.960  1.1007  0.3932 -0.2201
  122MOL   H14836690   7.861   6.531   3.021 -2.0080  2.0368 -0.6172
  122MOL   H14936691   7.619   6.507   2.996  0.6560  0.6828 -0.8400
  122MOL   H15036692   7.532   6.316   2.853  0.1458  0.9543  1.4401
  122MOL   H15136693   7.698   6.194   2.706 -0.0648 -0.5506  0.5887
  122MOL   C15236694   8.138   6.278   2.980 -0.7903  0.8812 -0.1699
  122MOL   C15336695   8.068   6.170   3.065 -0.1167 -0.3295 -0.4557
  122MOL   C15436696   0.027   6.072   3.106 -0.1244  0.1068  0.4116
  122MOL   C15536697   0.043   5.946   3.053 -0.2881  0.4723  0.4772
  122MOL   C15636698   0.145   5.862   3.091  0.0774 -0.6651  0.5607
  122MOL   C15736699   0.230   5.902   3.196 -0.7287 -0.3498  0.2077
  122MOL   C15836700   0.212   6.036   3.244  0.1732  0.6910 -0.1051
  122MOL   N15936701   0.105   6.113   3.204  0.6468 -0.6907  0.4022
  122MOL   H16036702   0.068   6.321   3.036  0.1393 -0.8829 -0.1566
  122MOL   H16136703   0.036   6.214   2.907  0.4839  1.0875  0.5175
  122MOL   H16236704   7.990   6.122   3.006  0.3327 -0.5871 -0.8454
  122MOL   H16336705   8.128   5.910   2.976 -1.1886  0.3318  1.3161
  122MOL   H16436706   0.179   5.770   3.045 -1.5681 -1.7731  1.5187
  122MOL   H16536707   0.316   5.846   3.232  0.8495  1.9854  0.1845
  122MOL   H16636708   0.281   6.083   3.312 -0.7486  1.3353  0.3989
  122MOL   C16736709   7.982   6.227   3.186  0.4113 -0.4460  0.1446
  122MOL   C16836710   7.922   6.115   3.269 -0.1135  0.3814 -0.2836
  122MOL   C16936711   7.929   6.153   3.420 -0.1057  0.3049  0.4790
  122MOL   C17036712   7.999   6.080   3.514  0.4968  0.4650 -0.2344
  122MOL   C17136713   8.005   6.123   3.649 -0.5624  0.1541 -0.2924
  122MOL   C17236714   7.928   6.234   3.690  0.2593  0.1007  0.6326
  122MOL   C17336715   7.852   6.290   3.588 -0.0917 -0.4575  0.2193
  122MOL   N17436716   7.851   6.257   3.459 -0.0300  0.5624  0.4631
  122MOL   H17536717   7.902   6.295   3.155 -0.0569 -0.4266  1.3369
  122MOL   H17636718   8.055   6.281   3.247  0.9542  0.2060 -1.0698
  122MOL   H17736719   7.995   6.035   3.258 -0.4566 -0.1080  0.8692
  122MOL   H17836720   8.053   5.993   3.480  0.6046 -0.0982  1.3311
  122MOL   H17936721   8.077   6.080   3.716 -1.3173 -0.4291  0.1515
  122MOL   H18036722   7.934   6.283   3.786  1.1520  0.1396  0.5598
  122MOL   H18136723   7.787   6.374   3.602  1.0140  0.2082  1.3942
  122MOL   C18236724   7.795   6.042   3.214  0.1049 -0.4397 -0.0666
  122MOL   C18336725   7.758   5.913   3.287 -0.5174  0.6050 -0.8380
  122MOL   C18436726   7.610   5.872   3.255  0.1346 -0.1560 -0.4810
  122MOL   C18536727   7.509   5.858   3.353 -0.2714  0.0848  0.2642
  122MOL   C18636728   7.377   5.818   3.315 -0.8887 -0.2767 -0.0545
  122MOL   C18736729   7.355   5.791   3.180  0.5146  0.2620  0.0679
  122MOL   C18836730   7.453   5.821   3.092  0.2750  0.0424 -0.8058
  122MOL   N18936731   7.579   5.853   3.123 -0.5075 -0.4856 -0.3679
  122MOL   H19036732   7.803   6.033   3.106  1.0429  0.1852 -0.0569
  122MOL   H19136733   7.715   6.116   3.226  0.0097 -0.3983 -0.9208
  122MOL   H19236734   7.756   5.939   3.393 -0.0764  0.9510 -0.9127
  122MOL   H19336735   7.536   5.881   3.455 -0.2223  0.8929  0.0662
  122MOL   H19436736   7.302   5.790   3.388 -2.9308  0.2894 -1.9054
  122MOL   H19536737   7.264   5.750   3.140  0.5967  0.3188 -0.1734
  122MOL   H19636738   7.427   5.823   2.988  1.3931 -1.6487 -1.1436
  122MOL   C19736739   7.856   5.789   3.277 -0.0184  0.0266  0.1888
  122MOL   C19836740   7.811   5.658   3.352 -0.5796  0.2305  0.2509
  122MOL   C19936741   7.897   5.546   3.304 -0.3753  0.5826 -0.5744
  122MOL   C20036742   7.856   5.449   3.209 -0.0930 -0.8694  0.8437
  122MOL   C20136743   7.952   5.355   3.164 -0.0912  0.5547 -0.1016
  122MOL   C20236744   8.074   5.348   3.224  0.4159 -0.1431 -0.7482
  122MOL   C20336745   8.107   5.444   3.315  0.2771 -0.1791  0.5064
  122MOL   N20436746   8.024   5.546   3.352 -0.4036  0.6865 -0.1305
  122MOL   H20536747   7.956   5.817   3.311  0.5471 -1.6721 -0.0328
  122MOL   H20636748   7.868   5.769   3.170 -2.4729  0.8557 -0.2790
  122MOL   H20736749   7.708   5.646   3.318 -0.7797  1.1948  0.5038
  122MOL   H20836750   7.759   5.442   3.161  0.1124  2.6131 -0.2156
  122MOL   H20936751   7.919   5.289   3.085  2.6365 -0.3115 -0.5601
  122MOL   H21036752   8.152   5.282   3.189  1.0430  0.1151  0.1422
  122MOL   H21136753   0.050   5.433   3.366 -0.2692 -0.0343  1.5573
  122MOL   C21236754   7.806   5.664   3.505  0.1827 -0.2874  0.0262
  122MOL   C21336755   7.750   5.545   3.580 -0.1073 -0.4534  0.5191
  122MOL   C21436756   7.763   5.569   3.731  0.4324 -0.4357  0.3797
  122MOL   C21536757   7.824   5.479   3.814 -0.1682  0.0180 -1.0941
  122MOL   C21636758   7.829   5.505   3.953 -0.2838  0.0570 -1.2087
  122MOL   C21736759   7.776   5.622   3.997  0.0873 -0.3530 -0.0508
  122MOL   C21836760   7.706   5.710   3.909 -0.3316 -0.5261  0.3261
  122MOL   N21936761   7.697   5.684   3.776 -0.2845  0.2496  0.2439
  122MOL   H22036762   7.744   5.747   3.539 -1.3115 -0.8834 -1.1800
  122MOL   H22136763   7.903   5.697   3.543 -0.6371 -0.0521  1.9544
  122MOL   H22236764   7.813   5.460   3.553 -0.1192  0.2195 -1.7358
  122MOL   H22336765   7.875   5.395   3.769  2.6443  1.5875 -0.9336
  122MOL   H22436766   7.895   5.440   4.009  0.8663  0.3578 -2.1783
  122MOL   H22536767   7.767   5.637   4.104 -0.5994  0.8184 -0.2602
  122MOL   H22636768   7.662   5.804   3.939 -0.2801 -0.5650  0.5240
  122MOL   C22736769   7.606   5.494   3.542  0.8948 -0.4608  0.2218
  122MOL   C22836770   7.561   5.356   3.600 -0.0573  0.2937 -0.3464
  122MOL   C22936771   7.430   5.372   3.667 -0.4376  0.2736  0.2758
  122MOL   C23036772   7.422   5.385   3.804  0.0786 -0.3899 -0.8369
  122MOL   C23136773   7.296   5.371   3.869 -0.8002 -0.1822 -0.3697
  122MOL   C23236774   7.181   5.356   3.789 -0.6547 -0.3088  0.3470
  122MOL   C23336775   7.198   5.350   3.647  0.1165  0.2327 -0.2789
  122MOL   N23436776   7.319   5.355   3.587 -0.1260  1.2656  0.0731
  122MOL   H23536777   7.591   5.494   3.434 -0.1192  0.0707  0.3537
  122MOL   H23636778   7.529   5.567   3.566  2.0234  0.5953  0.6475
  122MOL   H23736779   7.632   5.321   3.674 -0.2131 -1.5219 -1.0183
  122MOL   H23836780   7.507   5.414   3.863 -0.4427  2.4351 -1.3917
  122MOL   H23936781   7.286   5.380   3.977  0.0539  1.4334 -0.4032
  122MOL   H24036782   7.087   5.378   3.838 -0.6944 -0.2838  0.2600
  122MOL   H24136783   7.117   5.325   3.581  0.2399 -0.5914 -0.1213
  122MOL   C24236784   7.543   5.247   3.487  0.0710  0.7783  0.3671
  122MOL   C24336785   7.661   5.206   3.415 -0.9832  0.2846  0.5698
  122MOL   C24436786   7.771   5.152   3.510 -0.1997  0.1226  0.2588
  122MOL   C24536787   7.894   5.222   3.518  0.4094  0.3208 -0.4240
  122MOL   C24636788   7.996   5.172   3.609  0.5361  0.0419  0.4112
  122MOL   C24736789   7.971   5.050   3.672 -0.3509  0.0444  0.1915
  122MOL   C24836790   7.844   4.992   3.657 -0.8861 -0.0003 -0.1525
  122MOL   N24936791   7.744   5.038   3.577 -0.5765  0.0894 -0.2912
  122MOL   H25036792   7.480   5.287   3.408 -0.2300 -1.8285 -0.7801
  122MOL   H25136793   7.494   5.160   3.531  0.1651  0.6387  0.1992
  122MOL   H25236794   7.699   5.293   3.362 -1.6679  0.7341  0.8140
  122MOL   H25336795   7.915   5.307   3.455 -0.8929 -0.6122 -2.1836
  122MOL   H25436796   8.094   5.213   3.626 -0.1220  1.7905  0.1811
  122MOL   H25536797   8.039   5.011   3.746  1.1791 -2.1668 -2.2742
  122MOL   H25636798   7.826   4.902   3.714 -0.5171 -0.0074 -0.0415
  122MOL   C25736799   7.631   5.109   3.297  0.8168 -0.0077  0.7122
  122MOL   C25836800   7.522   5.151   3.195 -0.3221 -0.4977  0.1420
  122MOL   C25936801   7.572   5.252   3.094 -0.1487 -0.8206  0.0781
  122MOL   C26036802   7.497   5.370   3.078 -0.8541  0.5701 -0.2979
  122MOL   C26136803   7.537   5.460   2.977 -0.1470 -0.1473  0.3555
  122MOL   C26236804   7.642   5.427   2.887  0.7197  0.4181 -0.6256
  122MOL   C26336805   7.693   5.294   2.897  0.2718 -0.1525 -0.0393
  122MOL   N26436806   7.667   5.213   3.007 -0.1449  0.1984 -0.4313
  122MOL   H26536807   7.596   5.020   3.349 -0.9251 -1.6606 -3.0641
  122MOL   H26636808   7.723   5.075   3.250 -0.3686 -0.6756 -1.1938
  122MOL   H26736809   7.436   5.198   3.241 -0.5355  0.7102 -1.4710
  122MOL   H26836810   7.421   5.396   3.149  0.1856  0.4807  0.8678
  122MOL   H26936811   7.494   5.558   2.963 -1.2443 -0.9466 -2.2117
  122MOL   H27036812   7.669   5.494   2.806 -2.0454  2.2095 -0.1278
  122MOL   H27136813   7.781   5.267   2.842 -0.9594  1.0011 -2.6561
  122MOL   C27236814   7.456   5.033   3.134  0.4901 -0.0665  0.0272
  122MOL   C27336815   7.317   5.068   3.068 -0.3308 -0.3135  0.5766
  122MOL   C27436816   7.295   4.987   2.937 -0.6269  0.1403 -0.1456
  122MOL   C27536817   7.340   5.040   2.809 -0.6736  0.7351 -0.0813
  122MOL   C27636818   7.313   4.958   2.692  0.2104  1.0236  0.8446
  122MOL   C27736819   7.246   4.845   2.708  0.4582  0.1752 -0.0817
  122MOL   C27836820   7.212   4.799   2.838  0.0009 -0.8787 -0.4546
  122MOL   N27936821   7.240   4.866   2.945  0.1011  0.4576  0.1763
  122MOL   H28036822   7.429   4.948   3.196 -1.1782 -0.6001 -1.3928
  122MOL   H28136823   7.521   4.985   3.061 -1.4214 -0.3355 -1.5727
  122MOL   H28236824   7.312   5.172   3.036 -1.3623 -0.1453  1.2879
  122MOL   H28336825   7.388   5.137   2.801 -0.3974  0.7135  1.2024
  122MOL   H28436826   7.348   4.998   2.598 -0.4923 -2.3756 -0.9406
  122MOL   H28536827   7.222   4.786   2.621  3.0189  1.1140 -1.4772
  122MOL   H28636828   7.162   4.704   2.849  1.4980 -1.7019 -0.6137
  122MOL   C28736829   7.206   5.055   3.169  0.3549 -0.1850 -0.2195
  122MOL   C28836830   7.070   5.111   3.124 -0.2306 -0.0986  0.0562
  122MOL   C28936831   6.965   5.102   3.232  0.9890  0.6613 -0.7740
  122MOL   C29036832   6.857   5.013   3.230  0.2352  0.1346 -0.7473
  122MOL   C29136833   6.773   5.015   3.345 -0.4786 -0.0277  0.1372
  122MOL   C29236834   6.804   5.096   3.455 -0.1172  0.5811 -0.0899
  122MOL   C29336835   6.920   5.171   3.453  0.1347  0.2756 -0.0339
  122MOL   N29436836   6.996   5.178   3.340 -0.1675 -0.0061  0.5547
  122MOL   H29536837   7.218   5.105   3.265 -1.2129  1.3405 -0.7793
  122MOL   H29636838   7.194   4.950   3.195 -0.7728  0.1083  0.4842
  122MOL   H29736839   7.046   5.072   3.026  2.5275  1.4456 -1.2984
  122MOL   H29836840   6.840   4.948   3.146  0.4030 -0.0737 -0.6231
  122MOL   H29936841   6.698   4.937   3.348  2.1231 -2.5926  2.3307
  122MOL   H30036842   6.745   5.096   3.546  0.3354  1.4123  0.2105
  122MOL   H30136843   6.940   5.231   3.541  0.9177 -0.2470  0.1423
  122MOL   H30236844   7.064   5.218   3.104  1.2054 -0.6394 -3.7110
  123MOL     C136845   4.387   3.072   3.210 -0.4764 -0.4618 -0.5385
  123MOL     C236846   4.320   2.941   3.260  0.3533 -0.0314  0.4228
  123MOL     C336847   4.170   2.950   3.253 -0.2958 -0.4033 -1.0906
  123MOL     C436848   4.107   2.972   3.127 -0.0969  0.2793 -0.5151
  123MOL     C536849   3.970   2.974   3.113  0.3872  0.6146 -0.0881
  123MOL     C636850   3.895   2.951   3.233 -0.0811 -0.1076  0.2841
  123MOL     C736851   3.962   2.936   3.358  0.2226  0.2953 -0.1000
  123MOL     N836852   4.096   2.930   3.367  0.1750  0.0435  0.1988
  123MOL     H936853   4.353   3.153   3.274  0.4804 -0.7073  0.2939
  123MOL    H1036854   4.496   3.076   3.212 -0.5178  0.5262 -0.4451
  123MOL    H1136855   4.333   2.936   3.369  2.6892  0.2914  0.1814
  123MOL    H1236856   4.168   2.981   3.038 -0.5609  0.3682 -0.8275
  123MOL    H1336857   3.937   2.990   3.012  0.9388  0.4491 -0.2974
  123MOL    H1436858   3.787   2.957   3.242 -0.0518  0.7660  0.0035
  123MOL    H1536859   3.915   2.923   3.454  0.8781  1.5381  0.4025
  123MOL    H1636860   4.361   3.096   3.107 -0.9994 -2.2834 -0.8517
  123MOL    C1736861   4.375   2.814   3.182 -0.0385 -0.6851 -0.2537
  123MOL    C1836862   4.338   2.674   3.250 -0.2162  0.0810  0.5332
  123MOL    C1936863   4.346   2.569   3.144 -0.4930 -0.4228  0.3919
  123MOL    C2036864   4.235   2.493   3.104 -0.1077  0.2368  0.2740
  123MOL    C2136865   4.243   2.412   2.987 -0.4749 -0.3266  0.6666
  123MOL    C2236866   4.370   2.395   2.927 -0.7684  0.4139  0.7511
  123MOL    C2336867   4.474   2.477   2.975 -0.6850 -1.0271  0.3437
  123MOL    N2436868   4.466   2.563   3.075  0.4206  0.6952  0.1112
  123MOL    H2536869   4.484   2.820   3.179  0.1588 -3.7399 -0.0623
  123MOL    H2636870   4.338   2.824   3.081  0.1706 -0.4267 -0.3074
  123MOL    H2736871   4.236   2.667   3.286  0.0581 -0.8749  1.1618
  123MOL    H2836872   4.142   2.509   3.156 -0.3215 -0.6258  0.1743
  123MOL    H2936873   4.154   2.366   2.947  0.1869  0.4004 -1.7509
  123MOL    H3036874   4.378   2.334   2.838 -0.0118  1.8681 -0.1950
  123MOL    H3136875   4.574   2.470   2.934 -1.1568  0.9870 -1.2288
  123MOL    C3236876   4.421   2.647   3.378  0.0851  0.0121  0.1221
  123MOL    C3336877   4.573   2.622   3.368  0.1020 -0.4592 -0.1827
  123MOL    C3436878   4.650   2.750   3.328 -0.5083  0.0438  0.5447
  123MOL    C3536879   4.747   2.747   3.225 -0.1576 -0.2263  0.3399
  123MOL    C3636880   4.814   2.869   3.191  0.3280  0.0873 -0.5847
  123MOL    C3736881   4.783   2.984   3.262 -0.1744 -0.1060 -0.6598
  123MOL    C3836882   4.690   2.976   3.368 -0.4195  0.3521  0.3566
  123MOL    N3936883   4.624   2.863   3.399  0.2393  0.7080 -0.0523
  123MOL    H4036884   4.379   2.555   3.421  1.8179 -0.8231  0.0666
  123MOL    H4136885   4.399   2.732   3.443 -0.8982 -0.6227  0.6479
  123MOL    H4236886   4.588   2.562   3.279  0.8691 -1.7104  0.7778
  123MOL    H4336887   4.783   2.662   3.170  1.0743  0.6035 -0.1617
  123MOL    H4436888   4.884   2.869   3.109  3.2234  0.6098  1.7673
  123MOL    H4536889   4.839   3.075   3.248  2.3871 -1.2570  1.5462
  123MOL    H4636890   4.678   3.061   3.433  0.5139  0.7943 -0.0383
  123MOL    C4736891   4.624   2.549   3.491 -0.3200  0.5017 -0.4164
  123MOL    C4836892   4.766   2.494   3.478  0.5539 -0.4696  0.0817
  123MOL    C4936893   4.863   2.599   3.524 -0.5122 -0.4000  0.6178
  123MOL    C5036894   4.970   2.642   3.444 -0.2098 -0.4559  1.2046
  123MOL    C5136895   5.052   2.743   3.494 -0.1733  0.7085 -0.2134
  123MOL    C5236896   5.040   2.790   3.628  0.2988  1.2584  0.9973
  123MOL    C5336897   4.936   2.731   3.704 -0.3424 -0.0845 -0.0906
  123MOL    N5436898   4.849   2.641   3.652 -0.0548  0.4078 -0.0395
  123MOL    H5536899   4.558   2.463   3.495  1.3745 -0.8847 -1.3496
  123MOL    H5636900   4.610   2.587   3.592 -1.7092 -0.5118 -0.2189
  123MOL    H5736901   4.797   2.474   3.375 -0.7543 -1.8081 -0.0747
  123MOL    H5836902   4.976   2.614   3.340  0.0239  1.5456  0.6496
  123MOL    H5936903   5.129   2.783   3.430 -0.0373  1.1150  0.2029
  123MOL    H6036904   5.110   2.861   3.670  1.0214  0.4256  1.2108
  123MOL    H6136905   4.922   2.754   3.809 -2.0036  0.4963 -0.4208
  123MOL    C6236906   4.798   2.358   3.545 -0.0623  0.6304  0.6641
  123MOL    C6336907   4.766   2.346   3.692  0.0961 -0.0142  0.2021
  123MOL    C6436908   4.625   2.295   3.725 -0.8219  0.7695 -0.0795
  123MOL    C6536909   4.538   2.361   3.809  0.0590 -0.4399  0.1202
  123MOL    C6636910   4.426   2.294   3.858 -0.4859 -0.1276 -0.2451
  123MOL    C6736911   4.401   2.164   3.824  0.0853  0.4808  0.2582
  123MOL    C6836912   4.492   2.104   3.742 -0.0683 -0.3417  0.1279
  123MOL    N6936913   4.605   2.166   3.691  0.1679  0.1451 -0.3486
  123MOL    H7036914   4.906   2.343   3.535  0.2204  1.6715  2.0295
  123MOL    H7136915   4.747   2.287   3.481 -0.9500  1.1827  0.7469
  123MOL    H7236916   4.768   2.445   3.738 -0.0051  0.3487 -0.5765
  123MOL    H7336917   4.545   2.467   3.830  1.5273 -0.2345 -1.3718
  123MOL    H7436918   4.364   2.348   3.927  0.7863  0.9279  0.1009
  123MOL    H7536919   4.314   2.106   3.852  0.6404  0.7655  2.6387
  123MOL    H7636920   4.473   2.005   3.704 -0.6395 -0.0312 -0.4133
  123MOL    C7736921   4.874   2.264   3.767 -0.9608  0.0064 -0.2928
  123MOL    C7836922   4.883   2.288   3.919 -0.0556 -0.2112 -0.5967
  123MOL    C7936923   4.926   2.157   3.995  1.0938  0.1838  0.3378
  123MOL    C8036924   4.828   2.070   4.043  1.2416  0.1505  0.1189
  123MOL    C8136925   4.869   1.949   4.106 -0.2715 -0.4888 -0.2330
  123MOL    C8236926   5.008   1.932   4.127  0.7385 -0.2102 -0.3812
  123MOL    C8336927   5.098   2.015   4.062 -0.1547  0.5182 -0.0869
  123MOL    N8436928   5.059   2.131   3.996 -0.5133  0.4389  0.2957
  123MOL    H8536929   4.969   2.288   3.718 -0.4793 -4.3149 -1.7114
  123MOL    H8636930   4.856   2.157   3.755  2.7836 -0.8155  0.8569
  123MOL    H8736931   4.780   2.298   3.954  0.6568  1.1440  1.2509
  123MOL    H8836932   4.724   2.095   4.030  0.8688 -0.2390  2.0946
  123MOL    H8936933   4.793   1.885   4.148 -0.6079  1.5226  2.3268
  123MOL    H9036934   5.058   1.852   4.180 -0.1860 -1.6732 -1.6631
  123MOL    H9136935   5.203   1.995   4.049 -0.4022  0.1845 -1.7482
  123MOL    C9236936   4.957   2.411   3.969 -0.1818 -0.0360 -0.5318
  123MOL    C9336937   4.913   2.492   4.095 -0.4725 -0.0349  0.4948
  123MOL    C9436938   4.764   2.532   4.099 -0.2905  0.5509 -0.4339
  123MOL    C9536939   4.725   2.655   4.060 -0.8906 -0.0287 -0.1818
  123MOL    C9636940   4.593   2.689   4.067  0.4014  0.4224 -0.1258
  123MOL    C9736941   4.495   2.596   4.107 -0.0226  1.2028  0.0934
  123MOL    C9836942   4.547   2.465   4.137 -0.1466 -0.3588  0.7252
  123MOL    N9936943   4.677   2.431   4.129  0.3771  0.3600 -0.0760
  123MOL   H10036944   4.937   2.482   3.889  2.3421  0.0944 -1.0755
  123MOL   H10136945   5.065   2.402   3.970 -0.0058  2.0604 -0.0058
  123MOL   H10236946   4.963   2.589   4.094 -1.7705  0.6463  0.0208
  123MOL   H10336947   4.805   2.726   4.043 -1.6356  0.9071  0.1228
  123MOL   H10436948   4.553   2.786   4.041  3.3400  1.8769  0.5046
  123MOL   H10536949   4.391   2.624   4.111 -0.2808  0.2634  0.0714
  123MOL   H10636950   4.478   2.387   4.165 -1.3202 -0.1417 -1.4391
  123MOL   C10736951   4.944   2.410   4.224 -0.7671 -0.4112  0.1785
  123MOL   C10836952   5.095   2.372   4.243 -0.8910  0.0155 -0.6755
  123MOL   C10936953   5.198   2.473   4.206 -1.2036  0.4477 -0.0202
  123MOL   C11036954   5.295   2.439   4.115  0.9082  0.0101 -0.5477
  123MOL   C11136955   5.392   2.537   4.085  0.2258  0.5364  0.4840
  123MOL   C11236956   5.390   2.660   4.148  0.2793  0.3829 -0.1339
  123MOL   C11336957   5.286   2.682   4.235  0.7677  0.0268  0.7671
  123MOL   N11436958   5.182   2.597   4.251 -0.0030  0.0260 -0.7738
  123MOL   H11536959   4.885   2.318   4.229 -0.7292 -0.5428 -1.3844
  123MOL   H11636960   4.915   2.462   4.315  1.0553  0.6241  0.1855
  123MOL   H11736961   5.122   2.286   4.182 -0.3239 -0.9250  0.8705
  123MOL   H11836962   5.295   2.345   4.062  4.4182 -0.1925 -0.2663
  123MOL   H11936963   5.462   2.505   4.009 -1.1010  0.2016 -0.5974
  123MOL   H12036964   5.458   2.744   4.143 -0.1492  0.7240 -0.3470
  123MOL   H12136965   5.283   2.775   4.289 -0.9785  1.7460 -2.1747
  123MOL   C12236966   5.124   2.332   4.392  0.1901  0.8372 -0.4420
  123MOL   C12336967   5.251   2.252   4.426  0.1369  0.4677  0.6406
  123MOL   C12436968   5.281   2.243   4.574  0.3026 -0.3196  0.6346
  123MOL   C12536969   5.401   2.284   4.638  0.2710  0.5011 -0.2967
  123MOL   C12636970   5.407   2.281   4.781  0.1350  0.1541  0.0904
  123MOL   C12736971   5.300   2.235   4.855 -0.0126 -0.1486  0.2668
  123MOL   C12836972   5.186   2.192   4.781  0.5094  0.0128  0.8123
  123MOL   N12936973   5.176   2.199   4.647  0.4402  0.4639 -0.2043
  123MOL   H13036974   5.039   2.271   4.422 -0.9822  2.5632 -0.1222
  123MOL   H13136975   5.119   2.420   4.457 -0.3698  0.0126  0.6476
  123MOL   H13236976   5.332   2.309   4.381  1.1041  1.0721  3.0410
  123MOL   H13336977   5.488   2.314   4.582  0.7363  1.0693  0.7137
  123MOL   H13436978   5.504   2.305   4.823  0.1394 -0.5081  0.4619
  123MOL   H13536979   5.303   2.209   4.960 -1.8677 -2.0904 -0.1249
  123MOL   H13636980   5.110   2.137   4.835  0.7452 -0.1873  0.9397
  123MOL   C13736981   5.258   2.110   4.358  0.5487  0.2850  0.1667
  123MOL   C13836982   5.394   2.034   4.378 -0.2620  0.0703  0.1306
  123MOL   C13936983   5.359   1.888   4.412  0.0603  0.6210  0.8395
  123MOL   C14036984   5.373   1.825   4.544  0.3322 -0.2759  0.5053
  123MOL   C14136985   5.337   1.689   4.550 -0.0879 -0.4472  0.1769
  123MOL   C14236986   5.298   1.615   4.436 -0.0809  0.0037 -0.2964
  123MOL   C14336987   5.273   1.691   4.315  0.0729  1.2208 -0.7150
  123MOL   N14436988   5.306   1.822   4.305 -0.1288 -0.0713  0.6649
  123MOL   H14536989   5.226   2.120   4.254 -0.0737 -0.5774  0.2659
  123MOL   H14636990   5.183   2.047   4.406 -1.0829  0.1688 -2.4290
  123MOL   H14736991   5.460   2.051   4.463  0.6884  0.1877 -0.6261
  123MOL   H14836992   5.393   1.887   4.630 -0.3307 -0.3546  0.7203
  123MOL   H14936993   5.362   1.639   4.642 -0.6326  0.3558  0.7671
  123MOL   H15036994   5.274   1.510   4.441 -0.3698 -0.1742 -3.9428
  123MOL   H15136995   5.230   1.635   4.233  2.1290 -0.1337 -0.9091
  123MOL   C15236996   5.485   2.037   4.259  0.4218 -0.2004 -0.3084
  123MOL   C15336997   5.560   2.163   4.219 -0.0948 -0.5770  0.3902
  123MOL   C15436998   5.618   2.247   4.328 -0.5531  0.1393  0.8597
  123MOL   C15536999   5.611   2.386   4.321 -0.3410 -0.5588  0.0711
  123MOL   C15637000   5.690   2.461   4.406  0.2612 -0.1012 -0.3966
  123MOL   C15737001   5.772   2.405   4.506 -0.2158 -0.3783  0.2946
  123MOL   C15837002   5.765   2.265   4.506  0.3313  0.0130 -0.2967
  123MOL   N15937003   5.696   2.188   4.422 -0.3306  0.2579  0.3427
  123MOL   H16037004   5.427   2.000   4.175  2.7394  1.3602 -2.6692
  123MOL   H16137005   5.562   1.961   4.266 -0.8982 -1.8867 -3.2217
  123MOL   H16237006   5.487   2.231   4.176  0.1168  0.0959  1.0715
  123MOL   H16337007   5.553   2.432   4.242  0.8570  0.0372 -0.4770
  123MOL   H16437008   5.676   2.567   4.395  2.3088  0.6090  3.1728
  123MOL   H16537009   5.829   2.463   4.578  1.1521 -0.0017 -1.0797
  123MOL   H16637010   5.830   2.215   4.577 -1.9338 -0.4755  1.4848
  123MOL   C16737011   5.664   2.128   4.111 -0.1599 -0.2390 -0.1886
  123MOL   C16837012   5.699   2.235   3.998 -0.0726 -0.0181 -0.3757
  123MOL   C16937013   5.785   2.358   4.037 -0.2786 -0.0258  0.5860
  123MOL   C17037014   5.895   2.339   4.122 -0.1346  0.3550  0.5373
  123MOL   C17137015   5.968   2.447   4.173  0.4381 -0.5000 -0.1585
  123MOL   C17237016   5.929   2.576   4.129 -0.2428 -0.3634  0.0092
  123MOL   C17337017   5.815   2.594   4.052  0.2277  0.0833 -0.0082
  123MOL   N17437018   5.743   2.484   4.001 -0.8582  0.3258  0.1716
  123MOL   H17537019   5.628   2.041   4.056 -1.9653  1.0515 -1.1522
  123MOL   H17637020   5.748   2.083   4.162  0.9614  0.6154 -1.2291
  123MOL   H17737021   5.604   2.282   3.974  0.2550  0.7084 -0.2350
  123MOL   H17837022   5.923   2.238   4.147 -0.3995  0.1440 -0.0038
  123MOL   H17937023   6.052   2.436   4.240 -0.8645 -3.2006  1.1074
  123MOL   H18037024   5.985   2.658   4.171 -0.8837  0.2435 -0.3198
  123MOL   H18137025   5.784   2.693   4.022 -1.5722  0.2565  2.2397
  123MOL   C18237026   5.749   2.178   3.866  0.4154  0.2631 -0.0889
  123MOL   C18337027   5.894   2.145   3.845  0.2804 -1.0823  0.4409
  123MOL   C18437028   5.944   2.028   3.931  0.4768 -0.1675  0.2081
  123MOL   C18537029   6.062   2.047   4.004  0.1291 -1.0119 -0.3454
  123MOL   C18637030   6.101   1.949   4.099  0.1655  0.9767  0.5881
  123MOL   C18737031   6.021   1.831   4.101  0.2885  0.3917 -0.3541
  123MOL   C18837032   5.913   1.815   4.003  0.0547  0.1845  0.4640
  123MOL   N18937033   5.874   1.914   3.921 -0.1135  0.0507 -0.4204
  123MOL   H19037034   5.725   2.252   3.789  4.4223  1.9097  0.0885
  123MOL   H19137035   5.688   2.093   3.838  1.8827 -0.8115 -0.0851
  123MOL   H19237036   5.949   2.234   3.877  0.1447 -0.5027 -0.9291
  123MOL   H19337037   6.122   2.133   3.980 -0.4486 -0.2685  0.8356
  123MOL   H19437038   6.186   1.965   4.163 -0.6036  3.6005  1.0208
  123MOL   H19537039   6.040   1.742   4.159 -0.0358  0.8562  0.4651
  123MOL   H19637040   5.862   1.722   3.982 -0.1573  0.5934 -0.8621
  123MOL   C19737041   5.921   2.106   3.703 -0.0273 -0.2222 -0.2420
  123MOL   C19837042   5.962   2.216   3.601 -0.6788  0.1887  0.2322
  123MOL   C19937043   6.084   2.299   3.648 -0.2908 -0.4724 -0.7274
  123MOL   C20037044   6.066   2.413   3.721 -0.3574 -0.2249 -0.0871
  123MOL   C20137045   6.173   2.469   3.784 -0.5707  0.5537  0.3129
  123MOL   C20237046   6.294   2.398   3.783  0.1087  0.1389 -0.0471
  123MOL   C20337047   6.304   2.284   3.699 -0.3246  0.4465 -0.0807
  123MOL   N20437048   6.200   2.229   3.633 -0.0697  0.2189  0.2869
  123MOL   H20537049   5.848   2.032   3.670  0.5489 -1.8663  2.0262
  123MOL   H20637050   6.014   2.050   3.719  1.6882  2.2022 -1.3583
  123MOL   H20737051   5.871   2.276   3.595 -1.1705 -0.1188  3.8900
  123MOL   H20837052   5.972   2.466   3.723  0.0948  0.6190 -1.0524
  123MOL   H20937053   6.158   2.563   3.836 -2.4309  1.0729 -1.0999
  123MOL   H21037054   6.367   2.439   3.851 -0.0972  0.4672 -0.0190
  123MOL   H21137055   6.397   2.233   3.682  0.2143  2.0849 -2.1956
  123MOL   C21237056   5.986   2.143   3.462  0.3338 -0.4730  0.0106
  123MOL   C21337057   5.856   2.096   3.391 -0.5633  0.3742 -0.3380
  123MOL   C21437058   5.792   2.212   3.321  0.2525  0.4255 -0.7222
  123MOL   C21537059   5.685   2.267   3.381 -0.1020  0.5982 -0.4069
  123MOL   C21637060   5.620   2.364   3.315 -0.1443 -0.2306  0.1188
  123MOL   C21737061   5.677   2.423   3.200 -0.6793 -0.3967  0.2042
  123MOL   C21837062   5.802   2.375   3.162 -0.8122 -0.3824  0.2857
  123MOL   N21937063   5.856   2.262   3.218 -0.3295 -0.9410  0.1699
  123MOL   H22037064   6.054   2.059   3.474 -0.2387 -0.7092  1.7990
  123MOL   H22137065   6.035   2.203   3.386  0.4035 -0.1842  0.2847
  123MOL   H22237066   5.777   2.060   3.456  1.0198 -1.1677  0.8037
  123MOL   H22337067   5.648   2.226   3.474 -0.8247  2.4492  0.1442
  123MOL   H22437068   5.524   2.410   3.335 -0.3582  0.3344 -2.0920
  123MOL   H22537069   5.637   2.501   3.136 -2.4064 -1.3795  0.0636
  123MOL   H22637070   5.852   2.406   3.071  1.3940  1.6397  2.1387
  123MOL   C22737071   5.887   1.979   3.291 -0.5567 -0.2752  0.0385
  123MOL   C22837072   5.906   1.838   3.359 -0.2874 -0.6293 -0.3769
  123MOL   C22937073   5.801   1.805   3.460  0.4918  0.1566  0.0769
  123MOL   C23037074   5.832   1.767   3.595  0.6336  0.4162 -0.2352
  123MOL   C23137075   5.721   1.717   3.672 -0.7623 -0.3188 -0.6820
  123MOL   C23237076   5.598   1.700   3.610 -0.2656  0.2790 -0.4236
  123MOL   C23337077   5.575   1.747   3.481 -0.1294  0.0826  0.1130
  123MOL   N23437078   5.675   1.789   3.404 -0.0655  0.5038 -0.6778
  123MOL   H23537079   5.978   1.995   3.233 -1.1045 -2.0379 -1.3522
  123MOL   H23637080   5.805   1.975   3.219  1.2904  0.4474 -2.1788
  123MOL   H23737081   5.994   1.858   3.420  0.3174  1.8667 -1.9702
  123MOL   H23837082   5.935   1.770   3.627  0.1062 -0.1831  1.5700
  123MOL   H23937083   5.739   1.685   3.774  0.8629 -0.4061 -0.9780
  123MOL   H24037084   5.507   1.670   3.661 -0.3253 -2.3301 -1.9638
  123MOL   H24137085   5.481   1.750   3.429  0.7249 -2.9668 -1.7979
  123MOL   C24237086   5.943   1.726   3.263 -0.0638  0.4235 -0.4430
  123MOL   C24337087   6.012   1.605   3.338 -0.1596  0.0647  0.7368
  123MOL   C24437088   6.030   1.472   3.264 -0.1475  0.2369 -0.5867
  123MOL   C24537089   6.089   1.358   3.318 -0.0280 -0.2236 -0.1571
  123MOL   C24637090   6.100   1.237   3.245  0.0026 -0.5238 -0.1788
  123MOL   C24737091   6.043   1.229   3.114  0.2203  0.1428  0.0836
  123MOL   C24837092   5.994   1.353   3.071 -0.0178 -0.4867  0.3627
  123MOL   N24937093   5.981   1.466   3.142 -0.6997  0.5012  0.1644
  123MOL   H25037094   6.007   1.752   3.179  1.8833 -1.1199  0.5285
  123MOL   H25137095   5.846   1.705   3.219 -0.9328  1.6409  0.8233
  123MOL   H25237096   5.943   1.571   3.416 -1.2992 -1.3015 -0.8359
  123MOL   H25337097   6.146   1.362   3.410 -1.0956 -0.0962  0.5072
  123MOL   H25437098   6.164   1.158   3.283  0.1351 -0.6821 -0.7153
  123MOL   H25537099   6.053   1.147   3.045  0.5931  0.1275  0.1538
  123MOL   H25637100   5.962   1.353   2.968  1.5452 -2.3309 -0.1430
  123MOL   C25737101   6.138   1.634   3.415  0.2065 -0.5014 -0.3205
  123MOL   C25837102   6.266   1.661   3.330 -0.1829  0.6586  1.0352
  123MOL   C25937103   6.270   1.801   3.278 -0.8520  0.1224  0.6945
  123MOL   C26037104   6.248   1.830   3.142 -0.1330  0.7429 -0.6613
  123MOL   C26137105   6.246   1.965   3.098  0.8201 -0.4774 -0.2714
  123MOL   C26237106   6.269   2.070   3.192  0.2556 -0.4806 -0.3714
  123MOL   C26337107   6.298   2.028   3.322 -0.3122 -0.3846  0.7741
  123MOL   N26437108   6.298   1.897   3.363  0.0774  0.4299 -0.3558
  123MOL   H26537109   6.151   1.555   3.489 -0.0209 -0.4362 -0.2113
  123MOL   H26637110   6.141   1.720   3.481  0.0851 -1.1975  0.6030
  123MOL   H26737111   6.266   1.601   3.239  2.5498  1.3015  0.5891
  123MOL   H26837112   6.230   1.752   3.069 -1.0418  1.4908 -1.2468
  123MOL   H26937113   6.211   1.977   2.996 -0.3307  1.5148  0.3381
  123MOL   H27037114   6.250   2.170   3.157 -0.7576 -0.9544 -1.2013
  123MOL   H27137115   6.324   2.100   3.398  0.1470 -0.9619  1.1683
  123MOL   C27237116   6.400   1.629   3.404  0.2764  0.2940  0.4047
  123MOL   C27337117   6.525   1.615   3.309 -0.0471  0.2326  0.1166
  123MOL   C27437118   6.663   1.647   3.372 -0.5405  0.5980  0.7300
  123MOL   C27537119   6.707   1.616   3.510  0.6198 -0.0910  0.3046
  123MOL   C27637120   6.836   1.647   3.548 -0.7725  0.7427 -0.4678
  123MOL   C27737121   6.926   1.704   3.456 -0.6855  0.3386  0.4727
  123MOL   C27837122   6.879   1.729   3.328 -0.1145  0.0383 -0.5649
  123MOL   N27937123   6.755   1.697   3.287 -0.2176  0.5452  0.7898
  123MOL   H28037124   6.391   1.533   3.455 -0.3540  0.3386  0.3821
  123MOL   H28137125   6.427   1.702   3.480  0.9503 -1.2783  1.7175
  123MOL   H28237126   6.503   1.689   3.232 -2.0971  0.5699  0.9831
  123MOL   H28337127   6.625   1.569   3.562  2.3969 -2.1484  1.3164
  123MOL   H28437128   6.878   1.616   3.642  0.8609 -2.4477 -2.1619
  123MOL   H28537129   7.027   1.718   3.490 -0.4549 -1.6955  0.6780
  123MOL   H28637130   6.940   1.775   3.252 -0.3073  1.3386  0.0564
  123MOL   C28737131   6.516   1.475   3.244  0.3693 -0.4969 -0.2674
  123MOL   C28837132   6.588   1.477   3.108 -0.3641  0.2951 -0.0152
  123MOL   C28937133   6.514   1.542   2.997  0.6434  0.0215  0.5679
  123MOL   C29037134   6.564   1.654   2.933 -0.7027  0.1544  0.3600
  123MOL   C29137135   6.492   1.715   2.828  0.9616 -0.3101 -0.2798
  123MOL   C29237136   6.370   1.653   2.785  0.2813  0.3742 -0.1463
  123MOL   C29337137   6.328   1.543   2.862  0.6320 -0.6449  0.9523
  123MOL   N29437138   6.400   1.489   2.959 -0.4469  0.1867  0.1003
  123MOL   H29537139   6.412   1.445   3.226  0.1080  0.7042 -0.8496
  123MOL   H29637140   6.551   1.405   3.319  2.8983  1.7484  0.6939
  123MOL   H29737141   6.620   1.377   3.078  0.3658  0.2811  0.7929
  123MOL   H29837142   6.651   1.708   2.968 -0.9556  0.5614  0.3577
  123MOL   H29937143   6.535   1.802   2.779 -1.9689  0.2887 -1.9449
  123MOL   H30037144   6.311   1.681   2.699 -1.9239  0.6538  1.4424
  123MOL   H30137145   6.237   1.494   2.830  0.8825 -0.7906  0.4595
  123MOL   H30237146   6.682   1.534   3.114  0.8261 -1.6385  0.0672
  124MOL     C137147   3.193   3.231   4.262 -0.2015  0.2769 -0.6822
  124MOL     C237148   3.157   3.092   4.327  0.1880 -0.4987 -0.1123
  124MOL     C337149   3.267   2.989   4.295  0.4651  0.7416  0.5117
  124MOL     C437150   3.246   2.886   4.199 -0.4604 -0.1048  0.4370
  124MOL     C537151   3.354   2.798   4.174  0.2983  0.4572 -0.2581
  124MOL     C637152   3.471   2.808   4.255  0.4454 -0.1031 -0.0285
  124MOL     C737153   3.482   2.911   4.346 -0.1342  0.1932  0.4504
  124MOL     N837154   3.385   3.002   4.360 -0.0988 -0.2119  0.1266
  124MOL     H937155   3.112   3.301   4.283  0.2304 -0.0771  2.4363
  124MOL    H1037156   3.286   3.266   4.305  0.5975 -1.2912 -1.1047
  124MOL    H1137157   3.062   3.059   4.285  0.6125 -2.2084  0.2179
  124MOL    H1237158   3.153   2.873   4.146 -1.2211 -0.5530  1.8561
  124MOL    H1337159   3.349   2.729   4.091 -0.8120  0.1849  0.0211
  124MOL    H1437160   3.547   2.734   4.234 -0.8981 -1.4898 -0.1415
  124MOL    H1537161   3.576   2.921   4.399  2.4378 -0.9686 -3.6421
  124MOL    H1637162   3.199   3.230   4.153  0.6306  2.0191 -0.6599
  124MOL    C1737163   3.129   3.103   4.480 -0.4479  0.1002  0.4444
  124MOL    C1837164   3.009   3.189   4.518  0.8625 -0.2158 -1.3896
  124MOL    C1937165   2.879   3.143   4.453  0.9600 -0.2996 -0.9684
  124MOL    C2037166   2.817   3.222   4.352 -0.5182 -0.4465 -0.3842
  124MOL    C2137167   2.710   3.169   4.283 -0.5570  0.4011  0.0618
  124MOL    C2237168   2.656   3.045   4.323  0.4492 -0.4300 -0.6458
  124MOL    C2337169   2.719   2.980   4.430 -0.3501  0.4423 -0.0211
  124MOL    N2437170   2.830   3.025   4.497  0.0154  0.1311  0.7458
  124MOL    H2537171   3.220   3.126   4.535  0.2492 -2.1166  0.2435
  124MOL    H2637172   3.103   3.000   4.506 -0.1636  0.2743  1.4269
  124MOL    H2737173   3.027   3.294   4.494 -2.4221  0.9922  1.0016
  124MOL    H2837174   2.851   3.323   4.333  2.0170 -1.6771 -2.7098
  124MOL    H2937175   2.671   3.239   4.211 -4.8452 -0.2284  1.6196
  124MOL    H3037176   2.570   3.007   4.269 -0.1278  0.0124 -0.0516
  124MOL    H3137177   2.662   2.896   4.466 -0.2101 -0.0881 -1.0053
  124MOL    C3237178   2.996   3.197   4.673 -0.6411  0.4317 -0.0662
  124MOL    C3337179   3.089   3.297   4.753  0.7006 -0.6670  1.0787
  124MOL    C3437180   3.061   3.442   4.710 -0.0902 -0.9946 -0.3974
  124MOL    C3537181   3.158   3.508   4.633 -0.3392 -0.0946 -0.3603
  124MOL    C3637182   3.129   3.639   4.593 -0.6294 -0.2819 -0.3816
  124MOL    C3737183   2.997   3.699   4.630 -0.4125 -0.0315 -0.5492
  124MOL    C3837184   2.906   3.620   4.704  0.5438 -0.8697 -1.1658
  124MOL    N3937185   2.941   3.493   4.749 -0.4610 -0.1488  0.2203
  124MOL    H4037186   3.021   3.097   4.710 -0.3509  0.1517 -1.0237
  124MOL    H4137187   2.891   3.221   4.693  0.1343  2.8524  1.3488
  124MOL    H4237188   3.185   3.282   4.704  1.3754 -1.9948  2.8001
  124MOL    H4337189   3.248   3.456   4.604 -1.0168 -1.1788 -0.5222
  124MOL    H4437190   3.213   3.692   4.550  0.6311 -0.9225  1.2475
  124MOL    H4537191   2.974   3.803   4.613  0.9596  0.4046  0.1650
  124MOL    H4637192   2.810   3.652   4.741  1.3546 -1.9670  2.0760
  124MOL    C4737193   3.097   3.277   4.908  0.4932 -0.0822  0.1493
  124MOL    C4837194   3.150   3.136   4.950  0.1040  0.0036  0.2034
  124MOL    C4937195   3.282   3.105   4.884  0.1697  0.2967 -0.2177
  124MOL    C5037196   3.402   3.160   4.925 -0.2832 -0.0482 -0.0767
  124MOL    C5137197   3.519   3.123   4.857 -0.0433 -0.3682  0.1587
  124MOL    C5237198   3.509   3.025   4.752 -0.4206 -0.6391 -0.1888
  124MOL    C5337199   3.384   2.972   4.724 -0.4907  0.0569  0.5038
  124MOL    N5437200   3.274   3.007   4.791  0.1957  0.2731  0.5861
  124MOL    H5537201   2.995   3.290   4.941  0.6011 -0.3715  0.5956
  124MOL    H5637202   3.158   3.350   4.961 -1.2009  0.1517  1.8212
  124MOL    H5737203   3.075   3.070   4.907  0.7571 -2.0707  2.1683
  124MOL    H5837204   3.400   3.236   5.002 -5.4560 -0.1111  0.0296
  124MOL    H5937205   3.616   3.163   4.884  0.7459 -1.5705 -0.7978
  124MOL    H6037206   3.592   2.986   4.695 -0.8177 -0.2636 -1.0420
  124MOL    H6137207   3.364   2.913   4.636  0.8333  0.8096 -0.3214
  124MOL    C6237208   3.149   3.111   5.106 -0.5965 -0.4566 -0.3980
  124MOL    C6337209   3.010   3.132   5.173 -0.9110  0.2579  0.5627
  124MOL    C6437210   2.902   3.043   5.112 -0.1232 -0.6671 -0.2879
  124MOL    C6537211   2.791   3.106   5.058 -0.0558  0.7025  1.1513
  124MOL    C6637212   2.685   3.029   5.009 -0.2777 -0.3115  0.1823
  124MOL    C6737213   2.704   2.893   5.019 -0.2811 -0.3484  0.3066
  124MOL    C6837214   2.821   2.837   5.077 -0.1539 -0.4396  0.2022
  124MOL    N6937215   2.920   2.912   5.126  0.1204  0.5129 -0.0432
  124MOL    H7037216   3.227   3.163   5.162 -0.0209 -0.9596 -0.7315
  124MOL    H7137217   3.169   3.004   5.113  1.7538 -0.0024  0.3593
  124MOL    H7237218   2.984   3.235   5.151 -1.3368 -0.1325 -0.7969
  124MOL    H7337219   2.794   3.214   5.062  1.3649  0.6925  0.7201
  124MOL    H7437220   2.589   3.067   4.976  0.9889  1.2542 -1.7572
  124MOL    H7537221   2.621   2.833   4.987 -0.3072 -0.8241  1.2471
  124MOL    H7637222   2.823   2.730   5.091 -1.1011 -0.8559 -2.4198
  124MOL    C7737223   3.003   3.137   5.325 -0.9340 -0.1454 -0.0138
  124MOL    C7837224   3.098   3.244   5.400 -0.2848 -0.5389 -0.5002
  124MOL    C7937225   3.101   3.372   5.325  0.6257 -0.3734  0.3827
  124MOL    C8037226   3.222   3.423   5.285  0.1256  0.3493  0.0420
  124MOL    C8137227   3.232   3.536   5.204 -0.4573  1.1530  0.2315
  124MOL    C8237228   3.111   3.609   5.181 -0.5412  0.3512 -0.4497
  124MOL    C8337229   2.996   3.558   5.239  0.2462 -0.1371 -0.3248
  124MOL    N8437230   2.993   3.443   5.318 -0.2988 -0.1196 -0.2649
  124MOL    H8537231   3.019   3.035   5.361 -0.1263 -0.2820 -0.7558
  124MOL    H8637232   2.898   3.149   5.351 -0.3841 -0.9637  2.8296
  124MOL    H8737233   3.197   3.199   5.404  0.0868  0.3517  0.4957
  124MOL    H8837234   3.314   3.369   5.306 -0.2957 -0.1327  0.6660
  124MOL    H8937235   3.327   3.561   5.160 -0.2294 -0.0176  0.0358
  124MOL    H9037236   3.112   3.705   5.130 -0.5081  0.0111 -1.0938
  124MOL    H9137237   2.909   3.619   5.222 -0.3802 -0.2855  2.1206
  124MOL    C9237238   3.051   3.279   5.542 -0.0064 -0.3752  0.5063
  124MOL    C9337239   3.070   3.179   5.655 -0.4627  0.5775 -0.1703
  124MOL    C9437240   3.193   3.211   5.733  0.4810 -0.5283  0.0125
  124MOL    C9537241   3.297   3.112   5.752  0.6022 -0.0095  0.1184
  124MOL    C9637242   3.396   3.126   5.849  0.2817  0.4084 -0.0202
  124MOL    C9737243   3.404   3.251   5.910 -0.4004  0.5996 -0.3614
  124MOL    C9837244   3.306   3.349   5.875  1.0031 -0.6691 -0.3715
  124MOL    N9937245   3.197   3.326   5.797  0.1679  0.1287 -0.8373
  124MOL   H10037246   2.947   3.307   5.526 -1.0973 -2.6453  3.0849
  124MOL   H10137247   3.100   3.370   5.575  0.9551 -0.8337  0.3640
  124MOL   H10237248   3.087   3.082   5.609  0.8567 -0.6868  2.8521
  124MOL   H10337249   3.278   3.018   5.703 -0.5378 -0.2513  0.9802
  124MOL   H10437250   3.463   3.048   5.880 -0.0986 -0.3216 -0.9858
  124MOL   H10537251   3.477   3.269   5.988 -0.9999  3.6324 -0.4427
  124MOL   H10637252   3.300   3.441   5.932 -2.6586 -1.1257  0.0995
  124MOL   C10737253   2.931   3.170   5.736  0.2300  0.4802 -0.2120
  124MOL   C10837254   2.834   3.053   5.707 -0.0195 -0.2104  0.7693
  124MOL   C10937255   2.904   2.925   5.735  0.2261 -0.5705 -0.4397
  124MOL   C11037256   2.914   2.831   5.633 -0.4899 -0.0908  0.2793
  124MOL   C11137257   2.981   2.712   5.663  0.5001 -0.1016 -0.5529
  124MOL   C11237258   3.019   2.680   5.790 -0.2642 -0.1186  0.2777
  124MOL   C11337259   3.010   2.779   5.884 -0.3155  0.0852  0.2030
  124MOL   N11437260   2.948   2.903   5.862 -0.6101 -0.5121 -0.2960
  124MOL   H11537261   2.878   3.265   5.725 -1.6150 -0.4341  0.4137
  124MOL   H11637262   2.940   3.169   5.845 -0.7590 -2.3625 -0.1246
  124MOL   H11737263   2.823   3.055   5.599  0.8334 -0.2667  0.6763
  124MOL   H11837264   2.866   2.853   5.539 -0.4245  0.6923  0.4253
  124MOL   H11937265   2.997   2.642   5.583 -0.6892 -1.4036  0.3113
  124MOL   H12037266   3.044   2.576   5.807  0.2308  0.2804  2.1560
  124MOL   H12137267   3.060   2.757   5.977 -0.4170  3.1606  1.0584
  124MOL   C12237268   2.703   3.061   5.780  0.1407 -0.0305 -0.3815
  124MOL   C12337269   2.611   3.186   5.747  0.3586 -0.8367 -0.1265
  124MOL   C12437270   2.614   3.227   5.600 -0.0280  0.0087 -0.4035
  124MOL   C12537271   2.670   3.351   5.563  0.4877  0.2431  0.2674
  124MOL   C12637272   2.703   3.376   5.430  0.3866 -0.7489  0.4319
  124MOL   C12737273   2.653   3.285   5.330 -0.3886 -0.1856  0.6363
  124MOL   C12837274   2.598   3.164   5.384 -0.7365  0.0719 -0.4991
  124MOL   N12937275   2.578   3.131   5.512 -0.7577 -0.3156  0.4511
  124MOL   H13037276   2.714   3.055   5.888  0.9313 -0.3038 -0.4737
  124MOL   H13137277   2.648   2.974   5.745  0.5803 -0.7099  0.6055
  124MOL   H13237278   2.640   3.275   5.802 -1.1404 -0.5787  0.2772
  124MOL   H13337279   2.703   3.415   5.644  2.9394  0.5274 -0.9224
  124MOL   H13437280   2.756   3.465   5.400  1.1971 -1.8195 -1.3925
  124MOL   H13537281   2.668   3.298   5.224 -0.1517 -1.4716  0.5054
  124MOL   H13637282   2.586   3.081   5.315 -0.4706  0.3632 -0.8969
  124MOL   C13737283   2.470   3.171   5.813  0.5533 -0.0961 -0.5638
  124MOL   C13837284   2.375   3.297   5.787  0.1341 -0.5740  0.9864
  124MOL   C13937285   2.229   3.256   5.832 -0.0135  0.0519  0.4807
  124MOL   C14037286   2.120   3.261   5.740  0.1332  0.0682  0.4356
  124MOL   C14137287   1.991   3.219   5.772 -0.0244 -0.1951  0.3182
  124MOL   C14237288   1.979   3.177   5.907 -0.0524  0.6613 -0.3418
  124MOL   C14337289   2.089   3.187   6.000  0.0352 -0.1997 -0.3709
  124MOL   N14437290   2.208   3.235   5.964 -0.0566  0.3229 -0.0431
  124MOL   H14537291   2.484   3.159   5.920 -0.6633 -0.8582 -0.4768
  124MOL   H14637292   2.426   3.082   5.767 -1.6073  0.2550  0.7705
  124MOL   H14737293   2.362   3.303   5.679 -1.7384  0.1863  1.2385
  124MOL   H14837294   2.149   3.285   5.639  0.5989 -0.2395  0.4933
  124MOL   H14937295   1.916   3.224   5.695 -0.6622  0.4355  0.9759
  124MOL   H15037296   1.887   3.146   5.954  0.1739  0.8140  0.2065
  124MOL   H15137297   2.090   3.167   6.106  1.1283  1.9095  0.0370
  124MOL   C15237298   2.416   3.440   5.838  0.8035 -0.2062 -0.0552
  124MOL   C15337299   2.320   3.560   5.805 -0.6552 -1.2412 -0.4192
  124MOL   C15437300   2.338   3.684   5.887 -0.3826 -0.8146  0.2310
  124MOL   C15537301   2.460   3.720   5.948 -0.2086 -0.8366 -0.5718
  124MOL   C15637302   2.466   3.835   6.019  1.0263 -0.4435 -0.0503
  124MOL   C15737303   2.348   3.911   6.038 -0.3171  0.0146  0.2916
  124MOL   C15837304   2.226   3.859   5.991 -0.6343  0.0537 -0.2658
  124MOL   N15937305   2.225   3.753   5.910 -0.3650 -0.4130  0.2749
  124MOL   H16037306   2.514   3.477   5.806  0.5710 -0.3277 -0.9262
  124MOL   H16137307   2.419   3.430   5.946 -0.9869 -1.2928 -0.0959
  124MOL   H16237308   2.225   3.528   5.847 -0.9655  1.1413  0.7635
  124MOL   H16337309   2.551   3.664   5.935  0.7670  0.7629 -0.8147
  124MOL   H16437310   2.559   3.855   6.071  0.3706  0.5480  0.7520
  124MOL   H16537311   2.353   3.998   6.102 -0.9496  0.5950 -0.4396
  124MOL   H16637312   2.136   3.917   6.008 -1.9394 -2.0165  0.0624
  124MOL   C16737313   2.315   3.578   5.651  0.3982  0.0961 -0.2315
  124MOL   C16837314   2.355   3.705   5.575 -0.0915 -0.5010  0.4088
  124MOL   C16937315   2.502   3.749   5.588  0.8645 -0.6376  0.4356
  124MOL   C17037316   2.541   3.879   5.627 -0.0070 -0.7787 -0.4912
  124MOL   C17137317   2.676   3.918   5.623  0.7739  0.0251  0.5413
  124MOL   C17237318   2.770   3.817   5.593 -0.6462 -0.2643 -0.4648
  124MOL   C17337319   2.722   3.683   5.568  0.0618  0.0144 -0.5647
  124MOL   N17437320   2.589   3.654   5.554 -0.5867  0.7516 -0.1634
  124MOL   H17537321   2.208   3.567   5.638  0.4117  1.5594 -1.8122
  124MOL   H17637322   2.363   3.500   5.592 -1.1308 -0.7529 -0.3539
  124MOL   H17737323   2.303   3.796   5.607  1.8880  0.8643 -0.1641
  124MOL   H17837324   2.474   3.950   5.674  1.4273  0.5688 -0.4265
  124MOL   H17937325   2.703   4.013   5.666 -1.0005  1.0184 -0.4382
  124MOL   H18037326   2.875   3.841   5.586 -0.5637 -0.9484 -1.6376
  124MOL   H18137327   2.792   3.607   5.536  1.0971  0.9503 -0.5692
  124MOL   C18237328   2.339   3.689   5.424 -0.2611 -0.1110 -0.1133
  124MOL   C18337329   2.192   3.693   5.388  0.1058 -0.2834 -0.2665
  124MOL   C18437330   2.120   3.822   5.416 -0.4617  0.2715 -0.2682
  124MOL   C18537331   1.985   3.814   5.460  0.6153 -0.1486 -0.1158
  124MOL   C18637332   1.911   3.930   5.466 -0.3183  0.5030 -0.5415
  124MOL   C18737333   1.973   4.052   5.431  0.7686 -0.2273  0.2439
  124MOL   C18837334   2.111   4.049   5.389 -0.1436  0.6103 -0.2256
  124MOL   N18937335   2.180   3.938   5.378  0.1917  0.0347  0.0903
  124MOL   H19037336   2.382   3.594   5.396 -1.9939 -0.8747 -0.2672
  124MOL   H19137337   2.383   3.769   5.366 -2.0764 -0.6237 -2.2614
  124MOL   H19237338   2.139   3.614   5.442  1.4377 -0.6168  0.5851
  124MOL   H19337339   1.953   3.718   5.497 -0.2401 -0.6878 -2.1861
  124MOL   H19437340   1.807   3.923   5.494 -0.6871  0.6678 -1.8132
  124MOL   H19537341   1.918   4.145   5.438  2.5203  0.9509 -1.2584
  124MOL   H19637342   2.170   4.137   5.370  0.8274  0.4221  1.7439
  124MOL   C19737343   2.174   3.666   5.238  0.2897  0.4347 -0.8293
  124MOL   C19837344   2.206   3.526   5.191  0.3172  0.5446 -0.6973
  124MOL   C19937345   2.143   3.415   5.276  0.4806  0.2418 -0.5732
  124MOL   C20037346   2.229   3.313   5.324  0.4265  0.2151 -0.6539
  124MOL   C20137347   2.159   3.204   5.383 -0.0739 -0.3719  0.2831
  124MOL   C20237348   2.020   3.200   5.393 -0.0844 -0.1568  0.0238
  124MOL   C20337349   1.946   3.305   5.341 -0.5266 -0.2056  0.2651
  124MOL   N20437350   2.007   3.411   5.277  0.4429  0.4406  0.4963
  124MOL   H20537351   2.234   3.736   5.179 -0.0584  1.3236 -0.1472
  124MOL   H20637352   2.072   3.678   5.202 -0.1366  1.4082  0.6323
  124MOL   H20737353   2.314   3.514   5.195  0.3788  0.3918 -2.2445
  124MOL   H20837354   2.335   3.307   5.304  0.4742 -0.1401 -0.3063
  124MOL   H20937355   2.218   3.123   5.422  2.0755  1.3934  0.7597
  124MOL   H21037356   1.971   3.114   5.436 -0.5950 -0.2900 -0.8350
  124MOL   H21137357   1.839   3.292   5.334 -0.4299 -0.9449  0.0850
  124MOL   C21237358   2.179   3.488   5.042  0.2050 -0.8812 -0.3329
  124MOL   C21337359   2.272   3.580   4.955  0.0751  0.2052  0.1018
  124MOL   C21437360   2.419   3.556   4.968 -0.1149  0.3908  0.0680
  124MOL   C21537361   2.504   3.646   5.032 -0.7812  0.2275 -0.1438
  124MOL   C21637362   2.642   3.610   5.041  0.4056  0.3079 -0.4968
  124MOL   C21737363   2.687   3.483   4.999  0.0292 -0.2666  0.1123
  124MOL   C21837364   2.596   3.403   4.936  0.2666  0.4301 -1.1268
  124MOL   N21937365   2.462   3.435   4.928  0.1019  0.5231 -0.6019
  124MOL   H22037366   2.072   3.502   5.021  0.0497  0.4367  1.1961
  124MOL   H22137367   2.203   3.384   5.024 -0.7316 -1.1322 -0.1438
  124MOL   H22237368   2.250   3.683   4.981 -1.1659  0.1208 -0.5970
  124MOL   H22337369   2.480   3.745   5.069  0.7429  0.0767  1.3099
  124MOL   H22437370   2.708   3.686   5.080 -0.5804  1.4990 -1.1093
  124MOL   H22537371   2.792   3.458   4.996  0.7784  2.7746  0.1654
  124MOL   H22637372   2.625   3.313   4.884 -1.2704 -0.3026 -0.7360
  124MOL   C22737373   2.234   3.572   4.808 -1.1418  0.5861  0.6048
  124MOL   C22837374   2.148   3.692   4.756  0.5124 -0.0304  0.4144
  124MOL   C22937375   2.009   3.692   4.809 -0.3395  0.6438  0.2153
  124MOL   C23037376   1.900   3.641   4.735  0.0296  0.8179 -0.6642
  124MOL   C23137377   1.773   3.623   4.792 -0.5201 -0.5536  0.1799
  124MOL   C23237378   1.763   3.645   4.929  0.5472  0.7837 -0.4043
  124MOL   C23337379   1.869   3.708   4.994  0.7904  0.0406 -0.2506
  124MOL   N23437380   1.991   3.729   4.935 -0.2031  0.2083  0.4206
  124MOL   H23537381   2.181   3.478   4.793 -1.6017  0.2195  4.1792
  124MOL   H23637382   2.323   3.583   4.745 -1.1378  0.0476  0.5109
  124MOL   H23737383   2.133   3.667   4.651 -0.7095  1.2596  0.2558
  124MOL   H23837384   1.923   3.604   4.636  2.6288 -0.8366  0.4977
  124MOL   H23937385   1.688   3.576   4.744  0.2612 -0.3673 -1.3942
  124MOL   H24037386   1.677   3.616   4.986 -0.2190 -0.3884 -2.1104
  124MOL   H24137387   1.871   3.721   5.101 -0.7676  0.5077 -0.2701
  124MOL   C24237388   2.207   3.833   4.765 -0.2334  0.0599  0.8196
  124MOL   C24337389   2.235   3.916   4.633  0.2498  1.0915 -0.2005
  124MOL   C24437390   2.112   3.957   4.552 -0.4344  0.4682  0.0857
  124MOL   C24537391   1.979   3.963   4.600 -0.6675 -0.1547  0.0541
  124MOL   C24637392   1.869   3.979   4.517  0.6855 -0.1659  0.8610
  124MOL   C24737393   1.894   3.975   4.384 -0.8384  0.3241  0.1221
  124MOL   C24837394   2.031   3.976   4.333 -0.9106  0.6488 -0.0067
  124MOL   N24937395   2.135   3.965   4.420 -0.1973 -0.4574 -1.1123
  124MOL   H25037396   2.302   3.815   4.816 -0.4736 -2.1886  0.4882
  124MOL   H25137397   2.151   3.899   4.831  0.1788 -1.1245  2.3712
  124MOL   H25237398   2.279   3.852   4.556 -0.8389  0.3203 -0.2038
  124MOL   H25337399   1.964   3.959   4.707  0.2467 -2.3141  0.1289
  124MOL   H25437400   1.770   3.987   4.560 -1.2833  0.5943 -3.4951
  124MOL   H25537401   1.809   3.994   4.321 -2.5010 -2.6002  1.3321
  124MOL   H25637402   2.054   3.975   4.228 -0.4911  0.8924  0.0824
  124MOL   C25737403   2.333   4.036   4.663 -0.4021 -0.0707  0.9890
  124MOL   C25837404   2.479   3.996   4.697 -0.2750  0.6847 -0.1892
  124MOL   C25937405   2.536   3.888   4.610 -0.1506 -0.1495 -0.7789
  124MOL   C26037406   2.558   3.756   4.657 -0.2939 -0.5650 -0.2413
  124MOL   C26137407   2.604   3.661   4.564  0.3508 -0.4056 -0.2928
  124MOL   C26237408   2.613   3.695   4.426 -0.3789  1.2873  0.1586
  124MOL   C26337409   2.595   3.833   4.394 -0.2149 -0.3783  0.4253
  124MOL   N26437410   2.551   3.923   4.482 -0.1354 -0.9713  0.5110
  124MOL   H26537411   2.286   4.111   4.726  1.1949  0.0532  2.0696
  124MOL   H26637412   2.350   4.083   4.566  0.5321 -0.5388  0.9128
  124MOL   H26737413   2.460   3.955   4.796  0.1450  0.1478 -0.3258
  124MOL   H26837414   2.544   3.734   4.762  2.9252 -1.6050  0.0142
  124MOL   H26937415   2.613   3.557   4.592  0.6404 -0.4962 -0.7094
  124MOL   H27037416   2.653   3.620   4.359  0.6140  0.6278  1.4896
  124MOL   H27137417   2.593   3.866   4.291 -0.6372  1.4705  1.0173
  124MOL   C27237418   2.564   4.121   4.700  0.0991 -0.3715  0.4397
  124MOL   C27337419   2.709   4.097   4.750  0.0105 -0.3419  1.2945
  124MOL   C27437420   2.796   4.219   4.713 -0.4395  0.2848 -0.5589
  124MOL   C27537421   2.887   4.203   4.608 -0.5540 -0.3550  0.2058
  124MOL   C27637422   2.952   4.312   4.559 -0.1210 -0.1488 -0.1217
  124MOL   C27737423   2.923   4.438   4.620 -0.7481 -0.4105 -0.1629
  124MOL   C27837424   2.840   4.447   4.732  0.3275  0.2094 -0.1169
  124MOL   N27937425   2.776   4.337   4.778 -0.0860 -0.1039 -0.4211
  124MOL   H28037426   2.518   4.204   4.753 -0.0076 -0.6687  0.8097
  124MOL   H28137427   2.570   4.150   4.595 -1.0690 -1.2598  0.1157
  124MOL   H28237428   2.744   4.005   4.703 -1.1099  0.0610 -0.3712
  124MOL   H28337429   2.907   4.107   4.560  0.1859  1.2082 -2.7646
  124MOL   H28437430   3.017   4.288   4.477 -1.3459 -0.4997 -1.0059
  124MOL   H28537431   2.972   4.526   4.580 -1.1634  0.0165  0.2552
  124MOL   H28637432   2.818   4.538   4.786 -0.9906  1.0708 -2.0353
  124MOL   C28737433   2.717   4.052   4.894 -0.2657 -0.0807 -0.0867
  124MOL   C28837434   2.861   4.016   4.928  0.0658  0.0569  0.1957
  124MOL   C28937435   2.884   4.030   5.074  0.1855 -0.3953  0.5507
  124MOL   C29037436   2.888   4.161   5.124 -0.3975 -0.3245 -0.5432
  124MOL   C29137437   2.912   4.183   5.256  0.0728  0.0513  0.3543
  124MOL   C29237438   2.931   4.074   5.336 -0.1151 -0.7281 -0.1083
  124MOL   C29337439   2.905   3.947   5.284 -0.5468  0.4360  0.2905
  124MOL   N29437440   2.883   3.925   5.155 -0.1139  0.6086 -0.0800
  124MOL   H29537441   2.665   3.957   4.907 -0.7117  0.3229  1.2185
  124MOL   H29637442   2.675   4.133   4.954 -0.2152  0.6513 -1.0353
  124MOL   H29737443   2.931   4.083   4.877 -1.2565  1.4621  0.1655
  124MOL   H29837444   2.872   4.244   5.057  2.4894  0.2389 -0.5974
  124MOL   H29937445   2.929   4.282   5.295  2.3675 -0.0971 -0.1853
  124MOL   H30037446   2.956   4.083   5.441 -2.7688 -3.1507  0.7989
  124MOL   H30137447   2.917   3.856   5.340  0.9649 -0.5038 -1.4905
  124MOL   H30237448   2.881   3.910   4.912  2.6008  0.2929  1.5052
  125MOL     C137449   8.126   3.744   4.896  0.4930 -0.9567 -0.3600
  125MOL     C237450   7.967   3.748   4.880  0.0226 -0.7668  0.5072
  125MOL     C337451   7.898   3.669   4.991 -0.2180 -0.5283  0.1541
  125MOL     C437452   7.947   3.676   5.124 -0.8051  0.4463  0.0796
  125MOL     C537453   7.871   3.616   5.227  0.1105 -0.4127 -0.0764
  125MOL     C637454   7.750   3.558   5.191 -0.4129 -0.4113  0.3733
  125MOL     C737455   7.715   3.553   5.055 -0.8951  0.4034  0.6057
  125MOL     N837456   7.787   3.599   4.957  0.0783  0.4059  0.3407
  125MOL     H937457   0.002   3.638   4.893  0.1175 -1.0362 -0.9893
  125MOL    H1037458   0.039   3.785   4.819 -1.5630  0.3907 -1.4113
  125MOL    H1137459   7.940   3.700   4.786  0.0782  2.3248 -1.1537
  125MOL    H1237460   8.045   3.710   5.155 -0.9396  2.4506 -1.5571
  125MOL    H1337461   7.910   3.626   5.327 -0.5651  3.2771 -0.0887
  125MOL    H1437462   7.688   3.512   5.267  0.1507 -0.5402  0.7584
  125MOL    H1537463   7.622   3.501   5.037 -1.6054  1.6129  0.6804
  125MOL    H1637464   0.002   3.788   4.992  0.3670 -1.6272 -0.0074
  125MOL    C1737465   7.914   3.896   4.883 -0.0207  0.8026  0.4055
  125MOL    C1837466   7.964   3.997   4.768 -0.1172  1.0621 -0.0137
  125MOL    C1937467   7.929   3.932   4.629  0.1573 -0.4399  1.0555
  125MOL    C2037468   8.017   3.857   4.547  0.2377  0.1256 -0.5003
  125MOL    C2137469   7.968   3.799   4.425  0.0815  0.2698  0.2710
  125MOL    C2237470   7.825   3.797   4.407  0.1017  0.1890  0.4468
  125MOL    C2337471   7.745   3.868   4.501 -0.1279 -0.0541  0.4256
  125MOL    N2437472   7.792   3.930   4.611 -0.0466  0.3584  1.0415
  125MOL    H2537473   7.943   3.940   4.978 -2.4716  2.7289  0.3026
  125MOL    H2637474   7.807   3.879   4.880 -0.0443  1.2355 -2.0817
  125MOL    H2737475   8.072   4.012   4.766 -0.2467  1.9325 -0.8056
  125MOL    H2837476   8.123   3.854   4.567  0.0415 -1.7432  0.3907
  125MOL    H2937477   8.028   3.744   4.354  1.5468  0.9553  0.9663
  125MOL    H3037478   7.778   3.735   4.332  1.0162 -2.3727  1.9123
  125MOL    H3137479   7.640   3.887   4.482  0.2006  0.7948 -0.5982
  125MOL    C3237480   7.910   4.139   4.771 -0.0699 -0.5360  0.6097
  125MOL    C3337481   7.931   4.218   4.897  0.4518 -0.2919  0.0976
  125MOL    C3437482   8.081   4.233   4.918  0.0662  0.3925  0.2863
  125MOL    C3537483   0.005   4.325   4.846 -0.6954 -0.2200 -0.5455
  125MOL    C3637484   0.139   4.338   4.880 -0.7431  0.0193 -0.7206
  125MOL    C3737485   0.200   4.248   4.971  0.0482  0.1215  0.1957
  125MOL    C3837486   0.115   4.155   5.032 -0.2818 -0.3338 -0.0057
  125MOL    N3937487   8.135   4.148   5.008 -0.5556 -0.4746 -0.0416
  125MOL    H4037488   7.804   4.136   4.748 -0.0583 -2.2955  0.7414
  125MOL    H4137489   7.967   4.191   4.694 -1.4193 -0.8744 -0.6175
  125MOL    H4237490   7.891   4.152   4.974  1.3758 -2.9005 -1.5892
  125MOL    H4337491   8.119   4.369   4.755 -0.7633 -0.1776 -0.4962
  125MOL    H4437492   0.210   4.407   4.838  0.1167 -0.9979 -0.9476
  125MOL    H4537493   0.304   4.253   4.997 -0.0586  2.9080  0.1913
  125MOL    H4637494   0.156   4.093   5.110 -0.7079  0.3387  0.7565
  125MOL    C4737495   7.854   4.348   4.899 -0.1575 -0.1436  0.9888
  125MOL    C4837496   7.858   4.425   5.027  0.0640 -0.3821  0.1613
  125MOL    C4937497   7.971   4.519   5.045 -0.5608  0.7677  0.5309
  125MOL    C5037498   8.061   4.497   5.155  0.3183 -0.6093 -0.1775
  125MOL    C5137499   0.001   4.593   5.184 -0.8536 -0.3674 -0.4398
  125MOL    C5237500   0.007   4.707   5.104  0.1733 -0.0285  0.5768
  125MOL    C5337501   8.076   4.712   4.993 -0.2295 -0.3345  0.1055
  125MOL    N5437502   7.988   4.623   4.955  0.3652  0.1705 -0.0647
  125MOL    H5537503   7.755   4.306   4.883 -0.6291  1.4371 -0.4183
  125MOL    H5637504   7.873   4.406   4.809 -0.8955 -1.5808 -0.1081
  125MOL    H5737505   7.847   4.356   5.111 -3.3379  1.6276  1.4589
  125MOL    H5837506   8.057   4.425   5.235 -2.0584 -0.1450  0.1795
  125MOL    H5937507   0.065   4.584   5.270 -1.5838 -2.4498 -0.0792
  125MOL    H6037508   0.074   4.790   5.122  0.0377  0.6980 -2.0144
  125MOL    H6137509   8.075   4.799   4.928  0.1808 -0.7086 -0.4113
  125MOL    C6237510   7.726   4.505   5.036 -0.0000 -0.6834  0.0284
  125MOL    C6337511   7.598   4.435   5.090  0.1949 -0.0299  0.7097
  125MOL    C6437512   7.590   4.415   5.237 -0.5914 -0.1646  0.1141
  125MOL    C6537513   7.539   4.291   5.283 -0.4289  0.2023  0.3690
  125MOL    C6637514   7.511   4.281   5.419  0.2965 -0.1316  0.0695
  125MOL    C6737515   7.524   4.393   5.501  0.5647 -0.4190  0.1777
  125MOL    C6837516   7.566   4.512   5.443 -0.7346  0.3101  0.0414
  125MOL    N6937517   7.609   4.523   5.317 -0.4814 -0.3777 -0.3119
  125MOL    H7037518   7.710   4.565   4.946  1.5457  0.9665  0.8146
  125MOL    H7137519   7.746   4.593   5.097 -0.1837 -1.2981  0.9775
  125MOL    H7237520   7.607   4.336   5.047 -0.3244 -0.5938  1.8822
  125MOL    H7337521   7.504   4.216   5.213  0.7975 -0.5528  0.5560
  125MOL    H7437522   7.472   4.190   5.461  0.8585 -0.4769 -0.1596
  125MOL    H7537523   7.500   4.392   5.606 -0.2030  0.8797  0.0319
  125MOL    H7637524   7.575   4.600   5.504 -1.9406 -0.1036  0.8260
  125MOL    C7737525   7.466   4.509   5.044 -0.7786 -0.2717  0.6421
  125MOL    C7837526   7.421   4.502   4.894 -0.2796 -0.4031  0.0207
  125MOL    C7937527   7.470   4.371   4.829 -0.1808  0.2960  0.0471
  125MOL    C8037528   7.554   4.376   4.721 -0.7019  1.1720  0.3959
  125MOL    C8137529   7.578   4.257   4.645 -0.3674  0.1951 -0.8635
  125MOL    C8237530   7.519   4.139   4.689 -0.5963  0.0631 -0.4767
  125MOL    C8337531   7.434   4.147   4.798  0.7830  0.5303 -0.6218
  125MOL    N8437532   7.412   4.259   4.868 -0.2211 -0.0304 -0.4249
  125MOL    H8537533   7.480   4.615   5.066 -2.0960  0.1693 -0.6145
  125MOL    H8637534   7.383   4.478   5.107 -0.4610  2.0143  2.2356
  125MOL    H8737535   7.469   4.588   4.846 -0.2085 -0.6769 -0.4076
  125MOL    H8837536   7.609   4.469   4.713  0.1117  0.6326 -0.3132
  125MOL    H8937537   7.655   4.248   4.570  1.3895  0.9835  0.7910
  125MOL    H9037538   7.525   4.042   4.642  1.5921 -0.3056  0.5149
  125MOL    H9137539   7.376   4.061   4.829  1.4540  0.7604  1.3420
  125MOL    C9237540   7.269   4.519   4.873  0.5433  0.1028 -0.0314
  125MOL    C9337541   7.211   4.657   4.868  0.6330 -0.0968 -0.2279
  125MOL    C9437542   7.065   4.647   4.827  0.2143  0.2936 -0.6395
  125MOL    C9537543   7.024   4.726   4.717 -1.3275  0.6140 -0.0757
  125MOL    C9637544   6.903   4.699   4.653  0.2085  0.7715 -0.0404
  125MOL    C9737545   6.815   4.614   4.724  0.5645  0.5716  0.0369
  125MOL    C9837546   6.858   4.556   4.849  0.2160 -0.5523  0.1252
  125MOL    N9937547   6.981   4.563   4.891 -0.7126  0.2206  0.4525
  125MOL   H10037548   7.210   4.458   4.941  1.1281 -1.3932 -0.8328
  125MOL   H10137549   7.240   4.482   4.775  1.0433  1.7416 -0.8156
  125MOL   H10237550   7.275   4.702   4.792  2.0247  3.0750  2.6918
  125MOL   H10337551   7.094   4.793   4.670  0.1235 -0.9092 -0.1375
  125MOL   H10437552   6.871   4.760   4.569 -0.0380 -0.6621 -1.0087
  125MOL   H10537553   6.711   4.602   4.698  0.5159 -0.9124  0.8880
  125MOL   H10637554   6.796   4.487   4.904  1.4103  1.4645  4.2674
  125MOL   C10737555   7.217   4.752   4.990  0.1580  0.0981 -0.2436
  125MOL   C10837556   7.189   4.908   4.979 -0.3565 -0.6047  0.2343
  125MOL   C10937557   7.173   4.963   5.115  0.1349 -0.5457  0.8200
  125MOL   C11037558   7.052   5.004   5.171 -0.1595 -0.2948  0.2217
  125MOL   C11137559   7.036   5.043   5.304 -0.1907 -0.5435 -0.3462
  125MOL   C11237560   7.157   5.043   5.376  0.3240  0.1865 -0.1819
  125MOL   C11337561   7.280   5.012   5.314 -0.5385 -0.0052  0.3475
  125MOL   N11437562   7.288   4.971   5.185 -0.5349 -0.1826  0.3242
  125MOL   H11537563   7.320   4.743   5.026 -0.9232 -3.6762  2.1557
  125MOL   H11637564   7.152   4.705   5.064  0.7093 -1.5183 -0.7708
  125MOL   H11737565   7.086   4.911   4.944 -0.7974 -1.1078  1.4768
  125MOL   H11837566   6.958   5.008   5.116  1.7323 -1.2643 -3.2425
  125MOL   H11937567   6.944   5.077   5.351  1.9259 -0.5436  4.1218
  125MOL   H12037568   7.163   5.064   5.481  0.7909 -1.9551  0.2469
  125MOL   H12137569   7.371   5.004   5.372  0.5014  0.5278 -1.1891
  125MOL   C12237570   7.297   4.975   4.891 -0.1573  0.5271 -0.4708
  125MOL   C12337571   7.251   5.075   4.780 -0.5154 -0.8643 -0.2236
  125MOL   C12437572   7.193   5.198   4.845 -0.2421  0.7927  0.4846
  125MOL   C12537573   7.061   5.225   4.821  0.1949  0.4554  0.1171
  125MOL   C12637574   7.007   5.342   4.878  0.8678 -0.1742  0.1566
  125MOL   C12737575   7.090   5.431   4.949  0.5493  0.5682  0.0016
  125MOL   C12837576   7.227   5.389   4.968 -0.2531 -0.0561  0.1304
  125MOL   N12937577   7.276   5.282   4.910 -0.8952  0.4259  0.5310
  125MOL   H13037578   7.357   4.897   4.843 -1.0271 -0.4492  0.0156
  125MOL   H13137579   7.361   5.030   4.960  0.3406 -1.6290  0.8400
  125MOL   H13237580   7.170   5.025   4.728 -1.4887  1.4884 -1.0545
  125MOL   H13337581   7.001   5.147   4.777  0.5933 -1.0675  2.1860
  125MOL   H13437582   6.902   5.365   4.875  0.5409 -1.1589  2.6448
  125MOL   H13537583   7.047   5.524   4.982  0.0217 -0.3904  2.0356
  125MOL   H13637584   7.297   5.450   5.022 -0.0054 -1.6267  1.6431
  125MOL   C13737585   7.349   5.134   4.663 -0.0418 -0.1737 -0.2424
  125MOL   C13837586   7.440   5.033   4.593 -0.2406 -0.5351  0.0951
  125MOL   C13937587   7.365   4.920   4.540  0.3406  0.7814 -0.5929
  125MOL   C14037588   7.265   4.935   4.450  0.1087  0.2456  0.2279
  125MOL   C14137589   7.206   4.816   4.396  0.1322 -0.8964 -0.1393
  125MOL   C14237590   7.264   4.697   4.428  0.1846 -0.5950  0.1940
  125MOL   C14337591   7.372   4.691   4.521 -0.4919 -0.3556 -0.4436
  125MOL   N14437592   7.414   4.803   4.582  0.0720  0.2531 -0.2691
  125MOL   H14537593   7.409   5.219   4.698  3.3914 -1.8845 -1.7548
  125MOL   H14637594   7.280   5.174   4.589 -2.8328  0.5433  2.6269
  125MOL   H14737595   7.514   5.000   4.665  0.3165 -0.3159 -0.3722
  125MOL   H14837596   7.241   5.037   4.423 -0.1770  0.0315 -0.3366
  125MOL   H14937597   7.126   4.827   4.325  2.6067  2.6214 -2.5730
  125MOL   H15037598   7.222   4.610   4.379  0.4196  0.5093 -2.0031
  125MOL   H15137599   7.416   4.603   4.564  0.0781  0.7130  1.2356
  125MOL   C15237600   7.511   5.111   4.485  0.3552 -0.0690 -0.3694
  125MOL   C15337601   7.612   5.025   4.405 -0.0018  0.4867  0.0034
  125MOL   C15437602   7.605   5.073   4.261 -0.2621  0.4811 -0.7131
  125MOL   C15537603   7.579   4.978   4.157  0.0769 -0.6270  0.4572
  125MOL   C15637604   7.598   5.008   4.022 -0.1121  0.0067  0.1159
  125MOL   C15737605   7.618   5.145   3.997 -1.0125  0.6617  0.0510
  125MOL   C15837606   7.632   5.236   4.102 -0.4577 -0.2598 -0.8386
  125MOL   N15937607   7.623   5.202   4.234  0.5024 -0.5663 -0.0075
  125MOL   H16037608   7.557   5.198   4.532  0.4992 -1.1066  1.4774
  125MOL   H16137609   7.436   5.156   4.420  1.4187  0.0835 -1.5099
  125MOL   H16237610   7.574   4.923   4.404  2.3895 -0.4384  0.2735
  125MOL   H16337611   7.559   4.879   4.194 -2.0118 -0.4374 -0.1060
  125MOL   H16437612   7.585   4.940   3.939 -1.7944 -0.0782  0.4273
  125MOL   H16537613   7.605   5.175   3.894 -0.6743  0.9108  0.0778
  125MOL   H16637614   7.645   5.340   4.077 -2.4443  0.2481  0.1704
  125MOL   C16737615   7.762   5.026   4.444  0.4721  0.3401  0.4846
  125MOL   C16837616   7.806   4.914   4.545  1.3498  0.2730 -0.0749
  125MOL   C16937617   7.812   4.779   4.476 -0.1219 -0.2274  0.1586
  125MOL   C17037618   7.724   4.677   4.507  0.1235  0.2837  0.1498
  125MOL   C17137619   7.733   4.552   4.443  0.7788 -0.4042 -0.1303
  125MOL   C17237620   7.833   4.537   4.349 -0.6092  0.0575 -0.6615
  125MOL   C17337621   7.909   4.648   4.309  0.2133  0.6639  0.4611
  125MOL   N17437622   7.904   4.769   4.378  0.0630  0.1108  0.1263
  125MOL   H17537623   7.784   5.123   4.488 -1.2229  1.2254 -0.5932
  125MOL   H17637624   7.826   5.012   4.356 -0.9677 -0.8830 -0.3914
  125MOL   H17737625   7.725   4.908   4.618  1.1539 -0.6337 -0.3651
  125MOL   H17837626   7.659   4.692   4.592 -0.7467  0.9991 -0.6196
  125MOL   H17937627   7.670   4.470   4.475  1.7521 -1.2348 -0.3514
  125MOL   H18037628   7.839   4.441   4.300  1.9459 -0.2863  0.2775
  125MOL   H18137629   7.968   4.644   4.219 -0.1404 -3.3118  0.3308
  125MOL   C18237630   7.934   4.950   4.620  0.8476  0.0055 -0.2888
  125MOL   C18337631   7.930   5.080   4.706  0.7912 -0.1645 -0.0253
  125MOL   C18437632   7.815   5.074   4.806 -0.7398 -0.2904  0.5566
  125MOL   C18537633   7.717   5.172   4.805  0.3220  0.2675 -0.8641
  125MOL   C18637634   7.624   5.176   4.907 -0.1494 -0.2059 -0.3262
  125MOL   C18737635   7.638   5.079   5.007 -0.4292 -0.3365 -0.3069
  125MOL   C18837636   7.729   4.977   4.995  0.3092  0.1378  0.1953
  125MOL   N18937637   7.825   4.976   4.902 -0.0511  0.3491  0.0231
  125MOL   H19037638   8.012   4.948   4.543 -0.4059 -0.1376 -1.5677
  125MOL   H19137639   7.952   4.868   4.690  2.0907 -0.4183 -1.0938
  125MOL   H19237640   7.897   5.162   4.642 -0.8672 -2.8659 -2.7654
  125MOL   H19337641   7.718   5.254   4.734  1.7409  0.6471 -0.4291
  125MOL   H19437642   7.546   5.250   4.915 -0.8778 -0.9491 -0.4675
  125MOL   H19537643   7.578   5.076   5.097  0.1731  1.2320  0.1807
  125MOL   H19637644   7.723   4.895   5.066  1.9064 -2.1507 -2.2482
  125MOL   C19737645   8.064   5.120   4.772 -0.1897 -0.0489 -0.0647
  125MOL   C19837646   8.150   5.234   4.704  0.9445 -0.8732 -1.0020
  125MOL   C19937647   0.048   5.341   4.803 -0.1352  1.1986 -0.0136
  125MOL   C20037648   0.014   5.478   4.798 -0.2077  0.0049 -0.6455
  125MOL   C20137649   0.067   5.571   4.889  0.0788 -0.6417  0.4283
  125MOL   C20237650   0.152   5.522   4.982 -0.6045 -0.9194 -0.3801
  125MOL   C20337651   0.176   5.383   4.994  0.1727 -0.2231 -0.9335
  125MOL   N20437652   0.127   5.296   4.904 -0.0528  0.7709 -0.2110
  125MOL   H20537653   8.129   5.034   4.785  1.7541  1.3451 -0.3805
  125MOL   H20637654   8.044   5.142   4.877  2.2617 -0.8799  0.6158
  125MOL   H20737655   8.081   5.297   4.647  1.0426 -0.7547 -0.9921
  125MOL   H20837656   8.111   5.523   4.717 -1.7742 -2.8457 -1.2015
  125MOL   H20937657   0.038   5.675   4.900 -0.9679 -1.1248  2.6300
  125MOL   H21037658   0.193   5.588   5.057 -0.7271 -1.0964 -0.1564
  125MOL   H21137659   0.248   5.342   5.064  1.2228  0.3323 -1.6888
  125MOL   C21237660   0.111   5.182   4.615  0.4462  0.2833  0.8543
  125MOL   C21337661   0.069   5.160   4.466 -0.0842 -0.4388  0.8685
  125MOL   C21437662   0.003   5.278   4.391 -0.5392  0.0118 -0.1027
  125MOL   C21537663   0.075   5.402   4.392 -0.6923  0.0299 -0.1300
  125MOL   C21637664   0.016   5.510   4.335  0.7837 -0.2644 -0.5882
  125MOL   C21737665   8.044   5.494   4.270  0.1589 -0.4026 -0.3465
  125MOL   C21837666   7.975   5.374   4.279  0.7782  0.1984 -0.6126
  125MOL   N21937667   8.026   5.269   4.346  1.1394  0.2442 -0.1351
  125MOL   H22037668   0.141   5.082   4.648  0.1864 -0.5756 -1.4253
  125MOL   H22137669   0.199   5.245   4.606  0.7318 -0.0957  0.9710
  125MOL   H22237670   8.139   5.088   4.455 -1.1905  0.7817  0.9716
  125MOL   H22337671   0.172   5.418   4.437 -0.5245 -0.1548 -0.4177
  125MOL   H22437672   0.078   5.597   4.322  1.5725 -1.4098 -5.0938
  125MOL   H22537673   7.997   5.576   4.218 -1.3636 -0.4678  0.9070
  125MOL   H22637674   7.873   5.368   4.242  1.0526 -2.4392 -1.0380
  125MOL   C22737675   0.195   5.101   4.390 -0.4784  0.1501  0.1990
  125MOL   C22837676   0.171   4.984   4.287 -0.3505  0.6128  0.1230
  125MOL   C22937677   0.091   5.035   4.168 -1.0144 -0.2516  0.2309
  125MOL   C23037678   8.109   5.001   4.145  0.6125 -0.1258 -0.1629
  125MOL   C23137679   8.034   5.078   4.054 -0.3980  0.7452  0.4084
  125MOL   C23237680   8.099   5.181   3.981 -0.8963  0.2485 -0.5798
  125MOL   C23337681   0.083   5.202   4.002 -0.9082 -0.0077 -0.4729
  125MOL   N23437682   0.149   5.139   4.095 -0.0151  0.2828  0.1933
  125MOL   H23537683   0.257   5.056   4.468  0.8072  1.8315  0.1675
  125MOL   H23637684   0.262   5.177   4.352 -1.1362  0.5489 -0.1724
  125MOL   H23737685   0.102   4.917   4.338  0.6168 -0.9011 -0.5278
  125MOL   H23837686   8.058   4.932   4.212  3.5084 -0.1902  2.0720
  125MOL   H23937687   7.929   5.056   4.047 -0.4551  1.7948 -3.6002
  125MOL   H24037688   8.064   5.237   3.895 -1.8086 -1.8840 -1.6435
  125MOL   H24137689   0.140   5.268   3.938 -0.1216 -0.2171  0.0116
  125MOL   C24237690   0.298   4.909   4.243  0.4144 -0.1729 -0.3042
  125MOL   C24337691   0.378   4.839   4.351  0.2744  0.0067  0.2260
  125MOL   C24437692   0.292   4.769   4.454 -0.0283  0.3475  0.5500
  125MOL   C24537693   0.301   4.806   4.589 -0.0605 -0.0864  0.0608
  125MOL   C24637694   0.212   4.749   4.684  0.0158 -0.6810 -0.5301
  125MOL   C24737695   0.130   4.646   4.643 -0.5006  0.2507  0.8206
  125MOL   C24837696   0.128   4.616   4.509  0.0197  0.4922  0.0203
  125MOL   N24937697   0.208   4.673   4.418 -0.1811  0.1182 -0.6611
  125MOL   H25037698   0.359   4.972   4.179  0.1252  0.2660 -0.1496
  125MOL   H25137699   0.250   4.832   4.182  0.0501 -0.8221  0.7855
  125MOL   H25237700   0.422   4.922   4.406  1.1900 -0.0498 -0.4119
  125MOL   H25337701   0.380   4.876   4.614  0.6306 -0.6578 -0.4991
  125MOL   H25437702   0.208   4.773   4.789 -3.0103 -1.2350 -0.4861
  125MOL   H25537703   0.062   4.596   4.710  1.8668 -1.5130  1.9452
  125MOL   H25637704   0.067   4.536   4.470  0.1343 -0.2663  1.3640
  125MOL   C25737705   0.499   4.750   4.304 -0.5258 -0.2500 -0.5223
  125MOL   C25837706   0.471   4.609   4.237 -0.2310  1.5540 -0.7545
  125MOL   C25937707   0.399   4.630   4.108 -0.4385  0.0445 -0.3988
  125MOL   C26037708   0.276   4.566   4.086  0.3883 -0.4822  0.0315
  125MOL   C26137709   0.204   4.583   3.970  0.6948  0.5583  0.4630
  125MOL   C26237710   0.252   4.667   3.869 -0.4004 -0.4357 -0.0261
  125MOL   C26337711   0.374   4.732   3.898  0.1967  0.0980  0.0841
  125MOL   N26437712   0.446   4.714   4.012  0.0368  0.2730 -0.2589
  125MOL   H26537713   0.562   4.732   4.391  0.1122  3.3963 -0.1368
  125MOL   H26637714   0.567   4.806   4.240  2.7570  1.3933  4.1064
  125MOL   H26737715   0.409   4.542   4.297  3.7385 -0.0194  1.7555
  125MOL   H26837716   0.229   4.508   4.164 -0.9725 -0.6008 -0.8605
  125MOL   H26937717   0.106   4.540   3.953  1.1646 -0.6882  0.8702
  125MOL   H27037718   0.209   4.686   3.772  0.5334  0.2247 -0.3133
  125MOL   H27137719   0.410   4.793   3.816 -0.0316 -0.5576 -0.5054
  125MOL   C27237720   0.609   4.543   4.210 -0.9560 -0.4365  0.0923
  125MOL   C27337721   0.686   4.491   4.331  0.0318 -0.2369 -0.2373
  125MOL   C27437722   0.592   4.426   4.437 -0.0572  0.0965 -0.2201
  125MOL   C27537723   0.560   4.484   4.564  0.2664 -0.4048  0.3272
  125MOL   C27637724   0.444   4.438   4.624  0.2257 -0.3414 -0.2435
  125MOL   C27737725   0.390   4.315   4.589  0.5479  0.1741  0.3699
  125MOL   C27837726   0.444   4.253   4.476 -0.0668 -0.8490 -0.4961
  125MOL   N27937727   0.537   4.310   4.397  0.4388 -0.2595 -0.4721
  125MOL   H28037728   0.664   4.612   4.146 -0.4330 -0.2103  0.7747
  125MOL   H28137729   0.591   4.458   4.144 -0.6399  0.6029 -1.3453
  125MOL   H28237730   0.737   4.570   4.385  0.9995  1.6161 -3.6797
  125MOL   H28337731   0.605   4.579   4.587  1.0009  0.4737 -4.2794
  125MOL   H28437732   0.412   4.497   4.709  2.4989  1.5609 -0.6510
  125MOL   H28537733   0.308   4.258   4.632  1.0163 -1.1810 -0.5224
  125MOL   H28637734   0.403   4.156   4.451 -0.6288 -0.5522 -0.7375
  125MOL   C28737735   0.804   4.398   4.289  0.2961 -0.2442  0.0672
  125MOL   C28837736   0.885   4.345   4.413 -0.4525 -0.5534 -0.6423
  125MOL   C28937737   0.998   4.251   4.396 -0.2391  0.2180  0.3174
  125MOL   C29037738   1.007   4.134   4.470 -0.2326  0.4009  0.0367
  125MOL   C29137739   1.113   4.046   4.451 -0.2216 -0.4104 -0.5259
  125MOL   C29237740   1.206   4.070   4.354 -0.9894  0.8254 -0.2426
  125MOL   C29337741   1.199   4.193   4.276  0.0284  0.5085  0.0521
  125MOL   N29437742   1.101   4.280   4.309  0.1018  1.0729  0.3549
  125MOL   H29537743   0.867   4.442   4.212 -1.4415 -0.2253 -1.3823
  125MOL   H29637744   0.763   4.309   4.241 -0.0960 -0.2631  0.4275
  125MOL   H29737745   0.818   4.290   4.479  0.4772 -1.4936 -0.4744
  125MOL   H29837746   0.930   4.117   4.544 -1.7631 -2.5228 -2.1242
  125MOL   H29937747   1.118   3.949   4.499  2.4976 -0.4446 -0.8105
  125MOL   H30037748   1.286   3.999   4.337 -1.4002 -0.2310  1.9905
  125MOL   H30137749   1.268   4.220   4.197 -3.1193  3.5896 -1.8026
  125MOL   H30237750   0.927   4.432   4.464  0.8082  0.0768 -2.6881
  126MOL     C137751   0.151   6.762   8.074  0.1595  0.4526 -0.2538
  126MOL     C237752   0.240   6.766   7.946  0.6475  0.5978 -0.8880
  126MOL     C337753   0.375   6.844   7.976  0.0414 -0.1877  0.1613
  126MOL     C437754   0.426   6.956   7.896 -0.6830  0.6701  0.0280
  126MOL     C537755   0.544   7.018   7.938  0.1808  0.8039 -0.0326
  126MOL     C637756   0.603   6.975   8.055 -0.0300 -0.1408  0.5652
  126MOL     C737757   0.546   6.873   8.129 -0.3216  0.3201 -0.4027
  126MOL     N837758   0.433   6.807   8.090 -0.4320  0.1042 -0.3691
  126MOL     H937759   0.118   6.860   8.110  0.4045  1.4764 -2.6557
  126MOL    H1037760   0.061   6.706   8.049  1.1670 -0.6702 -1.4493
  126MOL    H1137761   0.184   6.811   7.864  2.4824 -0.9350 -3.0707
  126MOL    H1237762   0.385   6.985   7.801 -0.5129  0.4592 -0.1078
  126MOL    H1337763   0.588   7.096   7.877 -1.6806  1.6225 -0.3960
  126MOL    H1437764   0.703   7.002   8.086  0.8869 -1.1577 -1.3717
  126MOL    H1537765   0.590   6.829   0.066  0.2161  2.0710  0.2330
  126MOL    H1637766   0.196   6.704   0.002 -1.0781 -1.6973 -1.0730
  126MOL    C1737767   0.245   6.621   7.897 -0.8079  0.5195 -0.2236
  126MOL    C1837768   0.278   6.592   7.746  0.1306 -0.5322  0.4351
  126MOL    C1937769   0.169   6.627   7.647  0.6812  0.5912  0.2133
  126MOL    C2037770   0.090   6.534   7.573 -0.2436  0.1326 -0.4241
  126MOL    C2137771   8.130   6.584   7.500  0.3023 -0.6506  0.4351
  126MOL    C2237772   8.101   6.719   7.504  0.1911 -0.2001  0.8813
  126MOL    C2337773   0.036   6.806   7.579 -0.3753 -0.1176  0.1612
  126MOL    N2437774   0.140   6.759   7.645 -0.2405  0.1604 -0.3497
  126MOL    H2537775   0.146   6.578   7.911 -0.5228  0.1944  0.8452
  126MOL    H2637776   0.319   6.570   7.959 -1.5400 -2.2255 -1.5735
  126MOL    H2737777   0.280   6.484   7.729 -0.9150 -0.6902  1.2410
  126MOL    H2837778   0.112   6.428   7.579 -0.2000 -0.0042 -2.5435
  126MOL    H2937779   8.070   6.519   7.438  0.4569  0.0354 -0.4564
  126MOL    H3037780   8.014   6.764   7.458 -1.2650 -0.4963  3.2818
  126MOL    H3137781   0.024   6.913   7.586 -1.0015 -0.2482  1.1986
  126MOL    C3237782   0.421   6.648   7.703 -0.4948 -0.1064  0.6430
  126MOL    C3337783   0.468   6.623   7.554  0.3684  0.6910  0.2740
  126MOL    C3437784   0.429   6.743   7.471 -0.2970  0.0699  0.4656
  126MOL    C3537785   0.336   6.738   7.372  0.7533  0.4973  0.7800
  126MOL    C3637786   0.290   6.856   7.318 -0.8779  0.3409  0.7567
  126MOL    C3737787   0.365   6.975   7.339 -0.5269 -0.1161 -0.0610
  126MOL    C3837788   0.475   6.965   7.428  0.7929  0.1613 -0.1914
  126MOL    N3937789   0.507   6.854   7.493  0.1276  0.0384 -0.2622
  126MOL    H4037790   0.501   6.609   7.765  0.1413  0.4047  0.1390
  126MOL    H4137791   0.424   6.756   7.719 -1.1804 -0.2086  1.5738
  126MOL    H4237792   0.413   6.533   7.528  2.5511  0.2154 -3.0977
  126MOL    H4337793   0.289   6.643   7.350  1.9515  0.5318 -2.1419
  126MOL    H4437794   0.207   6.844   7.250 -0.2425 -1.6062  0.2784
  126MOL    H4537795   0.340   7.066   7.287  1.8011  0.4994 -0.1589
  126MOL    H4637796   0.545   7.045   7.447  0.8249 -0.1728  1.1696
  126MOL    C4737797   0.618   6.598   7.540 -0.0946  0.4310  0.0428
  126MOL    C4837798   0.672   6.448   7.530  0.1004 -0.3698 -0.3774
  126MOL    C4937799   0.620   6.368   7.648  0.3340  0.4567 -0.4148
  126MOL    C5037800   0.691   6.365   7.769  0.2470 -1.0956 -0.1127
  126MOL    C5137801   0.633   6.291   7.872 -0.1268  0.8218 -0.0050
  126MOL    C5237802   0.507   6.226   7.858 -0.2405  0.0131  0.3210
  126MOL    C5337803   0.459   6.223   7.730 -0.4748  0.5535 -1.2764
  126MOL    N5437804   0.508   6.297   7.629  0.1242 -0.0265  0.3110
  126MOL    H5537805   0.669   6.653   7.619 -0.2773  0.9208 -0.1772
  126MOL    H5637806   0.659   6.648   7.452  0.5779  2.2884  1.3788
  126MOL    H5737807   0.781   6.449   7.528  0.1491 -2.6596 -0.0749
  126MOL    H5837808   0.780   6.423   7.788  0.2039 -0.8144 -0.7709
  126MOL    H5937809   0.686   6.284   7.966  0.0504  1.1670 -0.0795
  126MOL    H6037810   0.461   6.174   7.940 -1.0136  0.1807 -0.0019
  126MOL    H6137811   0.375   6.161   7.702 -0.6953  0.3699 -0.2381
  126MOL    C6237812   0.634   6.389   7.394  0.4803 -0.0050  0.0405
  126MOL    C6337813   0.708   6.254   7.373 -0.6153  0.4057 -0.0473
  126MOL    C6437814   0.623   6.158   7.290  0.4223  0.3758 -0.1393
  126MOL    C6537815   0.567   6.047   7.347  0.0434 -0.2320 -0.0552
  126MOL    C6637816   0.493   5.964   7.265  0.7352  0.0540  0.5583
  126MOL    C6737817   0.465   6.007   7.131  0.1855  0.2439 -0.0923
  126MOL    C6837818   0.524   6.120   7.088 -0.1663 -0.4646  0.3502
  126MOL    N6937819   0.593   6.201   7.166  0.3950 -0.3780 -0.0217
  126MOL    H7037820   0.659   6.457   7.313 -1.9914 -1.2364 -1.8375
  126MOL    H7137821   0.527   6.369   7.387  0.3433  0.8441 -0.3021
  126MOL    H7237822   0.732   6.208   7.469  0.5755  0.5246 -0.2891
  126MOL    H7337823   0.578   6.032   7.453 -1.6770 -0.3171  0.1281
  126MOL    H7437824   0.446   5.876   7.306 -2.4441  3.3797  4.5913
  126MOL    H7537825   0.408   5.946   7.063  0.6225 -1.9225  1.4147
  126MOL    H7637826   0.497   6.137   6.985  1.0937  1.5109  0.3295
  126MOL    C7737827   0.846   6.270   7.305  0.1154 -0.1568 -0.5641
  126MOL    C7837828   0.952   6.178   7.382  0.3569  0.1878 -0.8670
  126MOL    C7937829   0.908   6.031   7.371  0.0854  0.3777  0.2429
  126MOL    C8037830   0.868   5.955   7.481  0.1426  0.2268 -0.2933
  126MOL    C8137831   0.841   5.813   7.471  0.6200 -0.2042  0.5197
  126MOL    C8237832   0.881   5.756   7.348  0.2086  0.4966  0.6071
  126MOL    C8337833   0.918   5.840   7.241  0.2462 -0.0502  0.7752
  126MOL    N8437834   0.921   5.972   7.252  0.1735 -0.4316 -0.1056
  126MOL    H8537835   0.882   6.372   7.296 -1.3743  0.2038 -2.9115
  126MOL    H8637836   0.840   6.246   7.199  1.1720  1.3676 -0.9785
  126MOL    H8737837   0.947   6.196   7.489  1.4441 -1.2816 -0.5468
  126MOL    H8837838   0.856   6.010   7.573  2.4591 -0.9606  0.7806
  126MOL    H8937839   0.801   5.749   7.549  1.0728  1.0017  1.7637
  126MOL    H9037840   0.867   5.651   7.331 -2.5952  1.1689 -1.7699
  126MOL    H9137841   0.953   5.805   7.145 -1.2161 -1.8818  0.8910
  126MOL    C9237842   1.097   6.215   7.344 -0.4968  0.0798  0.2733
  126MOL    C9337843   1.149   6.357   7.392  0.4591  0.4076  0.0270
  126MOL    C9437844   1.094   6.393   7.528 -0.5309 -0.0648  0.0176
  126MOL    C9537845   1.116   6.307   7.637 -0.4824 -0.1367  0.6320
  126MOL    C9637846   1.096   6.350   7.767 -0.4081 -0.6685  0.1461
  126MOL    C9737847   1.040   6.478   7.781  0.8243 -0.1377 -0.3567
  126MOL    C9837848   1.016   6.551   7.671  0.2678  0.0754 -0.4806
  126MOL    N9937849   1.044   6.513   7.544  0.2113  0.0642 -0.4370
  126MOL   H10037850   1.114   6.210   7.237  2.3180  1.0892  0.6397
  126MOL   H10137851   1.159   6.133   7.380 -0.8621 -0.9478 -1.3793
  126MOL   H10237852   1.117   6.433   7.321 -1.8808  0.3280  0.9523
  126MOL   H10337853   1.163   6.211   7.627 -1.3824 -0.4380 -0.8890
  126MOL   H10437854   1.131   6.292   7.851  1.3505  2.2155  1.4863
  126MOL   H10537855   1.013   6.505   7.882 -2.4804 -1.8451 -0.7099
  126MOL   H10637856   0.966   6.645   7.686  2.5843  1.0362  1.4215
  126MOL   C10737857   1.298   6.391   7.385 -0.0830 -0.0906 -0.6281
  126MOL   C10837858   1.412   6.311   7.453 -0.0595  0.2900  0.5582
  126MOL   C10937859   1.414   6.162   7.422  0.0587 -0.0110  0.0697
  126MOL   C11037860   1.394   6.070   7.528 -0.4368  0.4007  1.1508
  126MOL   C11137861   1.370   5.931   7.493 -0.6375  0.9191 -0.7812
  126MOL   C11237862   1.366   5.892   7.365 -0.0468  0.9009  0.1797
  126MOL   C11337863   1.393   5.986   7.270 -0.3416 -0.0924 -0.2799
  126MOL   N11437864   1.413   6.120   7.292 -0.5152 -1.0120 -0.0346
  126MOL   H11537865   1.312   6.497   7.404  0.3226  0.1083 -1.9382
  126MOL   H11637866   1.320   6.376   7.279  1.9736  1.2376 -0.4262
  126MOL   H11737867   1.405   6.322   7.562  1.9180  0.1285  0.7194
  126MOL   H11837868   1.379   6.101   7.630 -1.6470  2.9554  0.2375
  126MOL   H11937869   1.343   5.857   7.566  2.6102  0.7013  0.2888
  126MOL   H12037870   1.345   5.790   7.338  1.1113  1.1092 -1.6427
  126MOL   H12137871   1.376   5.954   7.169  2.0911  2.3730 -1.5287
  126MOL   C12237872   1.545   6.377   7.415 -0.0931  0.1097 -0.2557
  126MOL   C12337873   1.673   6.306   7.476 -0.0623 -0.3335  1.1034
  126MOL   C12437874   1.795   6.342   7.390  0.1283 -0.5747  0.1760
  126MOL   C12537875   1.858   6.248   7.305  0.4651  0.3583  0.5379
  126MOL   C12637876   1.966   6.290   7.226  0.4231  0.5502  0.1881
  126MOL   C12737877   2.006   6.423   7.229  0.1364 -0.4977 -0.5011
  126MOL   C12837878   1.942   6.508   7.314 -0.1497 -0.0335 -0.0879
  126MOL   N12937879   1.834   6.475   7.388  0.3997  0.4070  0.3768
  126MOL   H13037880   1.541   6.482   7.444  3.1391  0.3487 -0.4023
  126MOL   H13137881   1.555   6.375   7.306  0.3143  1.1813 -0.2422
  126MOL   H13237882   1.647   6.200   7.468  0.1269 -0.4051  1.4315
  126MOL   H13337883   1.812   6.150   7.301 -1.3070  1.1829  0.1713
  126MOL   H13437884   2.004   6.216   7.158  0.5639  0.6573  0.1521
  126MOL   H13537885   2.080   6.458   7.159  1.4317  0.2266  1.2177
  126MOL   H13637886   1.972   6.612   7.318 -0.0510 -0.0626 -0.0429
  126MOL   C13737887   1.701   6.338   7.620  0.1156  0.0354  0.3013
  126MOL   C13837888   1.820   6.268   7.694  0.4322 -0.0647 -0.2495
  126MOL   C13937889   1.853   6.335   7.830 -0.2570  0.0081 -0.3168
  126MOL   C14037890   1.986   6.377   7.856  0.1153  0.2748 -0.3462
  126MOL   C14137891   2.016   6.435   7.982  0.3036  0.3981  0.0976
  126MOL   C14237892   1.920   6.431   8.089 -0.1160 -0.1762  0.1343
  126MOL   C14337893   1.794   6.376   8.053  0.0988  0.0929 -0.2018
  126MOL   N14437894   1.766   6.327   7.934  0.2961 -0.0814  0.1448
  126MOL   H14537895   1.612   6.303   7.671 -0.1567 -0.6970 -0.6493
  126MOL   H14637896   1.720   6.443   7.639 -2.3011  0.6438 -0.5408
  126MOL   H14737897   1.905   6.271   7.626  1.6641 -0.2196  1.2414
  126MOL   H14837898   2.054   6.376   7.772  0.6628 -2.8859  0.0638
  126MOL   H14937899   2.114   6.481   7.989  0.8078 -0.4725 -1.2154
  126MOL   H15037900   1.951   6.474   0.031  2.0899  2.6247 -1.7962
  126MOL   H15137901   1.717   6.360   8.127  0.4600 -0.7177 -0.0009
  126MOL   C15237902   1.799   6.117   7.696  0.5457 -0.9926 -0.0253
  126MOL   C15337903   1.914   6.032   7.757 -0.7400  0.6948  0.4271
  126MOL   C15437904   1.872   6.003   7.903  0.5200 -0.6527  0.0226
  126MOL   C15537905   1.938   6.050   8.018  0.3054 -0.2003  0.1331
  126MOL   C15637906   1.897   5.997   8.149 -0.5365  0.3331 -0.3402
  126MOL   C15737907   1.793   5.900   8.145 -0.2342 -0.4160  0.0418
  126MOL   C15837908   1.735   5.864   8.022 -0.8052 -0.0424 -0.1349
  126MOL   N15937909   1.775   5.914   7.906 -0.3591 -0.3491  0.6126
  126MOL   H16037910   1.772   6.085   7.596  0.0644  0.8183 -0.4864
  126MOL   H16137911   1.705   6.095   7.748  0.9711 -1.2732  0.6314
  126MOL   H16237912   1.995   6.104   7.744 -1.3162  0.9741 -1.8249
  126MOL   H16337913   2.020   6.119   8.009 -0.5243  0.6549 -0.9285
  126MOL   H16437914   1.943   6.031   0.089  1.0841 -1.9673 -0.2426
  126MOL   H16537915   1.760   5.846   0.081 -3.1392 -0.0788 -0.8129
  126MOL   H16637916   1.658   5.791   8.007 -0.3978 -0.5511  0.2444
  126MOL   C16737917   1.950   5.910   7.676 -0.1205  0.5219 -0.1557
  126MOL   C16837918   2.018   5.936   7.541 -0.0247  0.1417  0.3057
  126MOL   C16937919   2.158   5.996   7.564 -0.5567  0.4541  0.2570
  126MOL   C17037920   2.259   5.937   7.640  0.1446 -0.5384  0.3999
  126MOL   C17137921   2.385   5.994   7.642  0.2084 -0.0577  0.6588
  126MOL   C17237922   2.407   6.116   7.572  0.0377  0.0243  0.4926
  126MOL   C17337923   2.300   6.157   7.491 -0.2557  0.2638 -0.1842
  126MOL   N17437924   2.177   6.108   7.497  0.2179 -0.3720  0.2648
  126MOL   H17537925   1.860   5.849   7.663  1.0284 -0.8898 -1.7919
  126MOL   H17637926   2.021   5.857   7.739  1.5280  2.2309 -0.5169
  126MOL   H17737927   1.962   6.020   7.498  1.5680  1.0945  0.0591
  126MOL   H17837928   2.239   5.847   7.696 -0.2321  0.1638  1.4154
  126MOL   H17937929   2.470   5.954   7.696  0.6332  0.0703  0.0821
  126MOL   H18037930   2.503   6.165   7.569  0.6375 -1.1267  0.8172
  126MOL   H18137931   2.300   6.246   7.429  0.2821 -0.6388 -1.5038
  126MOL   C18237932   2.032   5.813   7.452  0.5480 -0.2886  0.0411
  126MOL   C18337933   1.893   5.784   7.387 -0.1566  0.0910  0.1280
  126MOL   C18437934   1.873   5.838   7.247  0.9537  0.1031 -0.1804
  126MOL   C18537935   1.759   5.921   7.218 -0.2247 -0.1881  0.9245
  126MOL   C18637936   1.750   5.966   7.086  0.0459 -0.4769 -0.7638
  126MOL   C18737937   1.852   5.941   6.994 -0.5065  0.0728  0.2193
  126MOL   C18837938   1.953   5.845   7.028  0.8657  0.7059 -0.5561
  126MOL   N18937939   1.960   5.798   7.155 -0.0477  0.7359  0.1636
  126MOL   H19037940   2.076   5.733   7.512  1.2405 -0.6263 -0.9165
  126MOL   H19137941   2.104   5.832   7.372 -0.9083  1.8585 -0.8057
  126MOL   H19237942   1.812   5.828   7.445 -2.1313 -0.6589 -1.9502
  126MOL   H19337943   1.695   5.950   7.300 -2.5491 -0.2653 -0.8149
  126MOL   H19437944   1.670   6.032   7.054 -1.5510 -2.0851 -0.1265
  126MOL   H19537945   1.849   5.975   6.891 -1.9379 -0.1485  0.1814
  126MOL   H19637946   2.032   5.812   6.963  0.5743 -1.9193  0.3555
  126MOL   C19737947   1.871   5.627   7.394 -0.0811 -0.0962  0.1535
  126MOL   C19837948   1.834   5.563   7.528  0.3497 -0.1006  0.5110
  126MOL   C19937949   1.685   5.572   7.562 -0.2193 -0.9238 -0.1009
  126MOL   C20037950   1.644   5.630   7.685  0.2725  0.6765  0.6804
  126MOL   C20137951   1.509   5.645   7.720 -0.1050 -0.0514 -0.3201
  126MOL   C20237952   1.413   5.594   7.633  0.1283 -0.1065 -0.1403
  126MOL   C20337953   1.462   5.544   7.506 -0.0700  0.5511 -0.2407
  126MOL   N20437954   1.593   5.526   7.474 -0.5282 -0.2440  0.0778
  126MOL   H20537955   1.960   5.581   7.351  1.6116  1.6364  1.6793
  126MOL   H20637956   1.791   5.608   7.323  0.4737  1.2018 -0.8174
  126MOL   H20737957   1.895   5.603   7.609  2.4132 -0.5273 -0.7749
  126MOL   H20837958   1.731   5.664   7.738  1.7954  2.3640 -2.7445
  126MOL   H20937959   1.492   5.683   7.820 -1.2616 -0.3692 -0.3914
  126MOL   H21037960   1.307   5.600   7.655  0.6087  0.8666  2.0459
  126MOL   H21137961   1.383   5.509   7.441 -0.4846 -0.5771  0.8580
  126MOL   C21237962   1.876   5.416   7.536  0.0685  0.2685 -0.2158
  126MOL   C21337963   2.030   5.383   7.551  0.0469  0.8864  0.2006
  126MOL   C21437964   2.112   5.464   7.645  0.4761  0.2769  0.2828
  126MOL   C21537965   2.230   5.512   7.598 -0.2511 -0.4274 -0.5400
  126MOL   C21637966   2.312   5.587   7.692  0.0052  0.0692  0.1429
  126MOL   C21737967   2.261   5.617   7.816 -0.4328 -0.9520 -0.0879
  126MOL   C21837968   2.140   5.564   7.851  0.3960  0.0721  0.1597
  126MOL   N21937969   2.065   5.489   7.766  0.3509 -0.2279 -0.3290
  126MOL   H22037970   1.845   5.364   7.445 -1.6418 -0.5673  0.8154
  126MOL   H22137971   1.821   5.376   7.621 -0.2377 -1.2773 -1.1209
  126MOL   H22237972   2.069   5.397   7.451 -1.0319 -0.8950 -0.4914
  126MOL   H22337973   2.270   5.486   7.501  1.3136  0.5579 -0.1789
  126MOL   H22437974   2.408   5.631   7.674  0.6784 -1.2861  0.3341
  126MOL   H22537975   2.312   5.677   7.889  0.1062 -0.3898 -0.9151
  126MOL   H22637976   2.089   5.597   7.941 -0.1377  0.5862 -0.3290
  126MOL   C22737977   2.061   5.236   7.581 -0.0856 -0.1918  0.2819
  126MOL   C22837978   1.980   5.132   7.504 -0.1700 -0.0687  0.3016
  126MOL   C22937979   1.988   5.149   7.354  0.1440 -0.3614 -0.2577
  126MOL   C23037980   1.874   5.168   7.269  0.7483 -1.4763  0.2581
  126MOL   C23137981   1.896   5.173   7.127  0.8878  0.2914 -0.0509
  126MOL   C23237982   2.028   5.168   7.078 -0.3507  0.2117 -0.5515
  126MOL   C23337983   2.134   5.163   7.168 -0.1540  0.1813 -0.3523
  126MOL   N23437984   2.111   5.154   7.304 -0.4699 -0.7145  0.8789
  126MOL   H23537985   2.036   5.205   7.682  1.2761 -2.5314 -0.0539
  126MOL   H23637986   2.168   5.223   7.590 -0.1438  0.2439  1.6673
  126MOL   H23737987   1.877   5.147   7.536 -0.4275  1.3412 -1.0996
  126MOL   H23837988   1.775   5.163   7.313  1.3479 -3.5111  1.4485
  126MOL   H23937989   1.812   5.174   7.058 -0.1853  0.5514  1.2461
  126MOL   H24037990   2.053   5.182   6.974  1.2253 -0.3314 -0.2517
  126MOL   H24137991   2.235   5.163   7.130 -0.6811  1.7701 -1.8114
  126MOL   C24237992   2.024   4.993   7.549  0.0203 -0.2206  0.3514
  126MOL   C24337993   1.942   4.880   7.483 -0.2596  0.1435 -0.3888
  126MOL   C24437994   2.000   4.741   7.498 -0.3098 -0.2162 -0.0411
  126MOL   C24537995   1.984   4.655   7.394  0.1686  0.5291 -0.0843
  126MOL   C24637996   2.055   4.534   7.404 -0.1117 -0.3249  0.2313
  126MOL   C24737997   2.115   4.496   7.521  0.3563 -0.9984  0.0203
  126MOL   C24837998   2.107   4.586   7.625 -0.0446 -0.0608 -0.4270
  126MOL   N24937999   2.056   4.706   7.616  0.3363 -0.9832  0.3493
  126MOL   H25038000   2.027   4.973   7.656  0.2692 -0.9790  0.2129
  126MOL   H25138001   2.127   4.970   7.520 -0.0729 -0.5942  0.3041
  126MOL   H25238002   1.936   4.887   7.374 -0.2687 -1.6324 -0.5073
  126MOL   H25338003   1.912   4.670   7.316 -1.2796 -2.2403  0.6829
  126MOL   H25438004   2.059   4.462   7.323  1.8965  0.8012 -0.7115
  126MOL   H25538005   2.175   4.408   7.537  1.4131 -0.1183  1.0073
  126MOL   H25638006   2.146   4.556   7.722  0.5219  2.2375  0.0724
  126MOL   C25738007   1.791   4.878   7.526  0.1029 -0.4381  0.2394
  126MOL   C25838008   1.744   4.874   7.672  0.2902  0.7220  0.6651
  126MOL   C25938009   1.724   5.015   7.723  0.1195  0.0699  0.6993
  126MOL   C26038010   1.794   5.057   7.842 -0.2211 -0.5298  0.4383
  126MOL   C26138011   1.773   5.183   7.886  0.1250 -0.4613 -0.0446
  126MOL   C26238012   1.671   5.264   7.825 -0.1563 -0.3613 -0.2223
  126MOL   C26338013   1.603   5.211   7.713  0.5645 -0.3123 -0.3268
  126MOL   N26438014   1.625   5.085   7.665 -0.3543  0.4786  0.0645
  126MOL   H26538015   1.773   4.787   7.468  1.0890  0.1140 -0.9563
  126MOL   H26638016   1.737   4.951   7.465  1.5911 -0.2802 -0.8973
  126MOL   H26738017   1.809   4.820   7.740 -0.3538  0.2987  0.9515
  126MOL   H26838018   1.864   4.990   7.891  2.2109  1.1503 -0.6253
  126MOL   H26938019   1.826   5.221   7.972  1.2663 -0.0718 -0.9156
  126MOL   H27038020   1.645   5.358   7.872  0.9987 -0.0678 -0.1566
  126MOL   H27138021   1.532   5.268   7.654 -1.3625 -1.1181  1.1462
  126MOL   C27238022   1.612   4.801   7.671 -0.5020  0.1080  0.1777
  126MOL   C27338023   1.609   4.646   7.652  0.5035  0.2777 -0.0246
  126MOL   C27438024   1.687   4.564   7.748  0.7120 -0.4034  0.1193
  126MOL   C27538025   1.764   4.461   7.701 -0.4676  0.5059  0.4548
  126MOL   C27638026   1.806   4.362   7.795 -0.0769 -0.4175 -0.1946
  126MOL   C27738027   1.783   4.386   7.929  0.1672  0.2398 -0.0614
  126MOL   C27838028   1.712   4.501   7.966  0.1870 -0.1594  0.2962
  126MOL   N27938029   1.655   4.581   7.878 -0.1926 -0.0969 -0.3206
  126MOL   H28038030   1.556   4.845   7.588  0.0945  0.1180 -0.2230
  126MOL   H28138031   1.556   4.823   7.762 -3.8480 -1.1065 -1.5035
  126MOL   H28238032   1.645   4.624   7.552  1.3203  1.2898  0.0403
  126MOL   H28338033   1.786   4.444   7.597 -2.4182  0.8124 -0.0146
  126MOL   H28438034   1.857   4.273   7.762  2.4372  0.2392  1.7231
  126MOL   H28538035   1.806   4.316   8.007 -2.3846 -0.7361 -0.1313
  126MOL   H28638036   1.675   4.505   8.067  0.0741  0.3034  0.2358
  126MOL   C28738037   1.461   4.594   7.633  0.7050 -0.3067  0.2373
  126MOL   C28838038   1.393   4.644   7.506 -0.4777 -0.4448  0.3344
  126MOL   C28938039   1.256   4.580   7.497 -0.3093  0.1728 -0.9173
  126MOL   C29038040   1.208   4.486   7.400  0.2666  0.1157  0.1896
  126MOL   C29138041   1.093   4.415   7.437 -0.1196  0.2574  0.4509
  126MOL   C29238042   1.014   4.454   7.544  0.8226  0.0927 -0.0561
  126MOL   C29338043   1.058   4.562   7.625  0.0312 -0.3760  0.1466
  126MOL   N29438044   1.178   4.617   7.602 -0.1573 -0.1325  0.0912
  126MOL   H29538045   1.398   4.621   7.718  0.5933  1.4691 -0.3876
  126MOL   H29638046   1.451   4.487   7.620  1.0812 -0.3157  0.0211
  126MOL   H29738047   1.458   4.605   7.428  0.5437 -0.4455  1.1821
  126MOL   H29838048   1.271   4.464   7.315 -0.7411 -1.4393 -0.1848
  126MOL   H29938049   1.065   4.336   7.368 -0.7795  1.3112 -0.4949
  126MOL   H30038050   0.924   4.400   7.569  1.4404 -0.5009  0.9088
  126MOL   H30138051   1.011   4.604   7.712  0.2067  0.9648 -0.4015
  126MOL   H30238052   1.393   4.753   7.494 -3.9964 -0.6333 -2.4701
  127MOL     C138053   7.918   2.260   7.857 -0.6858 -0.0307  0.2430
  127MOL     C238054   7.889   2.346   7.975  0.6898  0.7037  0.0413
  127MOL     C338055   7.861   2.255   8.097  0.3316  0.0981 -0.3789
  127MOL     C438056   7.739   2.255   0.018 -0.7095 -1.3603 -0.1198
  127MOL     C538057   7.729   2.162   0.125  0.2608 -0.6628 -0.0640
  127MOL     C638058   7.837   2.081   0.147 -0.2082  0.0275 -0.1144
  127MOL     C738059   7.956   2.099   0.080 -0.4251  0.0018 -0.0907
  127MOL     N838060   7.965   2.178   8.125  0.1349  0.1876 -0.3099
  127MOL     H938061   7.836   2.196   7.826 -0.0067 -0.6638 -0.2698
  127MOL    H1038062   7.937   2.315   7.765  1.4957 -0.5989  0.3208
  127MOL    H1138063   7.797   2.401   7.951 -1.0842 -1.7006  1.2046
  127MOL    H1238064   7.664   2.328   8.142  0.0066 -0.5305  0.1229
  127MOL    H1338065   7.645   2.156   0.193 -0.7380  1.8758 -0.9939
  127MOL    H1438066   7.838   2.012   0.229  3.3294  0.5039  0.3220
  127MOL    H1538067   8.036   2.033   0.111  0.4698  0.2971 -1.7477
  127MOL    H1638068   7.997   2.190   7.884 -0.5484  0.3186  0.7707
  127MOL    C1738069   8.006   2.450   7.984  0.1500  0.0567 -0.5446
  127MOL    C1838070   7.983   2.549   8.100 -0.5618  0.4155  0.2836
  127MOL    C1938071   8.104   2.636   8.109 -0.0135  0.4205  0.2397
  127MOL    C2038072   0.039   2.629   0.069  0.1287 -0.1571  0.7698
  127MOL    C2138073   0.143   2.726   0.079 -0.3173 -0.3739  0.3142
  127MOL    C2238074   0.158   2.828   8.130  0.5671 -0.1542 -0.1005
  127MOL    C2338075   0.071   2.816   8.021  0.3633 -0.1612  0.4933
  127MOL    N2438076   8.122   2.729   8.022  0.2226 -0.3336  0.3205
  127MOL    H2538077   8.029   2.497   7.888 -0.0879 -1.1958 -1.2246
  127MOL    H2638078   8.093   2.388   8.004 -0.1486 -0.4363 -0.7767
  127MOL    H2738079   7.991   2.487   0.037  2.5757  2.0329  1.2078
  127MOL    H2838080   0.029   2.542   0.134  2.7283 -0.8262  0.3195
  127MOL    H2938081   0.217   2.729   0.157  1.3887  0.0266 -1.2714
  127MOL    H3038082   0.236   2.902   8.120  0.2414 -0.2105 -4.2185
  127MOL    H3138083   0.079   2.884   7.938  2.9725 -0.2875  0.6045
  127MOL    C3238084   7.856   2.632   8.092  0.6387  0.2329 -0.2274
  127MOL    C3338085   7.810   2.694   0.068 -0.3097 -0.4367 -0.6502
  127MOL    C3438086   7.738   2.825   0.040  0.0829 -0.1241  0.4729
  127MOL    C3538087   7.811   2.947   0.053 -0.0688 -0.0971  0.2709
  127MOL    C3638088   7.735   3.059   0.027 -0.8844  0.2528 -0.9010
  127MOL    C3738089   7.601   3.055   8.137 -0.1031 -0.0415 -0.1109
  127MOL    C3838090   7.537   2.937   8.128  0.4406 -0.1001  0.0490
  127MOL    N3938091   7.610   2.819   8.139 -0.4006 -0.0681 -0.5515
  127MOL    H4038092   7.773   2.569   8.058  0.7349  0.1273 -0.2636
  127MOL    H4138093   7.862   2.704   8.010 -0.1082 -1.9254 -2.2249
  127MOL    H4238094   7.899   2.723   0.124  0.1119 -0.7634 -1.1521
  127MOL    H4338095   7.914   2.944   0.084 -0.0203  0.4025  0.1515
  127MOL    H4438096   7.793   3.151   0.025 -0.7482  0.2668  1.9959
  127MOL    H4538097   7.546   3.147   8.122  0.0635  0.1995  0.7289
  127MOL    H4638098   7.431   2.935   8.107  0.6896  1.8485 -1.4734
  127MOL    C4738099   7.733   2.594   0.156 -0.6645 -0.2370 -0.0626
  127MOL    C4838100   7.631   2.641   0.260  0.0751 -0.3093  0.0014
  127MOL    C4938101   7.565   2.512   0.317 -0.9845 -0.3102 -0.6454
  127MOL    C5038102   7.433   2.479   0.306  0.2638  0.0074  0.4272
  127MOL    C5138103   7.379   2.362   0.371 -0.0043 -0.7399 -0.3743
  127MOL    C5238104   7.471   2.279   0.438 -0.1888 -0.2930  0.2195
  127MOL    C5338105   7.609   2.307   0.429  0.9301 -0.4199  0.4745
  127MOL    N5438106   7.653   2.428   0.376 -0.3063  0.4537  0.2294
  127MOL    H5538107   7.809   2.532   0.203  0.2355  0.9231  0.0401
  127MOL    H5638108   7.679   2.532   0.085 -0.4390  1.4036 -1.7087
  127MOL    H5738109   7.545   2.669   0.199  0.0176 -0.9682 -0.2235
  127MOL    H5838110   7.353   2.530   0.254 -0.7224 -0.5430  1.3721
  127MOL    H5938111   7.272   2.347   0.372 -0.3240  1.4670 -0.0932
  127MOL    H6038112   7.432   2.188   0.481 -2.8938 -1.3753 -4.1823
  127MOL    H6138113   7.684   2.247   0.479  2.3974  2.3564  1.7518
  127MOL    C6238114   7.697   2.729   0.364 -0.3412 -0.4190 -0.2905
  127MOL    C6338115   7.595   2.809   0.437 -0.0895  0.6521 -0.5981
  127MOL    C6438116   7.663   2.869   0.562  0.5443 -0.5968  0.3748
  127MOL    C6538117   7.719   2.996   0.562  0.0456 -0.0608 -0.3992
  127MOL    C6638118   7.766   3.048   0.683 -0.1761 -0.3512 -0.3287
  127MOL    C6738119   7.752   2.971   0.797  0.1646 -0.1175  0.5489
  127MOL    C6838120   7.696   2.845   0.791  0.0151 -0.2909  0.3104
  127MOL    N6938121   7.642   2.799   0.678  0.2203 -0.4765  0.1387
  127MOL    H7038122   7.769   2.798   0.321 -0.6782  0.4679  0.5435
  127MOL    H7138123   7.746   2.667   0.439  0.6663  0.8591  0.1306
  127MOL    H7238124   7.518   2.743   0.476 -0.7358  1.1650 -0.9851
  127MOL    H7338125   7.723   3.049   0.468  0.0757 -0.7939 -0.8135
  127MOL    H7438126   7.820   3.141   0.681  0.4514 -0.7099 -0.8043
  127MOL    H7538127   7.803   2.994   0.889  1.6959 -2.0201  0.2247
  127MOL    H7638128   7.671   2.788   0.880  2.1283  0.2734  1.2827
  127MOL    C7738129   7.523   2.910   0.346  0.4147  0.2875 -0.1532
  127MOL    C7838130   7.412   2.995   0.410 -0.2720 -0.5194 -0.2541
  127MOL    C7938131   7.346   3.083   0.302  0.2896 -0.0899  0.4425
  127MOL    C8038132   7.253   3.027   0.212  0.4687  0.2559 -0.0564
  127MOL    C8138133   7.195   3.113   0.119 -0.1781  0.1016 -0.7820
  127MOL    C8238134   7.233   3.245   0.110  0.1499  0.3027  0.3996
  127MOL    C8338135   7.317   3.296   0.211 -0.0098 -0.0914 -0.5349
  127MOL    N8438136   7.384   3.217   0.303 -0.5051  0.1349  0.3184
  127MOL    H8538137   7.482   2.856   0.260  0.1713  0.1292  0.0644
  127MOL    H8638138   7.594   2.980   0.301  0.7190 -0.2122 -0.4608
  127MOL    H8738139   7.461   3.058   0.485  1.8875 -2.8860  0.3650
  127MOL    H8838140   7.218   2.925   0.205  0.8202  0.1795 -0.7186
  127MOL    H8938141   7.111   3.077   0.062 -1.5376 -0.2147  1.3730
  127MOL    H9038142   7.177   3.316   0.051 -0.3906  0.3361  0.9609
  127MOL    H9138143   7.341   3.401   0.219  0.0406 -0.1892  0.6902
  127MOL    C9238144   7.311   2.913   0.497  0.5228 -0.3593 -0.2067
  127MOL    C9338145   7.218   3.004   0.580 -0.3137  0.2685 -0.1954
  127MOL    C9438146   7.094   3.050   0.502  0.0592 -0.2320  0.4202
  127MOL    C9538147   7.085   3.189   0.474  0.3176  0.3738 -1.0322
  127MOL    C9638148   6.966   3.232   0.414 -0.0028 -1.0390 -0.5436
  127MOL    C9738149   6.867   3.140   0.378 -0.4031  0.1455  0.7896
  127MOL    C9838150   6.901   3.009   0.398  0.6299 -0.1894 -0.2785
  127MOL    N9938151   7.002   2.959   0.468 -0.2431 -0.4092 -0.0148
  127MOL   H10038152   7.373   2.862   0.572  2.1389  2.8031  0.7194
  127MOL   H10138153   7.250   2.845   0.438  1.1703 -1.3757  0.2739
  127MOL   H10238154   7.275   3.094   0.602  0.4070  0.0378 -1.0976
  127MOL   H10338155   7.164   3.256   0.502  0.2260 -0.7730  2.1781
  127MOL   H10438156   6.956   3.335   0.386 -1.1228 -1.3336 -1.2253
  127MOL   H10538157   6.783   3.181   0.324  0.7653  3.8990  1.6223
  127MOL   H10638158   6.823   2.938   0.374 -1.1117  0.6116  2.8184
  127MOL   C10738159   7.176   2.939   0.711  0.5462  0.0268  0.3137
  127MOL   C10838160   7.276   2.917   0.827 -0.4517  0.1218  0.1243
  127MOL   C10938161   7.321   3.056   0.865  0.6792 -0.2749  0.1495
  127MOL   C11038162   7.439   3.106   0.809  0.7475 -0.7307  0.3787
  127MOL   C11138163   7.465   3.248   0.818  0.6898  0.4343  0.0705
  127MOL   C11238164   7.365   3.333   0.870 -0.0522  0.5935 -0.2358
  127MOL   C11338165   7.243   3.270   0.918  0.1581 -0.2782  0.0395
  127MOL   N11438166   7.224   3.134   0.918  0.1232  0.3051  0.5468
  127MOL   H11538167   7.126   2.847   0.680 -1.0990  1.2612 -0.7757
  127MOL   H11638168   7.093   2.995   0.753 -0.2627 -0.2297 -0.9089
  127MOL   H11738169   7.370   2.868   0.803  0.3860  2.0388 -0.6275
  127MOL   H11838170   7.511   3.038   0.766  1.5502 -0.1038  0.7162
  127MOL   H11938171   7.563   3.286   0.793  0.1812  2.7492  1.5260
  127MOL   H12038172   7.372   3.440   0.881 -0.3090  0.5649  0.2655
  127MOL   H12138173   7.161   3.324   0.964 -0.9852 -1.1771 -0.9005
  127MOL   C12238174   7.219   2.832   0.943 -0.3897 -0.3601  0.4455
  127MOL   C12338175   7.324   2.772   1.032 -0.0467  0.1955  0.2821
  127MOL   C12438176   7.381   2.636   0.986 -0.6965 -0.2069  0.1053
  127MOL   C12538177   7.380   2.524   1.071  0.0542  0.4514 -0.8172
  127MOL   C12638178   7.444   2.407   1.024 -0.1233 -0.2073 -0.7015
  127MOL   C12738179   7.496   2.405   0.888 -0.0332  0.6344 -0.2832
  127MOL   C12838180   7.500   2.527   0.820  0.4185  0.1297 -0.0817
  127MOL   N12938181   7.442   2.636   0.869 -0.3891  0.4219  0.3384
  127MOL   H13038182   7.152   2.752   0.911 -0.8129 -0.0705  0.5885
  127MOL   H13138183   7.156   2.905   0.995  0.3159  2.1110 -2.0087
  127MOL   H13238184   7.257   2.741   1.112  0.7981  0.9413  1.2822
  127MOL   H13338185   7.339   2.526   1.171  1.3392  0.2446 -0.2773
  127MOL   H13438186   7.428   2.311   1.070  1.6750 -0.8771 -1.4259
  127MOL   H13538187   7.523   2.310   0.842 -1.2965 -0.2399  0.7535
  127MOL   H13638188   7.535   2.543   0.719  2.0194 -1.4032  0.2144
  127MOL   C13738189   7.447   2.872   1.075  0.1889 -0.1196 -0.2256
  127MOL   C13838190   7.530   2.825   1.196  0.2702  0.2394  0.4447
  127MOL   C13938191   7.645   2.922   1.217  0.2689  0.4506 -0.6106
  127MOL   C14038192   7.624   3.058   1.251  0.1937  0.0323  0.1026
  127MOL   C14138193   7.735   3.145   1.258 -0.4272  0.2396  0.0252
  127MOL   C14238194   7.859   3.100   1.218  0.4429 -0.1717 -0.2979
  127MOL   C14338195   7.871   2.960   1.205  0.3406  0.3955 -0.1625
  127MOL   N14438196   7.768   2.873   1.193  0.0292 -0.5021 -0.0405
  127MOL   H14538197   7.397   2.964   1.106 -0.1175 -0.6597  0.9327
  127MOL   H14638198   7.513   2.873   0.989  1.6057 -0.0987  0.8501
  127MOL   H14738199   7.575   2.728   1.177  2.8588  0.8937  2.8903
  127MOL   H14838200   7.527   3.099   1.273 -0.7904 -0.5261 -2.9254
  127MOL   H14938201   7.711   3.248   1.281 -0.9217 -0.2233  1.5995
  127MOL   H15038202   7.940   3.171   1.209 -0.3918  0.8900  0.4501
  127MOL   H15138203   7.969   2.924   1.176 -0.1281 -0.9528 -0.1197
  127MOL   C15238204   7.441   2.802   1.321  0.7263  0.6922 -0.0967
  127MOL   C15338205   7.512   2.811   1.461 -0.2848  0.8920  0.0205
  127MOL   C15438206   7.404   2.814   1.570 -0.1453 -0.3727 -0.0895
  127MOL   C15538207   7.331   2.692   1.608 -0.0349 -0.3033 -0.8361
  127MOL   C15638208   7.234   2.694   1.713 -0.7102 -0.0879  0.6266
  127MOL   C15738209   7.223   2.815   1.786  0.2018  0.0991  0.1430
  127MOL   C15838210   7.298   2.930   1.746 -0.3678  0.3816  0.2906
  127MOL   N15938211   7.381   2.934   1.636  0.2188  0.1600 -0.2166
  127MOL   H16038212   7.392   2.706   1.306  3.2473 -0.8522  1.1207
  127MOL   H16138213   7.367   2.882   1.311 -1.6492 -1.2872  1.2160
  127MOL   H16238214   7.560   2.909   1.457  2.4965 -0.4544 -1.2676
  127MOL   H16338215   7.354   2.599   1.557 -2.6246 -1.5505  0.1760
  127MOL   H16438216   7.178   2.607   1.743 -0.7240 -0.0561  0.6912
  127MOL   H16538217   7.160   2.825   1.874  0.0373 -0.2805  0.0669
  127MOL   H16638218   7.281   3.022   1.800  0.8214  0.0183  1.3140
  127MOL   C16738219   7.635   2.711   1.487  0.1274  0.2104 -0.4942
  127MOL   C16838220   7.760   2.774   1.544 -0.0054 -0.2979 -0.2091
  127MOL   C16938221   7.728   2.846   1.674 -0.6629  0.1368 -0.1429
  127MOL   C17038222   7.713   2.985   1.676 -0.2293 -0.5909 -0.2629
  127MOL   C17138223   7.655   3.048   1.784 -0.5498 -0.0749  0.7836
  127MOL   C17238224   7.606   2.971   1.891 -0.0050 -0.4996  0.1928
  127MOL   C17338225   7.622   2.834   1.877  0.0959  0.6281 -0.7624
  127MOL   N17438226   7.691   2.776   1.778 -0.0520 -0.4312 -0.8897
  127MOL   H17538227   7.677   2.682   1.391  1.4258 -0.8708  0.3787
  127MOL   H17638228   7.603   2.622   1.541 -1.4123  0.4627 -0.9436
  127MOL   H17738229   7.789   2.845   1.466 -1.6834 -1.0776 -1.5852
  127MOL   H17838230   7.744   3.050   1.595 -1.1829  0.2401  0.0369
  127MOL   H17938231   7.663   3.155   1.780 -0.2196 -0.1831 -2.1985
  127MOL   H18038232   7.552   3.015   1.974  0.7880 -0.0113  0.4553
  127MOL   H18138233   7.584   2.775   1.959 -0.1889  1.0784 -0.5692
  127MOL   C18238234   7.879   2.676   1.560  0.8864 -0.1809  0.0944
  127MOL   C18338235   8.016   2.737   1.593 -0.4434  0.4563  0.5211
  127MOL   C18438236   8.109   2.640   1.668  0.0874  0.6339  0.5012
  127MOL   C18538237   0.017   2.667   1.792 -0.2436  0.0592 -0.6419
  127MOL   C18638238   0.078   2.561   1.865 -0.4544  0.6797  0.7629
  127MOL   C18738239   0.108   2.442   1.799  0.0460 -0.8190 -0.6861
  127MOL   C18838240   0.050   2.427   1.673  0.4688  0.3420  0.9083
  127MOL   N18938241   8.134   2.523   1.609 -0.2149  0.0818 -0.0887
  127MOL   H19038242   7.899   2.615   1.471 -1.7435 -1.9166  0.6274
  127MOL   H19138243   7.858   2.601   1.636  0.9027  0.2611  0.5307
  127MOL   H19238244   7.984   2.814   1.663  0.7230  0.5542  0.9563
  127MOL   H19338245   0.008   2.767   1.831  2.0333  1.2073 -2.9091
  127MOL   H19438246   0.113   2.588   1.964  0.5529 -0.3720  0.6979
  127MOL   H19538247   0.162   2.357   1.839 -0.1460 -1.1009 -1.0281
  127MOL   H19638248   0.052   2.332   1.622  0.0930 -0.3085  2.0865
  127MOL   C19738249   8.092   2.794   1.464  0.5690 -0.1146 -0.1999
  127MOL   C19838250   0.050   2.894   1.490  0.1702 -0.3470 -0.6633
  127MOL   C19938251   8.146   3.014   1.575  0.4446  0.0027  0.2864
  127MOL   C20038252   0.007   3.023   1.716 -0.3772  0.2273 -0.0617
  127MOL   C20138253   8.073   3.098   1.790  0.8792 -0.6665 -0.1897
  127MOL   C20238254   7.976   3.182   1.723  0.4853 -0.8637  0.4413
  127MOL   C20338255   7.980   3.182   1.583 -0.0690  0.1621  0.1377
  127MOL   N20438256   8.060   3.095   1.505  0.5805 -0.0358 -0.3676
  127MOL   H20538257   8.023   2.817   1.383 -0.2217 -0.1432  0.4712
  127MOL   H20638258   8.139   2.709   1.413 -1.5165 -2.0480  1.0134
  127MOL   H20738259   0.063   2.937   1.390 -1.8632  0.8256 -0.4514
  127MOL   H20838260   0.075   2.962   1.774 -0.8389  0.4591  0.7341
  127MOL   H20938261   8.073   3.097   1.898 -1.6541 -2.5904 -0.1769
  127MOL   H21038262   7.896   3.235   1.773  0.2523 -0.3617 -0.4354
  127MOL   H21138263   7.909   3.247   1.532  1.3274  0.6057 -1.2692
  127MOL   C21238264   0.183   2.844   1.555  0.2880  0.3856 -0.4346
  127MOL   C21338265   0.285   2.818   1.441 -0.3870 -0.6769  0.3481
  127MOL   C21438266   0.335   2.936   1.363  0.2487 -0.3377 -0.2150
  127MOL   C21538267   0.376   2.916   1.226  0.5371 -0.2030  0.7244
  127MOL   C21638268   0.435   3.024   1.157  0.6839 -0.0224  0.1593
  127MOL   C21738269   0.435   3.150   1.221 -0.2121 -0.4954 -0.0064
  127MOL   C21838270   0.407   3.157   1.356 -0.1748  0.2927  0.3223
  127MOL   N21938271   0.362   3.050   1.427 -0.4035  0.5303  0.1240
  127MOL   H22038272   0.175   2.758   1.622 -1.1170  0.4534 -0.4940
  127MOL   H22138273   0.224   2.910   1.632  0.0947  1.2173 -1.0333
  127MOL   H22238274   0.232   2.747   1.378  0.9113 -0.2420 -1.2794
  127MOL   H22338275   0.353   2.821   1.179 -2.2138  1.4134 -1.3525
  127MOL   H22438276   0.477   3.019   1.057  0.4462 -2.5414  0.1478
  127MOL   H22538277   0.479   3.241   1.181 -1.1836 -0.4927 -1.0689
  127MOL   H22638278   0.428   3.246   1.415  2.9026 -0.8878  1.1069
  127MOL   C22738279   0.408   2.741   1.504  0.6500 -0.4034 -0.0846
  127MOL   C22838280   0.391   2.592   1.518 -0.0062 -0.0489  0.0625
  127MOL   C22938281   0.371   2.526   1.379  0.1508  0.5749  0.0873
  127MOL   C23038282   0.253   2.453   1.342 -0.2804  0.2705 -0.1023
  127MOL   C23138283   0.255   2.385   1.222  0.5136 -0.0362 -0.1876
  127MOL   C23238284   0.351   2.419   1.130 -0.1478  0.0488 -0.0259
  127MOL   C23338285   0.467   2.486   1.171  0.3079 -0.6166 -0.0020
  127MOL   N23438286   0.475   2.536   1.296 -0.4003 -0.4165 -0.7430
  127MOL   H23538287   0.429   2.794   1.597 -0.9445 -0.5990  0.3888
  127MOL   H23638288   0.502   2.760   1.451  0.8467  1.1818  0.8102
  127MOL   H23738289   0.311   2.573   1.589  1.5350 -1.3669  1.5051
  127MOL   H23838290   0.172   2.446   1.413  0.1524  0.7475  0.4349
  127MOL   H23938291   0.173   2.319   1.198 -1.1171  1.8506  0.0269
  127MOL   H24038292   0.352   2.380   1.030  1.5595 -1.6100  0.5964
  127MOL   H24138293   0.549   2.502   1.102  0.9790 -1.7845  0.5072
  127MOL   C24238294   0.508   2.518   1.587  0.3765 -0.4269 -0.4415
  127MOL   C24338295   0.523   2.506   1.736  0.3022 -0.6088 -0.4529
  127MOL   C24438296   0.597   2.375   1.769  0.1594  0.6139  0.5991
  127MOL   C24538297   0.513   2.265   1.791 -0.2928  0.2172 -0.4835
  127MOL   C24638298   0.566   2.133   1.804  0.0714 -0.2228  0.8732
  127MOL   C24738299   0.704   2.124   1.817 -0.4291 -0.5820  0.0471
  127MOL   C24838300   0.779   2.236   1.789  0.3508  0.3947  0.1240
  127MOL   N24938301   0.729   2.358   1.753 -0.2211  0.8820  0.0536
  127MOL   H25038302   0.604   2.530   1.536  1.1231 -4.1945 -0.1308
  127MOL   H25138303   0.478   2.418   1.556  3.2546 -1.8885  1.2214
  127MOL   H25238304   0.420   2.498   1.772  0.4272 -0.7082 -0.1228
  127MOL   H25338305   0.406   2.273   1.784 -0.2758 -0.1286 -1.1657
  127MOL   H25438306   0.514   2.041   1.825  0.0121 -0.3306  0.2545
  127MOL   H25538307   0.755   2.029   1.827 -0.6712 -0.4183  3.5050
  127MOL   H25638308   0.886   2.226   1.781  0.3491  0.1430  0.4064
  127MOL   C25738309   0.587   2.634   1.790  0.1206  0.6067  0.4410
  127MOL   C25838310   0.644   2.634   1.935  0.1125 -0.1980  0.2663
  127MOL   C25938311   0.718   2.765   1.963  0.6500  0.0705 -0.2247
  127MOL   C26038312   0.856   2.762   1.981  0.3362  0.1785 -0.8739
  127MOL   C26138313   0.927   2.884   2.003 -0.3600  0.1482 -0.4372
  127MOL   C26238314   0.853   3.007   1.994  0.0840 -0.0594  0.4048
  127MOL   C26338315   0.715   2.999   1.977  0.2575 -0.3841 -0.2683
  127MOL   N26438316   0.655   2.881   1.949 -0.2093  0.9597 -0.4485
  127MOL   H26538317   0.515   2.716   1.794  2.8455  3.2657 -1.8078
  127MOL   H26638318   0.664   2.669   1.721 -1.9169  0.5543 -1.9218
  127MOL   H26738319   0.720   2.556   1.927  2.3008  2.1679 -3.1938
  127MOL   H26838320   0.903   2.665   1.984  0.7657  0.3396 -1.9351
  127MOL   H26938321   1.034   2.880   2.017 -0.3895  3.2180  1.0148
  127MOL   H27038322   0.902   3.101   2.018  2.5957 -1.2127 -0.0418
  127MOL   H27138323   0.651   3.086   1.978 -0.0386 -0.6003  1.4216
  127MOL   C27238324   0.536   2.611   2.039 -0.1020  0.2947  0.5059
  127MOL   C27338325   0.585   2.606   2.180 -0.2881  0.1381  0.0186
  127MOL   C27438326   0.467   2.574   2.276 -0.2669  0.0503  0.0428
  127MOL   C27538327   0.399   2.683   2.343  0.4238  0.7547 -0.1639
  127MOL   C27638328   0.298   2.651   2.423 -0.2228  0.3380 -0.4818
  127MOL   C27738329   0.257   2.516   2.436  0.1800 -0.5461  0.6963
  127MOL   C27838330   0.329   2.421   2.363 -0.7192 -0.2792  0.4500
  127MOL   N27938331   0.435   2.446   2.288 -0.5908  0.0415 -0.2514
  127MOL   H28038332   0.495   2.512   2.019  2.9286 -0.9880  0.3893
  127MOL   H28138333   0.460   2.688   2.029 -1.0902 -0.6605  0.5851
  127MOL   H28238334   0.621   2.705   2.208  1.5420 -0.2046 -1.0066
  127MOL   H28338335   0.433   2.785   2.330  2.6690  0.0603  0.0457
  127MOL   H28438336   0.254   2.731   2.482  1.0523 -0.2428  1.2888
  127MOL   H28538337   0.167   2.486   2.488  0.6771 -1.0697  1.2503
  127MOL   H28638338   0.308   2.319   2.391  0.3753 -0.9207 -1.0579
  127MOL   C28738339   0.696   2.498   2.209 -0.1228 -0.5112  0.1140
  127MOL   C28838340   0.735   2.480   2.363 -0.3050  1.3699 -0.3108
  127MOL   C28938341   0.760   2.615   2.432 -0.4152  0.5517 -0.2967
  127MOL   C29038342   0.667   2.666   2.529  0.1440  0.1959  0.4774
  127MOL   C29138343   0.688   2.801   2.586  0.4127 -0.0544 -0.7308
  127MOL   C29238344   0.801   2.863   2.538  0.0847  0.4784  0.2433
  127MOL   C29338345   0.896   2.804   2.450 -0.2364 -0.8077  0.1852
  127MOL   N29438346   0.875   2.681   2.400  0.1182  0.4512  0.3029
  127MOL   H29538347   0.787   2.528   2.158 -0.2807 -0.0220  0.1083
  127MOL   H29638348   0.669   2.397   2.177  0.7720 -0.7603  0.1519
  127MOL   H29738349   0.825   2.419   2.369 -1.5518 -0.5177 -0.4241
  127MOL   H29838350   0.574   2.615   2.552  0.0510 -0.2832 -0.9166
  127MOL   H29938351   0.620   2.860   2.646  0.1900 -1.5331  0.5000
  127MOL   H30038352   0.821   2.964   2.571 -1.4386  0.5126  1.0784
  127MOL   H30138353   0.984   2.855   2.414 -1.3708 -0.1488 -1.7514
  127MOL   H30238354   0.654   2.436   2.422 -0.3295  2.2920  0.3568
  128MOL     C138355   1.889   1.893   6.504 -0.2230 -0.1846  0.9318
  128MOL     C238356   1.859   1.830   6.645 -0.0755  0.3248  0.3146
  128MOL     C338357   1.727   1.878   6.691 -0.6593 -0.5041  0.2475
  128MOL     C438358   1.716   1.995   6.776 -0.2722 -0.5746  0.8563
  128MOL     C538359   1.593   2.025   6.831  0.1960  0.3050  0.5421
  128MOL     C638360   1.487   1.945   6.791 -1.0378  0.0429  0.3218
  128MOL     C738361   1.506   1.827   6.708  0.2656  0.3198 -0.3974
  128MOL     N838362   1.626   1.797   6.655 -0.1251 -0.6126  0.1636
  128MOL     H938363   1.873   2.001   6.507  0.1233 -0.0161 -1.8879
  128MOL    H1038364   1.987   1.867   6.464 -0.0823 -0.3659  1.3976
  128MOL    H1138365   1.933   1.867   6.716  0.8370 -0.2498 -0.3223
  128MOL    H1238366   1.801   2.052   6.811 -0.5385  0.3104  0.0615
  128MOL    H1338367   1.591   2.111   6.896  1.5980  0.6260  0.1666
  128MOL    H1438368   1.385   1.964   6.822 -1.3662 -0.4238 -0.4446
  128MOL    H1538369   1.434   1.748   6.698  1.1226 -0.3001 -1.8877
  128MOL    H1638370   1.809   1.863   6.436 -1.4816 -1.3302  2.8829
  128MOL    C1738371   1.871   1.678   6.645  0.3899 -0.2609  0.0560
  128MOL    C1838372   2.008   1.619   6.646  0.0590  0.4012 -0.5393
  128MOL    C1938373   2.094   1.660   6.770  0.5183 -0.7029  0.5136
  128MOL    C2038374   2.201   1.755   6.762 -0.1237  0.8181 -0.4680
  128MOL    C2138375   2.287   1.774   6.872 -0.3232  0.7711  0.1236
  128MOL    C2238376   2.253   1.715   6.989 -0.3793  0.3420 -0.2154
  128MOL    C2338377   2.142   1.626   6.995  0.6651 -0.6277 -0.3461
  128MOL    N2438378   2.061   1.600   6.886  0.7005  0.3432 -0.4421
  128MOL    H2538379   1.805   1.643   6.566  0.4769 -0.1807 -0.0511
  128MOL    H2638380   1.835   1.635   6.738  3.5558 -1.1156  0.9403
  128MOL    H2738381   2.067   1.650   6.560  1.5427 -2.6562 -0.6923
  128MOL    H2838382   2.229   1.820   6.681  1.5228 -0.1161 -0.6665
  128MOL    H2938383   2.371   1.841   6.876 -0.3365  0.7458  0.9050
  128MOL    H3038384   2.315   1.736   7.075  0.2971  1.1476 -0.8968
  128MOL    H3138385   2.130   1.574   7.089  0.7819 -0.7077 -0.3743
  128MOL    C3238386   2.011   1.471   6.620  0.1533  0.7475  0.7081
  128MOL    C3338387   1.970   1.435   6.473  0.4369 -0.0496 -0.2729
  128MOL    C3438388   2.093   1.461   6.384 -0.3654  0.0285  1.0874
  128MOL    C3538389   2.104   1.590   6.326  0.3940  0.2360 -0.0350
  128MOL    C3638390   2.223   1.614   6.254  0.0334  0.8883 -0.4971
  128MOL    C3738391   2.327   1.521   6.257  0.5819  0.0440  0.0657
  128MOL    C3838392   2.313   1.400   6.319 -0.7976  0.7597 -0.3137
  128MOL    N3938393   2.195   1.371   6.377 -0.2403 -0.3182 -0.1781
  128MOL    H4038394   1.938   1.431   6.691 -0.0959 -1.1723 -0.5725
  128MOL    H4138395   2.105   1.421   6.643  0.9731  0.9250 -2.1417
  128MOL    H4238396   1.899   1.508   6.434 -2.1530 -1.5354  1.5229
  128MOL    H4338397   2.023   1.661   6.333 -0.8081 -0.9549 -1.6259
  128MOL    H4438398   2.239   1.706   6.200  0.0824  1.2547  0.1412
  128MOL    H4538399   2.417   1.544   6.201  1.8822 -0.0508  2.0421
  128MOL    H4638400   2.382   1.317   6.322 -0.8960  0.7145  1.0837
  128MOL    C4738401   1.897   1.298   6.452 -0.0062 -0.4232  0.1567
  128MOL    C4838402   1.745   1.314   6.485  0.0712  0.4711  0.5635
  128MOL    C4938403   1.670   1.379   6.368  0.2736 -0.1712  0.5758
  128MOL    C5038404   1.609   1.499   6.382 -0.0013  0.0722 -0.3548
  128MOL    C5138405   1.539   1.550   6.273 -0.0691  0.1713 -0.4687
  128MOL    C5238406   1.526   1.474   6.162  0.6331  0.2552 -0.1952
  128MOL    C5338407   1.599   1.354   6.156  0.5314 -0.4586  0.8567
  128MOL    N5438408   1.667   1.303   6.257  0.4383  0.0275  0.5380
  128MOL    H5538409   1.949   1.212   6.496  0.2157 -0.7025 -0.6353
  128MOL    H5638410   1.905   1.276   6.345 -3.1265 -2.1616  0.2078
  128MOL    H5738411   1.736   1.379   6.572  0.9995  1.5332 -0.1138
  128MOL    H5838412   1.611   1.556   6.474 -1.2304 -0.2815 -0.1014
  128MOL    H5938413   1.486   1.644   6.269 -1.3434 -0.4674  0.8441
  128MOL    H6038414   1.470   1.512   6.077  0.3159  0.1999 -0.0130
  128MOL    H6138415   1.596   1.295   6.065 -0.5967  0.2971  0.3914
  128MOL    C6238416   1.684   1.183   6.515  0.3026 -0.1748  0.6156
  128MOL    C6338417   1.668   1.142   6.662 -0.1730 -0.1088 -0.0832
  128MOL    C6438418   1.609   1.002   6.679  0.2221  0.2594 -0.3271
  128MOL    C6538419   1.478   0.982   6.732 -0.7525 -0.4681 -0.0036
  128MOL    C6638420   1.441   0.851   6.757  0.8975  0.3285  0.2877
  128MOL    C6738421   1.526   0.740   6.738 -0.1952 -0.2359 -0.2601
  128MOL    C6838422   1.651   0.772   6.688  0.0605  0.5789 -0.1718
  128MOL    N6938423   1.689   0.898   6.657 -0.3421  0.1913 -0.5616
  128MOL    H7038424   1.729   1.109   6.448  0.5007 -0.4952  1.1012
  128MOL    H7138425   1.578   1.192   6.493  1.0112  0.4983 -2.8320
  128MOL    H7238426   1.589   1.205   6.703 -1.5670 -0.7183 -1.7524
  128MOL    H7338427   1.411   1.065   6.751  0.8930  0.7398  0.5665
  128MOL    H7438428   1.350   0.836   6.812  1.4118  0.6845  1.2626
  128MOL    H7538429   1.492   0.642   6.769 -0.4335 -0.8317 -2.3615
  128MOL    H7638430   1.730   0.700   6.669  0.3686  0.7616  0.4237
  128MOL    C7738431   1.806   1.154   6.738  0.5935  0.1231  0.1040
  128MOL    C7838432   1.793   1.174   6.889  0.2927  0.3398 -0.2496
  128MOL    C7938433   1.716   1.301   6.932 -0.2407  0.1292 -0.4634
  128MOL    C8038434   1.793   1.418   6.949 -0.0987  0.1335 -0.0092
  128MOL    C8138435   1.738   1.538   6.996 -0.0379 -0.0681 -0.1896
  128MOL    C8238436   1.598   1.538   7.020  0.3316  0.0613 -0.1954
  128MOL    C8338437   1.529   1.412   7.010 -0.7244 -0.3588  0.0273
  128MOL    N8438438   1.587   1.299   6.954 -0.3340  0.1965 -0.4008
  128MOL    H8538439   1.853   1.248   6.712  0.3800 -0.2693 -1.7830
  128MOL    H8638440   1.881   1.088   6.694  1.8643  1.2348  0.5680
  128MOL    H8738441   1.900   1.197   6.897  0.4606 -0.6788  0.6622
  128MOL    H8838442   1.898   1.416   6.922  0.2649 -0.4054  1.4302
  128MOL    H8938443   1.797   1.624   7.024 -0.4462 -0.1490  0.9758
  128MOL    H9038444   1.537   1.623   7.047 -0.6592 -0.2131 -1.4886
  128MOL    H9138445   1.426   1.395   7.036 -0.3986 -1.5724  0.5594
  128MOL    C9238446   1.765   1.054   6.989 -0.0982  0.7729  0.1909
  128MOL    C9338447   1.867   0.940   6.981 -0.0192 -0.4020  0.2637
  128MOL    C9438448   2.010   0.989   6.960 -0.7566 -0.0242  0.2433
  128MOL    C9538449   2.081   0.949   6.843  0.3321  0.2613 -0.1273
  128MOL    C9638450   2.216   0.992   6.832 -0.1896  0.2377  0.1134
  128MOL    C9738451   2.269   1.091   6.927 -0.1156 -0.5062  0.2254
  128MOL    C9838452   2.186   1.139   7.025 -0.5421  0.3295  0.0590
  128MOL    N9938453   2.060   1.084   7.044  0.4371 -0.7907 -0.0790
  128MOL   H10038454   1.665   1.010   6.977  0.4642 -0.6141  0.5323
  128MOL   H10138455   1.776   1.095   7.090 -0.9642 -1.6251  1.3066
  128MOL   H10238456   1.833   0.890   6.890  0.3930  0.3958 -0.3340
  128MOL   H10338457   2.044   0.888   6.762 -0.9606 -0.1567  0.7567
  128MOL   H10438458   2.276   0.972   6.745  0.2847 -0.6415  0.6307
  128MOL   H10538459   2.366   1.130   6.898 -1.9757  1.0731 -4.4671
  128MOL   H10638460   2.211   1.224   7.087 -0.6072  0.2907  0.1383
  128MOL   C10738461   1.862   0.850   7.102  0.0924 -0.5328  0.2365
  128MOL   C10838462   1.749   0.754   7.110 -0.7793  0.4729 -0.1234
  128MOL   C10938463   1.792   0.630   7.043 -0.0624  0.1706 -0.2918
  128MOL   C11038464   1.880   0.543   7.109  0.1845  0.3069  0.4189
  128MOL   C11138465   1.927   0.425   7.053 -0.3704  0.0973 -0.9160
  128MOL   C11238466   1.865   0.387   6.932  0.5030  0.2538  0.5924
  128MOL   C11338467   1.769   0.474   6.874 -0.9617 -0.1686  0.4078
  128MOL   N11438468   1.737   0.595   6.919  0.0737  0.2204 -0.0970
  128MOL   H11538469   1.857   0.919   7.186  0.2142  0.5833 -0.6602
  128MOL   H11638470   1.953   0.792   7.119  0.6699  0.4165  0.4333
  128MOL   H11738471   1.673   0.801   7.048 -1.3758 -3.5520 -2.6122
  128MOL   H11838472   1.919   0.565   7.207 -1.1153 -0.6861  1.1688
  128MOL   H11938473   1.976   0.346   7.108  0.4424  0.6490 -0.8467
  128MOL   H12038474   1.870   0.286   6.897  1.2902  1.0246 -1.5709
  128MOL   H12138475   1.719   0.454   6.781  0.3535  3.0540 -1.0510
  128MOL   C12238476   1.679   0.733   7.253  0.0007  0.6522  0.4299
  128MOL   C12338477   1.598   0.843   7.321 -0.0345 -0.1705  0.2686
  128MOL   C12438478   1.485   0.889   7.234 -0.6130 -0.3021  0.0964
  128MOL   C12538479   1.485   1.020   7.180 -0.2050 -0.0347  1.2499
  128MOL   C12638480   1.389   1.065   7.089  0.2719  0.1021  0.7734
  128MOL   C12738481   1.292   0.970   7.049  0.1169 -0.2664  0.2397
  128MOL   C12838482   1.310   0.838   7.095  0.3131 -1.2899  0.1400
  128MOL   N12938483   1.398   0.796   7.184  0.4365  0.0970  0.1356
  128MOL   H13038484   1.751   0.692   7.324 -1.3336 -1.1866  0.7505
  128MOL   H13138485   1.611   0.650   7.237  0.9080 -0.2762  1.2834
  128MOL   H13238486   1.667   0.927   7.322 -0.4410  0.1717  1.5818
  128MOL   H13338487   1.559   1.085   7.224  0.3206  0.8945 -0.9361
  128MOL   H13438488   1.397   1.166   7.053  1.8696  0.3827  1.8738
  128MOL   H13538489   1.217   0.999   6.977  0.0681 -1.5864 -0.2535
  128MOL   H13638490   1.241   0.762   7.062  0.8274 -1.4149 -0.6653
  128MOL   C13738491   1.552   0.808   7.466 -0.6960 -0.1500  0.4785
  128MOL   C13838492   1.467   0.919   7.535 -0.2185  0.0928  0.1273
  128MOL   C13938493   1.373   0.845   7.641 -0.1590 -0.0681 -0.4098
  128MOL   C14038494   1.237   0.880   7.661 -0.3552 -0.1884 -0.1082
  128MOL   C14138495   1.163   0.815   7.759  0.0875  0.8054  0.1683
  128MOL   C14238496   1.227   0.712   7.827  0.6128 -0.5495 -0.1562
  128MOL   C14338497   1.365   0.694   7.821  0.1610  0.2169  0.5114
  128MOL   N14438498   1.436   0.760   7.723  0.5908 -0.1808 -0.2254
  128MOL   H14538499   1.632   0.774   7.531 -0.0722  0.6120  0.1122
  128MOL   H14638500   1.493   0.720   7.441 -2.7711  0.6782  2.2252
  128MOL   H14738501   1.400   0.971   7.466 -1.3324  1.4449  2.1542
  128MOL   H14838502   1.192   0.953   7.596 -1.6214 -1.8560 -1.1483
  128MOL   H14938503   1.059   0.842   7.772  0.3170  3.1759 -2.5991
  128MOL   H15038504   1.164   0.655   7.894 -1.4321  2.4121  0.5957
  128MOL   H15138505   1.423   0.619   7.873 -1.4324 -0.9468  0.6697
  128MOL   C15238506   1.552   1.034   7.598 -0.0970 -0.7233  0.3182
  128MOL   C15338507   1.511   1.173   7.539  0.2980 -0.1273 -0.6263
  128MOL   C15438508   1.360   1.196   7.547  0.5716 -0.3959 -0.4500
  128MOL   C15538509   1.280   1.186   7.430 -0.1069  0.8516  0.5729
  128MOL   C15638510   1.140   1.177   7.442  0.1283  0.7423  0.0755
  128MOL   C15738511   1.087   1.186   7.571  0.5290 -0.5339 -0.4332
  128MOL   C15838512   1.170   1.216   7.685 -0.3299  0.5497 -0.4229
  128MOL   N15938513   1.303   1.206   7.678  0.0931 -0.3661 -0.1091
  128MOL   H16038514   1.659   1.026   7.577  0.2811  4.1095 -0.1948
  128MOL   H16138515   1.545   1.037   7.706 -0.3732  1.7748  0.2434
  128MOL   H16238516   1.537   1.170   7.433  2.2668  2.2923 -0.2368
  128MOL   H16338517   1.315   1.172   7.329  0.3667 -0.5105  0.9102
  128MOL   H16438518   1.085   1.150   7.353  2.2874 -0.1781 -1.0222
  128MOL   H16538519   0.980   1.175   7.583  0.4421  1.1183  0.5242
  128MOL   H16638520   1.130   1.225   7.785  1.2163  0.9241  0.1779
  128MOL   C16738521   1.586   1.291   7.592  0.1492  0.7234 -0.0153
  128MOL   C16838522   1.621   1.405   7.489  0.0463 -0.0417  0.3925
  128MOL   C16938523   1.750   1.373   7.410 -0.2764 -0.0388  0.6443
  128MOL   C17038524   1.842   1.483   7.382  0.5766  0.3226  0.4441
  128MOL   C17138525   1.957   1.451   7.315 -0.0652 -0.9204  0.6986
  128MOL   C17238526   1.980   1.316   7.275 -0.1360 -0.1478  0.0410
  128MOL   C17338527   1.889   1.220   7.317  0.6310 -0.1479  0.0340
  128MOL   N17438528   1.774   1.246   7.381 -0.2143 -0.5116 -0.2353
  128MOL   H17538529   1.683   1.261   7.632  0.0416 -1.3015 -1.2020
  128MOL   H17638530   1.540   1.333   7.682 -0.3648  0.3330 -0.0907
  128MOL   H17738531   1.650   1.483   7.559  1.4392  0.1893 -0.4323
  128MOL   H17838532   1.806   1.581   7.410 -0.6238  0.6887 -2.2158
  128MOL   H17938533   2.029   1.522   7.278 -0.6907 -0.1307  0.9915
  128MOL   H18038534   2.073   1.284   7.231 -0.1751 -0.5931  0.2748
  128MOL   H18138535   1.917   1.116   7.306  0.8978 -0.1473  0.7194
  128MOL   C18238536   1.504   1.460   7.402 -0.3065 -0.0394 -0.3580
  128MOL   C18338537   1.398   1.530   7.490 -0.2878 -0.3032  0.4092
  128MOL   C18438538   1.455   1.654   7.549  0.0230  1.3616  0.3385
  128MOL   C18538539   1.493   1.669   7.685  0.4269 -0.6981 -0.0828
  128MOL   C18638540   1.564   1.785   7.715 -0.1187  0.4158 -0.2244
  128MOL   C18738541   1.596   1.881   7.619 -0.2130  0.4299 -0.5755
  128MOL   C18838542   1.549   1.866   7.488  0.9479 -1.1238 -0.4639
  128MOL   N18938543   1.481   1.750   7.458 -0.5423 -0.1071  0.5278
  128MOL   H19038544   1.465   1.375   7.346 -0.1503  0.1091 -0.6938
  128MOL   H19138545   1.532   1.531   7.324 -2.2258  1.4171  0.2328
  128MOL   H19238546   1.384   1.466   7.577  0.3361  0.7796  1.3234
  128MOL   H19338547   1.464   1.602   7.765  1.2112  0.1122  0.8807
  128MOL   H19438548   1.599   1.795   7.817  1.0464 -0.9986 -0.4703
  128MOL   H19538549   1.655   1.964   7.656  1.0537 -0.9408  0.4903
  128MOL   H19638550   1.571   1.934   7.408 -0.6331  0.9533  0.8261
  128MOL   C19738551   1.260   1.554   7.433  0.3344 -0.2762  0.3118
  128MOL   C19838552   1.150   1.617   7.523 -0.4281  0.7320  0.2975
  128MOL   C19938553   1.040   1.670   7.440  0.8320 -0.3517 -0.1889
  128MOL   C20038554   1.001   1.805   7.443  0.2772  0.8561  0.0869
  128MOL   C20138555   0.894   1.857   7.366  0.3835 -0.9501 -0.2746
  128MOL   C20238556   0.820   1.760   7.295  0.4020  0.6750  0.2825
  128MOL   C20338557   0.851   1.622   7.306 -0.1260 -0.0588  0.8018
  128MOL   N20438558   0.963   1.579   7.364 -0.2993 -0.3221 -0.5612
  128MOL   H20538559   1.221   1.459   7.396 -1.1699  0.7013 -0.6975
  128MOL   H20638560   1.268   1.613   7.341  0.5708  0.7203  0.9622
  128MOL   H20738561   1.203   1.700   7.570 -0.2699  0.6692  0.2279
  128MOL   H20838562   1.062   1.875   7.499  0.4109  0.4677  0.4259
  128MOL   H20938563   0.875   1.962   7.345  0.3694 -0.8424  0.2787
  128MOL   H21038564   0.728   1.787   7.246 -1.4329 -0.7661  2.8409
  128MOL   H21138565   0.791   1.546   7.258  2.7120 -0.9781 -1.4593
  128MOL   C21238566   1.098   1.523   7.641  0.1297  0.1046 -0.8538
  128MOL   C21338567   1.015   1.595   7.750  0.2367  0.0677 -0.5699
  128MOL   C21438568   0.868   1.587   7.737  0.6302  0.8105  0.3719
  128MOL   C21538569   0.797   1.709   7.730  0.1998  0.0399 -0.2594
  128MOL   C21638570   0.657   1.702   7.724 -0.1907  0.8786 -0.2956
  128MOL   C21738571   0.599   1.578   7.709 -0.2007  0.0914 -0.1151
  128MOL   C21838572   0.675   1.459   7.717  0.8327  0.4062  0.0334
  128MOL   N21938573   0.807   1.465   7.731  0.3963 -0.8826  0.1456
  128MOL   H22038574   1.181   1.486   7.701 -0.2664  3.0850  1.6502
  128MOL   H22138575   1.044   1.433   7.615  1.2422 -0.1834 -2.2413
  128MOL   H22238576   1.036   1.698   7.719  1.7655  0.6749  2.3636
  128MOL   H22338577   0.850   1.802   7.737 -0.1711  0.1774  0.7917
  128MOL   H22438578   0.599   1.793   7.726  0.6216  1.3932  3.9544
  128MOL   H22538579   0.492   1.571   7.697 -0.5103  3.6950 -0.1473
  128MOL   H22638580   0.628   1.364   7.698 -0.4241  0.6641  1.8438
  128MOL   C22738581   1.057   1.578   7.901 -0.3988 -1.4274  0.4135
  128MOL   C22838582   1.168   1.665   7.962  0.2462  0.1042  0.2172
  128MOL   C22938583   1.162   1.809   7.914  0.0867  0.2363 -0.1121
  128MOL   C23038584   1.277   1.874   7.870  0.4565 -0.7719  0.4637
  128MOL   C23138585   1.265   2.013   7.842  0.1640 -1.0671 -0.6415
  128MOL   C23238586   1.151   2.082   7.873  0.4509  0.1539 -0.4406
  128MOL   C23338587   1.047   2.007   7.930  0.6917 -0.2828  0.2974
  128MOL   N23438588   1.050   1.876   7.945 -0.0521  0.2994  0.7439
  128MOL   H23538589   1.070   1.470   7.910 -2.2644 -1.7689 -0.6560
  128MOL   H23638590   0.967   1.592   7.961  0.1451 -0.5257  1.0159
  128MOL   H23738591   1.261   1.635   7.914  0.4487 -0.7992  1.1536
  128MOL   H23838592   1.372   1.825   7.881  1.1523  0.7712  1.6487
  128MOL   H23938593   1.353   2.065   7.805  0.4516 -1.1132 -0.0208
  128MOL   H24038594   1.134   2.189   7.864  0.0113  0.1223 -0.0464
  128MOL   H24138595   0.962   2.059   7.970 -0.3539 -0.7914 -1.2017
  128MOL   C24238596   1.170   1.659   8.116  0.5524 -0.0638 -0.3807
  128MOL   C24338597   1.211   1.516   0.016  0.2628  0.0651 -0.3041
  128MOL   C24438598   1.335   1.456   8.101  0.2658  0.3559  0.0249
  128MOL   C24538599   1.333   1.343   8.015  0.1176 -0.3639 -0.1191
  128MOL   C24638600   1.452   1.291   7.966  0.5755 -0.4511 -0.1450
  128MOL   C24738601   1.567   1.367   7.988 -0.0451  0.4940  0.1121
  128MOL   C24838602   1.564   1.474   8.079  1.0492  0.1815 -0.3567
  128MOL   N24938603   1.447   1.519   8.131  0.4185 -0.0580  0.0225
  128MOL   H25038604   1.074   1.678   0.014  1.4143 -0.2349  1.3828
  128MOL   H25138605   1.232   1.745   8.143 -0.0542  0.3914 -0.4034
  128MOL   H25238606   1.135   1.444   8.139  0.1859 -0.0875  0.2682
  128MOL   H25338607   1.239   1.296   7.991  0.9275 -1.2808 -1.6114
  128MOL   H25438608   1.450   1.194   7.920 -2.5575 -1.2229  1.5033
  128MOL   H25538609   1.658   1.327   7.946 -0.3135  0.4618 -0.4499
  128MOL   H25638610   1.656   1.528   8.099  0.6205  1.3575 -1.4370
  128MOL   C25738611   1.214   1.500   0.167 -0.5399  0.1549  0.6664
  128MOL   C25838612   1.085   1.516   0.247 -0.0140 -0.1988  0.6529
  128MOL   C25938613   0.967   1.427   0.196  0.6270 -0.1921 -0.0938
  128MOL   C26038614   0.947   1.300   0.239 -0.5667 -0.2407  0.2963
  128MOL   C26138615   0.837   1.225   0.188  0.4176 -0.1050  0.7387
  128MOL   C26238616   0.756   1.279   0.095 -0.3108  0.4305 -0.1867
  128MOL   C26338617   0.790   1.408   0.054 -0.5681 -0.4357 -0.7457
  128MOL   N26438618   0.882   1.483   0.110 -0.0482 -0.4252 -0.1295
  128MOL   H26538619   1.283   1.581   0.193 -0.8212  1.1765 -1.6174
  128MOL   H26638620   1.273   1.416   0.205  0.2855  0.1002 -0.6918
  128MOL   H26738621   1.060   1.620   0.223  0.7902 -0.3726 -1.0489
  128MOL   H26838622   1.020   1.252   0.303 -1.4962  0.3519  1.8351
  128MOL   H26938623   0.828   1.120   0.210  0.3344 -0.4120 -0.7346
  128MOL   H27038624   0.670   1.218   0.069  1.7724 -1.8857 -1.9383
  128MOL   H27138625   0.730   1.448   8.125 -0.4880  1.8876  0.2923
  128MOL   C27238626   1.101   1.528   0.396  0.2912 -0.5022  0.6801
  128MOL   C27338627   0.975   1.569   0.483  0.5968  0.4551 -0.2487
  128MOL   C27438628   1.015   1.599   0.632  0.0104  0.4492  0.2064
  128MOL   C27538629   0.985   1.493   0.728 -0.0774  0.6700 -0.0231
  128MOL   C27638630   1.008   1.528   0.861 -0.4591  0.0138  0.2508
  128MOL   C27738631   1.077   1.642   0.900  0.1317 -0.2877  0.9914
  128MOL   C27838632   1.114   1.735   0.800  0.3537  0.4911 -0.4876
  128MOL   N27938633   1.079   1.717   0.664 -0.4875  0.6813 -0.6104
  128MOL   H28038634   1.170   1.612   0.402 -0.5407  0.1489  1.2555
  128MOL   H28138635   1.153   1.444   0.440  0.7869 -1.4617 -1.6351
  128MOL   H28238636   0.919   1.476   0.493  1.9129 -0.2731  0.4741
  128MOL   H28338637   0.932   1.408   0.686  0.4283 -0.4390  1.5285
  128MOL   H28438638   0.976   1.462   0.941  1.3952  0.9763  1.8266
  128MOL   H28538639   1.104   1.660   1.003  3.2645  1.2046 -0.0209
  128MOL   H28638640   1.170   1.824   0.825  1.3017 -1.2719  4.0332
  128MOL   C28738641   0.887   1.682   0.428  0.0048 -0.0021 -0.9831
  128MOL   C28838642   0.750   1.700   0.506  0.1380 -0.3357 -0.1557
  128MOL   C28938643   0.758   1.784   0.631 -0.9390  0.4584  0.2772
  128MOL   C29038644   0.730   1.722   0.754 -0.2311  0.1624  0.1960
  128MOL   C29138645   0.735   1.794   0.873  0.5572  0.1505  0.5696
  128MOL   C29238646   0.762   1.934   0.861 -0.0733  0.3955 -0.7627
  128MOL   C29338647   0.812   1.978   0.735  0.4242 -0.5293 -0.5486
  128MOL   N29438648   0.803   1.907   0.622  0.2611  0.7463  0.0321
  128MOL   H29538649   0.868   1.669   0.321 -2.7032  2.3318 -0.8242
  128MOL   H29638650   0.943   1.775   0.425 -2.2990  1.4054 -1.8745
  128MOL   H29738651   0.704   1.607   0.536 -0.6698  0.5610  1.4128
  128MOL   H29838652   0.719   1.615   0.751 -1.7041  0.2819  0.9973
  128MOL   H29938653   0.728   1.749   0.971  2.7409 -1.0633  0.1942
  128MOL   H30038654   0.771   1.999   0.947 -2.5051 -0.1545 -0.0463
  128MOL   H30138655   0.852   2.076   0.712 -2.2038  0.6446 -0.3367
  128MOL   H30238656   0.686   1.757   0.438  1.4917  0.3948 -0.8463
  129MOL     C138657   2.305   4.693   5.289 -0.1942  0.5317 -0.4997
  129MOL     C238658   2.236   4.573   5.349  0.7579  0.2659 -0.0178
  129MOL     C338659   2.216   4.584   5.501  0.2064  0.1753 -0.8830
  129MOL     C438660   2.304   4.530   5.592  0.5796  0.0196  0.5960
  129MOL     C538661   2.290   4.551   5.729  0.4972 -0.6104  0.5447
  129MOL     C638662   2.191   4.640   5.772 -0.7035 -0.4944 -0.4689
  129MOL     C738663   2.102   4.693   5.681 -0.1453 -0.1398 -0.0469
  129MOL     N838664   2.118   4.670   5.548 -0.1814  0.6194  0.4608
  129MOL     H938665   2.234   4.775   5.306 -0.9545 -0.5159  1.5173
  129MOL    H1038666   2.394   4.719   5.347 -0.3256 -0.7186  0.2701
  129MOL    H1138667   2.302   4.490   5.326 -2.8587 -2.2781 -1.7241
  129MOL    H1238668   2.370   4.454   5.552 -0.0305 -0.4437  0.4537
  129MOL    H1338669   2.347   4.489   5.797  1.8220  0.0681  0.0827
  129MOL    H1438670   2.179   4.651   5.879  2.2460  1.6006 -0.2853
  129MOL    H1538671   2.011   4.741   5.714 -1.5230 -1.8510 -1.3224
  129MOL    H1638672   2.326   4.686   5.182  0.0310  0.3079 -0.4392
  129MOL    C1738673   2.103   4.545   5.281  0.5267  0.1843 -0.0974
  129MOL    C1838674   2.110   4.525   5.130 -0.2141  0.5321 -0.1422
  129MOL    C1938675   2.206   4.413   5.089  0.2889  0.6627  0.7941
  129MOL    C2038676   2.318   4.445   5.011 -0.2441  0.3440 -0.1584
  129MOL    C2138677   2.401   4.341   4.967 -0.3590  0.4754  0.1004
  129MOL    C2238678   2.373   4.205   5.007 -0.0331  0.5957  0.0718
  129MOL    C2338679   2.269   4.188   5.098  1.3438  0.3526  0.3641
  129MOL    N2438680   2.182   4.288   5.133 -0.1170  0.3740  0.4301
  129MOL    H2538681   2.037   4.631   5.299 -0.0331 -0.3196  0.2661
  129MOL    H2638682   2.052   4.465   5.334 -0.9891 -0.0381 -1.8597
  129MOL    H2738683   2.146   4.615   5.080 -0.4609  0.7642  0.0955
  129MOL    H2838684   2.322   4.547   4.976  0.2215 -0.0666 -1.3591
  129MOL    H2938685   2.490   4.340   4.906 -0.6759 -0.2711 -0.3589
  129MOL    H3038686   2.437   4.132   4.960  0.4849  1.6706 -0.9090
  129MOL    H3138687   2.256   4.089   5.139 -1.5851  0.3521 -0.4905
  129MOL    C3238688   1.971   4.501   5.073 -0.0018 -0.1045  0.2880
  129MOL    C3338689   1.879   4.622   5.070 -0.3790  0.0506 -0.2677
  129MOL    C3438690   1.939   4.739   4.989 -0.2898  0.2810 -0.4807
  129MOL    C3538691   2.017   4.838   5.047 -0.5526  0.0894 -0.5273
  129MOL    C3638692   2.094   4.926   4.964  0.2354  0.1416  0.3700
  129MOL    C3738693   2.083   4.916   4.822 -0.7263  0.0552  0.1725
  129MOL    C3838694   2.001   4.810   4.769  0.3304 -0.5874  0.5958
  129MOL    N3938695   1.931   4.723   4.848  0.1915  0.0550  0.0835
  129MOL    H4038696   1.922   4.420   5.127  1.6610  0.9220  3.4232
  129MOL    H4138697   1.985   4.458   4.974 -1.4637 -0.9718  0.4399
  129MOL    H4238698   1.866   4.662   5.170 -2.0637 -1.0397 -0.0318
  129MOL    H4338699   2.029   4.850   5.154  1.2955  0.3856 -0.7457
  129MOL    H4438700   2.156   5.004   5.005  0.7509 -0.2145  0.2842
  129MOL    H4538701   2.142   4.975   4.753 -1.7652  1.9518  0.8731
  129MOL    H4638702   1.987   4.786   4.664  1.4025  0.2055  0.2644
  129MOL    C4738703   1.737   4.590   5.021  0.7725 -0.0041 -0.2333
  129MOL    C4838704   1.652   4.496   5.115  0.4929 -1.0901 -0.1459
  129MOL    C4938705   1.627   4.551   5.253 -0.8482  0.3015  0.5096
  129MOL    C5038706   1.524   4.651   5.276 -0.8534 -0.0190  0.8294
  129MOL    C5138707   1.525   4.706   5.404  0.9355  0.5693  0.2470
  129MOL    C5238708   1.629   4.665   5.490 -0.4529 -0.7131  0.2698
  129MOL    C5338709   1.730   4.572   5.455  0.0130  0.6931 -0.2208
  129MOL    N5438710   1.726   4.512   5.339 -0.2935  0.1329 -0.0337
  129MOL    H5538711   1.723   4.567   4.916  0.6915 -1.7176  0.1357
  129MOL    H5638712   1.680   4.683   5.023  1.9079  0.7132 -1.0243
  129MOL    H5738713   1.710   4.407   5.136  1.1670 -0.3020  1.3997
  129MOL    H5838714   1.443   4.673   5.208  0.8614  1.3087 -0.8561
  129MOL    H5938715   1.456   4.784   5.432 -0.5503 -0.8890  0.7142
  129MOL    H6038716   1.623   4.717   5.585 -0.6943  2.5867 -1.4726
  129MOL    H6138717   1.814   4.538   5.514  0.5213  0.2369 -1.2010
  129MOL    C6238718   1.533   4.436   5.045  0.7673 -0.1641  0.2292
  129MOL    C6338719   1.455   4.322   5.107  0.1816 -0.4471  0.0467
  129MOL    C6438720   1.309   4.316   5.072  1.1529 -0.0285  0.0325
  129MOL    C6538721   1.210   4.346   5.169  0.0807  0.7243 -0.3954
  129MOL    C6638722   1.074   4.318   5.146  0.6654  0.4530 -0.5778
  129MOL    C6738723   1.040   4.288   5.012  0.2892 -0.3561 -0.3671
  129MOL    C6838724   1.142   4.274   4.918 -0.7328 -0.0380  0.0257
  129MOL    N6938725   1.276   4.285   4.945 -0.2328 -0.0606 -0.6376
  129MOL    H7038726   1.547   4.411   4.940  0.7164 -1.4130  0.5149
  129MOL    H7138727   1.461   4.518   5.051 -0.3697 -1.1580  0.3430
  129MOL    H7238728   1.455   4.337   5.215 -2.2867  0.9100 -0.1139
  129MOL    H7338729   1.237   4.379   5.268 -0.3101  1.0583 -0.3966
  129MOL    H7438730   0.996   4.328   5.220  0.4147  2.9889 -1.1298
  129MOL    H7538731   0.937   4.268   4.986  0.6866  1.0020 -3.0931
  129MOL    H7638732   1.126   4.243   4.815  3.3467 -0.6778 -0.5094
  129MOL    C7738733   1.519   4.180   5.104  0.3360 -0.2128  1.0453
  129MOL    C7838734   1.562   4.118   4.967  0.1879  0.0675 -0.1016
  129MOL    C7938735   1.695   4.155   4.920 -0.2435  0.3137 -0.0242
  129MOL    C8038736   1.812   4.098   4.971  0.2812  0.2145 -0.0068
  129MOL    C8138737   1.942   4.135   4.926 -0.6482 -0.0389 -0.0949
  129MOL    C8238738   1.947   4.234   4.823 -0.0992 -0.1774  0.1891
  129MOL    C8338739   1.823   4.271   4.766 -0.0253  0.2128 -0.1635
  129MOL    N8438740   1.707   4.236   4.816  0.5997  0.8684  0.1053
  129MOL    H8538741   1.444   4.120   5.157 -1.2151  3.0574  2.6906
  129MOL    H8638742   1.609   4.183   5.165  1.1199  0.3308 -0.1266
  129MOL    H8738743   1.499   4.165   4.891 -2.5357  0.4144  2.2974
  129MOL    H8838744   1.799   4.031   5.055 -1.4792 -1.0939 -1.2945
  129MOL    H8938745   2.028   4.099   4.980  0.2969 -0.4248 -1.7914
  129MOL    H9038746   2.046   4.262   4.794 -0.8048  1.2721 -0.8691
  129MOL    H9138747   1.835   4.347   4.690  1.8053  0.7053  0.5861
  129MOL    C9238748   1.531   3.963   4.960 -0.4610 -0.6491 -0.6124
  129MOL    C9338749   1.387   3.934   4.918 -0.5383 -0.7149 -0.0075
  129MOL    C9438750   1.376   3.800   4.849 -0.3080  0.1159 -0.3750
  129MOL    C9538751   1.335   3.801   4.715 -0.1769  0.3244  0.3050
  129MOL    C9638752   1.324   3.678   4.644 -0.2007  0.1548 -0.4646
  129MOL    C9738753   1.357   3.560   4.714  0.1871  0.2055  0.2640
  129MOL    C9838754   1.400   3.572   4.849  0.8116  0.0756 -0.0043
  129MOL    N9938755   1.406   3.693   4.917  0.6587  0.3924 -0.4597
  129MOL   H10038756   1.569   3.915   5.050  1.1097 -1.5887 -1.7729
  129MOL   H10138757   1.599   3.916   4.890 -1.8432  0.1636 -2.5440
  129MOL   H10238758   1.360   4.014   4.849  0.5309  1.2854  1.8410
  129MOL   H10338759   1.305   3.896   4.674 -2.0871  0.1455  1.2242
  129MOL   H10438760   1.306   3.676   4.538  0.9999 -0.1996 -0.6725
  129MOL   H10538761   1.357   3.466   4.661  1.1175  0.7462 -0.7143
  129MOL   H10638762   1.407   3.483   4.911  2.0848 -2.2403 -3.3507
  129MOL   C10738763   1.283   3.939   5.040  0.2039  0.1963  0.3320
  129MOL   C10838764   1.136   3.864   5.022  0.4075  0.2470 -0.4474
  129MOL   C10938765   1.067   3.859   5.159  0.4676 -0.7190 -0.2426
  129MOL   C11038766   1.070   3.745   5.243 -0.1727 -0.3785  0.7058
  129MOL   C11138767   1.009   3.749   5.372  0.1687  0.2205 -0.1044
  129MOL   C11238768   0.951   3.874   5.409  0.5984  0.3916 -0.0603
  129MOL   C11338769   0.952   3.981   5.319 -0.9228  0.3972 -0.1716
  129MOL   N11438770   1.018   3.976   5.203  0.5685  0.4477  1.0336
  129MOL   H11538771   1.267   4.043   5.067 -0.5919 -0.1446  1.2305
  129MOL   H11638772   1.339   3.891   5.120 -1.5054 -0.1623  1.3335
  129MOL   H11738773   1.152   3.757   5.010  2.1817  0.5314 -0.7963
  129MOL   H11838774   1.101   3.654   5.196 -0.3227 -1.2955  2.3252
  129MOL   H11938775   1.009   3.664   5.438 -0.9487  1.3475  1.3639
  129MOL   H12038776   0.889   3.890   5.495 -1.6928  0.4560 -1.6677
  129MOL   H12138777   0.915   4.081   5.340  0.8280  1.6073 -2.6350
  129MOL   C12238778   1.054   3.925   4.905  1.0856  0.5526 -0.0176
  129MOL   C12338779   0.909   3.858   4.887 -0.2356  0.4483 -0.1718
  129MOL   C12438780   0.807   3.965   4.850 -0.3112 -0.5063 -0.2698
  129MOL   C12538781   0.741   4.040   4.943  0.0756  0.5276 -0.9710
  129MOL   C12638782   0.645   4.133   4.901 -0.2621 -0.1119  0.5232
  129MOL   C12738783   0.613   4.144   4.763  0.2209  0.2085  0.0520
  129MOL   C12838784   0.694   4.067   4.676 -0.1929 -0.2574  0.0223
  129MOL   N12938785   0.789   3.980   4.717 -0.5713 -0.2318  0.1540
  129MOL   H13038786   1.099   3.932   4.806  1.4381 -0.4519  0.0617
  129MOL   H13138787   1.036   4.029   4.933  1.4835  0.6458 -0.1046
  129MOL   H13238788   0.879   3.840   4.990  3.2297  0.7778  0.9641
  129MOL   H13338789   0.761   4.014   5.046  0.0237 -1.2137 -1.3783
  129MOL   H13438790   0.594   4.191   4.976  0.5593  0.8456  0.3495
  129MOL   H13538791   0.541   4.215   4.724 -0.3175 -0.2310  0.2264
  129MOL   H13638792   0.684   4.091   4.571 -1.4211  0.0921  0.2028
  129MOL   C13738793   0.904   3.718   4.812 -0.2741 -0.2825 -0.2939
  129MOL   C13838794   0.777   3.627   4.825 -0.3457 -0.0281  0.4247
  129MOL   C13938795   0.766   3.563   4.963  0.0149 -0.1478  0.2985
  129MOL   C14038796   0.748   3.647   5.076 -0.0086 -0.7206  0.9274
  129MOL   C14138797   0.739   3.582   5.200 -0.2646 -0.1035  0.1358
  129MOL   C14238798   0.760   3.443   5.205 -0.8519 -0.2319 -0.1359
  129MOL   C14338799   0.789   3.371   5.091 -0.5950  0.5625 -0.1878
  129MOL   N14438800   0.789   3.427   4.966  0.6841 -0.7087 -0.4117
  129MOL   H14538801   0.978   3.645   4.846 -1.0389 -1.6735 -1.5073
  129MOL   H14638802   0.925   3.729   4.705 -1.0791  0.5960 -0.3640
  129MOL   H14738803   0.793   3.535   4.769 -1.3426 -1.7857  2.9104
  129MOL   H14838804   0.721   3.751   5.062 -1.4161 -1.1785  0.1162
  129MOL   H14938805   0.702   3.638   5.285 -0.5533  0.3561 -0.2887
  129MOL   H15038806   0.758   3.387   5.298  0.3275 -0.2860 -0.1412
  129MOL   H15138807   0.803   3.264   5.089  0.6230  0.7109 -0.2149
  129MOL   C15238808   0.640   3.680   4.772 -0.0383 -0.2937 -0.4246
  129MOL   C15338809   0.628   3.676   4.622  0.0466  0.7345  0.4512
  129MOL   C15438810   0.634   3.533   4.571  0.7836 -1.2563 -0.3299
  129MOL   C15538811   0.719   3.506   4.467  0.0088 -0.1260 -0.3182
  129MOL   C15638812   0.723   3.381   4.404  0.5154 -0.0876  0.0922
  129MOL   C15738813   0.634   3.281   4.454 -0.1117 -0.5337 -0.3149
  129MOL   C15838814   0.544   3.319   4.560  0.1011 -0.0739 -0.2420
  129MOL   N15938815   0.541   3.444   4.618  0.3530  0.2459 -0.0933
  129MOL   H16038816   0.632   3.783   4.807  0.0098 -0.2546 -0.5295
  129MOL   H16138817   0.553   3.631   4.816 -0.5696  1.9180  1.0736
  129MOL   H16238818   0.717   3.731   4.591 -0.0606 -0.5248 -2.2320
  129MOL   H16338819   0.793   3.578   4.434  0.5394 -0.1700  0.7527
  129MOL   H16438820   0.782   3.363   4.316  0.0694  3.0108 -0.9170
  129MOL   H16538821   0.618   3.186   4.404 -1.0507  0.2080 -1.4516
  129MOL   H16638822   0.469   3.251   4.596 -0.3141 -0.3828 -1.6426
  129MOL   C16738823   0.505   3.758   4.562 -0.5535  0.5600 -0.1909
  129MOL   C16838824   0.483   3.750   4.408 -0.0215  0.0231  0.1447
  129MOL   C16938825   0.339   3.797   4.366 -0.5697  1.0136  0.2424
  129MOL   C17038826   0.273   3.732   4.254  0.1497 -0.0567 -0.6000
  129MOL   C17138827   0.148   3.774   4.217 -0.0764  0.0383 -0.1297
  129MOL   C17238828   0.096   3.888   4.285 -0.1142 -0.1202  0.4222
  129MOL   C17338829   0.171   3.953   4.387 -0.2413 -0.6599  0.0394
  129MOL   N17438830   0.287   3.902   4.431  0.0656 -0.0502 -0.3010
  129MOL   H17538831   0.518   3.862   4.592  0.8877  0.5718 -0.8382
  129MOL   H17638832   0.419   3.730   4.622  0.9923 -1.0269  1.3294
  129MOL   H17738833   0.492   3.645   4.379 -1.6636  0.7097 -3.0964
  129MOL   H17838834   0.324   3.655   4.199 -0.8835  0.2163 -1.9807
  129MOL   H17938835   0.083   3.724   4.147  0.3788  0.1680 -0.6457
  129MOL   H18038836   0.004   3.934   4.253  1.0507  1.0207 -1.3637
  129MOL   H18138837   0.131   4.038   4.439 -2.0497 -0.4016 -1.7051
  129MOL   C18238838   0.598   3.829   4.343  0.5447 -0.4074 -0.4483
  129MOL   C18338839   0.620   3.818   4.195 -0.5271  0.2446 -0.1943
  129MOL   C18438840   0.718   3.923   4.152 -0.7736 -0.1129 -0.1831
  129MOL   C18538841   0.668   4.046   4.100  0.0754  0.6078  0.3320
  129MOL   C18638842   0.757   4.136   4.043 -0.5107 -0.3556 -0.2691
  129MOL   C18738843   0.899   4.105   4.050  0.2727  0.0348  1.0266
  129MOL   C18838844   0.941   3.986   4.113 -0.1989 -1.0467 -0.0609
  129MOL   N18938845   0.852   3.894   4.159 -0.9282  0.1934 -0.3495
  129MOL   H19038846   0.693   3.828   4.397  0.7785  2.7865 -0.7049
  129MOL   H19138847   0.569   3.933   4.352 -0.0960 -0.6025 -0.2005
  129MOL   H19238848   0.533   3.846   4.136  1.1070  1.0005 -2.3192
  129MOL   H19338849   0.564   4.066   4.120  0.3027  0.1117  2.0138
  129MOL   H19438850   0.728   4.232   4.003  1.6335 -0.4747 -2.2032
  129MOL   H19538851   0.971   4.179   4.017 -0.6777  0.3661 -0.3449
  129MOL   H19638852   1.048   3.969   4.116 -0.2263 -1.1824  0.1124
  129MOL   C19738853   0.664   3.672   4.162  0.0558  0.3556  0.2818
  129MOL   C19838854   0.715   3.638   4.024 -0.0557  0.1041  0.0050
  129MOL   C19938855   0.787   3.498   4.028 -0.0938 -0.0156 -0.1420
  129MOL   C20038856   0.924   3.481   3.999 -0.9326 -0.4807 -0.3499
  129MOL   C20138857   0.973   3.351   3.985 -0.7297 -0.2931  0.5617
  129MOL   C20238858   0.885   3.239   4.017  0.7141 -0.5413  0.7471
  129MOL   C20338859   0.751   3.268   4.046  0.2991  0.3377 -0.2350
  129MOL   N20438860   0.706   3.394   4.055 -0.1598 -0.1293  0.1008
  129MOL   H20538861   0.590   3.595   4.185  1.7298 -0.9802  1.2636
  129MOL   H20638862   0.756   3.654   4.218  0.0446 -1.3967 -0.2394
  129MOL   H20738863   0.799   3.703   3.999 -0.1026 -0.5295 -1.8656
  129MOL   H20838864   0.988   3.567   3.984 -1.9423  0.4287  0.4428
  129MOL   H20938865   1.079   3.350   3.964 -0.7585  1.8425  0.1609
  129MOL   H21038866   0.922   3.138   4.007 -0.8171 -1.1534  1.1997
  129MOL   H21138867   0.680   3.189   4.066 -0.5530  1.5712  1.6404
  129MOL   C21238868   0.607   3.648   3.907 -0.2525 -0.2841 -0.0918
  129MOL   C21338869   0.653   3.588   3.774  0.7410  0.1612 -0.0738
  129MOL   C21438870   0.540   3.593   3.668  0.0547  0.5408  0.3600
  129MOL   C21538871   0.455   3.485   3.641 -0.1401 -0.1651 -0.5065
  129MOL   C21638872   0.368   3.495   3.534  0.6064 -0.2345  0.6774
  129MOL   C21738873   0.358   3.617   3.469 -0.2039  0.3306  0.2682
  129MOL   C21838874   0.441   3.725   3.502  0.3202  0.3756 -0.0201
  129MOL   N21938875   0.537   3.708   3.598  0.5237 -0.2523 -0.0746
  129MOL   H22038876   0.579   3.753   3.900 -2.9021 -0.9032  0.7603
  129MOL   H22138877   0.518   3.587   3.926 -1.3713  1.6806  1.1169
  129MOL   H22238878   0.689   3.486   3.789  0.5186  0.0172 -0.4935
  129MOL   H22338879   0.468   3.386   3.684 -2.0332 -0.0186  0.4346
  129MOL   H22438880   0.319   3.407   3.497  0.8693  0.2806 -0.9470
  129MOL   H22538881   0.280   3.631   3.396 -1.2539 -0.3749  1.2367
  129MOL   H22638882   0.432   3.827   3.466 -0.6041  0.8171  1.4383
  129MOL   C22738883   0.782   3.655   3.724  0.2988  0.5235 -0.2351
  129MOL   C22838884   0.843   3.603   3.594  1.3860  0.0286 -0.2341
  129MOL   C22938885   0.975   3.672   3.561  0.3651 -0.3196  0.4994
  129MOL   C23038886   0.976   3.763   3.458 -0.3362  0.2129  0.3668
  129MOL   C23138887   1.097   3.826   3.428  0.6212  0.0204  0.3740
  129MOL   C23238888   1.207   3.815   3.511  0.2814  0.1241 -0.4038
  129MOL   C23338889   1.198   3.725   3.622  0.4032  0.2339  0.1390
  129MOL   N23438890   1.080   3.663   3.645  0.0115  0.3725 -0.2434
  129MOL   H23538891   0.861   3.641   3.797  0.5683  0.0996 -0.6080
  129MOL   H23638892   0.756   3.761   3.722  1.3384  0.7803 -0.2299
  129MOL   H23738893   0.781   3.634   3.510  1.0106  0.4363  0.1947
  129MOL   H23838894   0.892   3.778   3.392 -0.2247  1.8977  0.5923
  129MOL   H23938895   1.107   3.898   3.348  0.9428 -0.5251 -0.0854
  129MOL   H24038896   1.297   3.870   3.486  0.8410 -0.2406  0.7467
  129MOL   H24138897   1.279   3.700   3.689 -1.0264  1.0082  2.1589
  129MOL   C24238898   0.858   3.453   3.581  0.5524  0.1474 -0.2922
  129MOL   C24338899   0.885   3.393   3.443  0.1194 -0.4345 -0.4377
  129MOL   C24438900   0.945   3.254   3.455  0.2022  0.2068 -0.0990
  129MOL   C24538901   1.049   3.215   3.368 -0.2801 -0.0246 -0.4594
  129MOL   C24638902   1.092   3.079   3.373 -0.4613 -0.1271 -0.5844
  129MOL   C24738903   1.019   2.993   3.455  0.1845  0.3143  0.1255
  129MOL   C24838904   0.911   3.037   3.529 -0.3009  0.0325  0.2693
  129MOL   N24938905   0.875   3.170   3.533  0.7981 -0.0074 -0.5539
  129MOL   H25038906   0.774   3.397   3.623  1.5004 -1.9446 -1.1082
  129MOL   H25138907   0.940   3.425   3.647  1.2616 -0.6372 -1.4840
  129MOL   H25238908   0.959   3.454   3.391  0.5728 -0.8713 -0.2999
  129MOL   H25338909   1.099   3.288   3.305  1.1673  0.8119  1.6099
  129MOL   H25438910   1.183   3.053   3.320  0.2261 -2.3780  1.5700
  129MOL   H25538911   1.049   2.890   3.473  0.3683  0.0800 -1.4476
  129MOL   H25638912   0.865   2.965   3.595  0.4163 -2.3562 -1.8010
  129MOL   C25738913   0.753   3.415   3.345 -0.1190  0.4599  0.2338
  129MOL   C25838914   0.709   3.299   3.245  0.0828  0.2168  0.6907
  129MOL   C25938915   0.555   3.307   3.227  0.1207 -0.4942  0.4136
  129MOL   C26038916   0.468   3.195   3.224 -0.0724  0.8268 -0.4636
  129MOL   C26138917   0.331   3.213   3.183 -0.2769 -0.0197 -1.2041
  129MOL   C26238918   0.292   3.340   3.132  0.1102 -0.5189 -0.0745
  129MOL   C26338919   0.384   3.442   3.138 -0.4148 -0.1896 -0.1950
  129MOL   N26438920   0.515   3.423   3.173  0.0817 -0.2876  0.3432
  129MOL   H26538921   0.769   3.508   3.291 -0.0539  0.8938  0.9964
  129MOL   H26638922   0.664   3.435   3.404 -1.3291 -0.8916 -1.1036
  129MOL   H26738923   0.719   3.216   3.316  0.9654 -0.4437 -0.2082
  129MOL   H26838924   0.516   3.106   3.262 -0.0820  1.4655  1.0586
  129MOL   H26938925   0.256   3.135   3.189 -1.5451  1.3748  2.3838
  129MOL   H27038926   0.189   3.352   3.102  0.0492 -0.8642  0.0009
  129MOL   H27138927   0.347   3.540   3.114 -0.7966 -0.7751 -2.0791
  129MOL   C27238928   0.789   3.250   3.125  0.1376 -0.6911 -0.0384
  129MOL   C27338929   0.803   3.359   3.015 -0.3119 -0.4651 -0.0722
  129MOL   C27438930   0.905   3.466   3.060  0.0032  1.0582 -0.6729
  129MOL   C27538931   0.878   3.599   3.037 -0.1975  0.8411 -0.0554
  129MOL   C27638932   0.981   3.690   3.063  0.3483  0.0782 -0.2285
  129MOL   C27738933   1.109   3.656   3.092  0.4670 -0.1913  0.4319
  129MOL   C27838934   1.131   3.519   3.099  0.5020 -0.0794 -0.2785
  129MOL   N27938935   1.034   3.416   3.082 -0.6561 -0.2328 -0.1422
  129MOL   H28038936   0.729   3.166   3.090 -1.1617  0.1052  0.2605
  129MOL   H28138937   0.882   3.204   3.159  2.2441  3.6213  0.3610
  129MOL   H28238938   0.710   3.411   2.996 -0.5587 -0.7535  0.3528
  129MOL   H28338939   0.782   3.626   2.995 -1.0928  0.3218  1.6408
  129MOL   H28438940   0.953   3.795   3.065 -0.2581 -0.0935  0.7704
  129MOL   H28538941   1.188   3.729   3.108  0.0638  0.1577  0.8623
  129MOL   H28638942   1.232   3.485   3.120  0.2723  0.1061  1.2068
  129MOL   C28738943   0.860   3.279   2.888 -0.3221  0.2302  0.6121
  129MOL   C28838944   0.891   3.365   2.765  0.5811 -0.0184 -0.3374
  129MOL   C28938945   0.953   3.281   2.652 -0.2034  0.0068 -0.4985
  129MOL   C29038946   1.079   3.232   2.655 -0.0171  0.4232  0.3429
  129MOL   C29138947   1.123   3.159   2.541 -0.2707 -1.0694  0.3927
  129MOL   C29238948   1.034   3.137   2.434 -0.6992  0.2242  0.4187
  129MOL   C29338949   0.908   3.192   2.445 -0.0763  0.4853 -0.2845
  129MOL   N29438950   0.870   3.259   2.552 -0.3294 -0.2256 -0.1731
  129MOL   H29538951   0.788   3.206   2.852  1.7092 -1.3573 -0.3491
  129MOL   H29638952   0.954   3.229   2.910 -0.8838 -1.1495 -0.1085
  129MOL   H29738953   0.964   3.443   2.789 -0.1741  0.1654  1.4705
  129MOL   H29838954   1.147   3.258   2.735 -0.2419  1.4249  0.2144
  129MOL   H29938955   1.222   3.118   2.534 -0.0853 -0.4871 -0.4256
  129MOL   H30038956   1.059   3.078   2.347  1.5963  1.6157  0.0986
  129MOL   H30138957   0.830   3.184   2.372  1.1720 -0.9082 -1.4951
  129MOL   H30238958   0.803   3.426   2.743  0.5943  0.3599  0.6250
  130MOL     C138959   7.403   7.021   7.007 -0.1039  0.0219 -0.4988
  130MOL     C238960   7.391   6.914   7.109  0.2802  0.3130 -0.0049
  130MOL     C338961   7.296   6.805   7.071  0.8724  0.2809 -0.1590
  130MOL     C438962   7.206   6.758   7.170 -0.0191 -0.2236  0.3516
  130MOL     C538963   7.126   6.644   7.133 -0.8688 -0.5273  0.0264
  130MOL     C638964   7.156   6.579   7.008  0.1149 -0.3209 -0.0348
  130MOL     C738965   7.249   6.636   6.920 -0.0514  0.0459  0.5082
  130MOL     N838966   7.314   6.752   6.953  0.2675  0.1104  0.5162
  130MOL     H938967   7.470   7.102   7.036  0.6668 -0.5417 -0.6808
  130MOL    H1038968   7.457   6.980   6.921  0.1079  1.6666 -1.1725
  130MOL    H1138969   7.351   6.956   7.201  0.3562  2.3723 -0.8936
  130MOL    H1238970   7.182   6.801   7.266  0.3327 -1.1114  0.8463
  130MOL    H1338971   7.055   6.604   7.203 -0.5052 -0.4289  0.4506
  130MOL    H1438972   7.095   6.494   6.983  0.5758  0.0186 -2.4002
  130MOL    H1538973   7.267   6.600   6.819  1.3487 -0.3533  0.8881
  130MOL    H1638974   7.309   7.068   6.978 -0.1680 -0.4226 -1.0259
  130MOL    C1738975   7.537   6.852   7.127  0.1088  0.4517  0.4388
  130MOL    C1838976   7.551   6.745   7.237  0.6814  0.1114 -1.1613
  130MOL    C1938977   7.680   6.658   7.220  0.1629  0.0625  0.6258
  130MOL    C2038978   7.673   6.521   7.218  0.1930  0.0017  0.8730
  130MOL    C2138979   7.794   6.453   7.196 -0.1345  0.3568 -0.8392
  130MOL    C2238980   7.906   6.523   7.163  0.3274 -0.5048 -0.0350
  130MOL    C2338981   7.906   6.664   7.174  0.5390  0.1440 -0.3186
  130MOL    N2438982   7.792   6.730   7.207 -0.3599 -0.4647 -0.1840
  130MOL    H2538983   7.605   6.933   7.153  0.7216 -0.1337  0.6738
  130MOL    H2638984   7.566   6.803   7.034 -1.4990 -0.3668  0.3477
  130MOL    H2738985   7.469   6.678   7.213  0.4733 -1.2821  3.0185
  130MOL    H2838986   7.584   6.459   7.211  0.4401 -0.2282 -0.5096
  130MOL    H2938987   7.798   6.347   7.175 -1.3642  0.0231  0.4816
  130MOL    H3038988   7.989   6.465   7.125  0.7243  0.5893 -0.8514
  130MOL    H3138989   7.991   6.719   7.138  0.6340  0.4083  0.2977
  130MOL    C3238990   7.540   6.798   7.389 -0.1030  0.3804  0.5417
  130MOL    C3338991   7.494   6.701   7.490  0.3172 -0.0820 -0.1135
  130MOL    C3438992   7.509   6.774   7.626 -0.0389 -0.0959 -0.1261
  130MOL    C3538993   7.613   6.743   7.711 -0.8599 -0.1717 -0.0995
  130MOL    C3638994   7.633   6.821   7.827 -0.7554 -0.5137  0.4319
  130MOL    C3738995   7.546   6.931   7.855 -0.1469  0.4477 -0.1229
  130MOL    C3838996   7.435   6.942   7.771  0.4081 -0.2641 -0.2545
  130MOL    N3938997   7.423   6.875   7.655 -0.2125 -0.3407 -0.2495
  130MOL    H4038998   7.479   6.888   7.382 -3.3380 -1.7345  0.8098
  130MOL    H4138999   7.638   6.841   7.410  0.3305 -0.1205 -0.4236
  130MOL    H4239000   7.565   6.619   7.476  1.3534  0.9658 -1.1060
  130MOL    H4339001   7.680   6.662   7.686 -0.2836  0.3011 -0.0798
  130MOL    H4439002   7.724   6.793   7.877 -0.0092 -1.8978 -1.6335
  130MOL    H4539003   7.566   6.990   7.943 -0.8643 -1.3189  1.2491
  130MOL    H4639004   7.372   7.029   7.784  2.0422  1.1015 -1.3921
  130MOL    C4739005   7.345   6.643   7.462 -0.0850  0.1093  0.0189
  130MOL    C4839006   7.295   6.554   7.574  0.0953  0.2911  0.4438
  130MOL    C4939007   7.163   6.600   7.633  0.5633 -0.8539  0.6184
  130MOL    C5039008   7.153   6.640   7.770 -0.0256 -0.3247  0.9087
  130MOL    C5139009   7.030   6.672   7.828  0.3293  0.1788 -0.3182
  130MOL    C5239010   6.918   6.665   7.749  0.5965 -0.6187  0.1783
  130MOL    C5339011   6.933   6.625   7.617  0.3016  0.4005 -1.1527
  130MOL    N5439012   7.051   6.598   7.558  0.7737  0.2836  0.2548
  130MOL    H5539013   7.348   6.591   7.366 -0.2630 -1.3794  0.8053
  130MOL    H5639014   7.275   6.726   7.458  2.5172  2.4192  0.7760
  130MOL    H5739015   7.360   6.561   7.662  0.3226  2.5995  0.1141
  130MOL    H5839016   7.234   6.632   7.840 -0.2099 -0.0792  1.1518
  130MOL    H5939017   7.009   6.696   7.931  3.1302  2.8113 -0.3076
  130MOL    H6039018   6.819   6.691   7.783  0.3672  0.0762 -1.0173
  130MOL    H6139019   6.842   6.631   7.559 -1.4586 -2.2274  1.1800
  130MOL    C6239020   7.277   6.405   7.526 -0.3236  0.0911  1.2302
  130MOL    C6339021   7.403   6.318   7.513  0.0748  0.1161 -0.1486
  130MOL    C6439022   7.504   6.344   7.627  0.4929 -0.2569  0.6687
  130MOL    C6539023   7.628   6.385   7.582  0.3287  0.8088  0.0729
  130MOL    C6639024   7.728   6.405   7.673 -1.1155 -0.3133  0.1345
  130MOL    C6739025   7.702   6.359   7.807  0.9865 -0.8405  0.7678
  130MOL    C6839026   7.569   6.327   7.843 -0.3298 -0.6490 -0.0069
  130MOL    N6939027   7.469   6.318   7.752 -0.0993 -0.6031 -0.0825
  130MOL    H7039028   7.220   6.393   7.433  0.9210 -1.3063  0.6198
  130MOL    H7139029   7.212   6.366   7.605 -0.8390 -1.1457  0.2297
  130MOL    H7239030   7.463   6.344   7.426 -2.0870  0.4833 -1.5700
  130MOL    H7339031   7.651   6.393   7.476  0.0558  0.5878 -0.0043
  130MOL    H7439032   7.825   6.429   7.634 -1.8184 -0.2846 -1.6308
  130MOL    H7539033   7.790   6.359   7.870  2.4415 -0.4722 -1.1952
  130MOL    H7639034   7.554   6.286   7.942  1.8133 -1.2312  0.1171
  130MOL    C7739035   7.367   6.168   7.520 -0.1682  0.1286 -0.6606
  130MOL    C7839036   7.302   6.117   7.391 -0.6368  0.0513  0.0229
  130MOL    C7939037   7.371   6.156   7.267 -0.4706 -0.6954 -0.0427
  130MOL    C8039038   7.311   6.243   7.175 -0.4686  0.0228  0.4374
  130MOL    C8139039   7.383   6.276   7.060 -0.4682 -0.0652  1.2283
  130MOL    C8239040   7.511   6.222   7.043  0.1612  0.2745 -0.0069
  130MOL    C8339041   7.564   6.135   7.144  0.4214  0.5952 -0.4779
  130MOL    N8439042   7.500   6.104   7.258  0.7742  0.3142 -0.4943
  130MOL    H8539043   7.304   6.149   7.606  0.6244 -0.0531 -0.1150
  130MOL    H8639044   7.461   6.119   7.544 -0.8906 -1.0539 -0.1931
  130MOL    H8739045   7.203   6.162   7.385  0.0475  1.6399  0.4361
  130MOL    H8839046   7.210   6.279   7.180 -0.5492 -0.3523  1.7022
  130MOL    H8939047   7.352   6.345   6.983  1.6497  0.5575  0.8848
  130MOL    H9039048   7.579   6.253   6.966  0.1498  0.1175 -0.0807
  130MOL    H9139049   7.668   6.107   7.152  0.1925  0.1220  1.0892
  130MOL    C9239050   7.283   5.965   7.394 -0.0532  0.2103  0.3100
  130MOL    C9339051   7.161   5.920   7.470  0.2896 -0.1391  0.4843
  130MOL    C9439052   7.039   5.905   7.378 -0.8166 -0.1507 -0.2622
  130MOL    C9539053   7.039   5.815   7.270 -0.0643  0.0633  0.2350
  130MOL    C9639054   6.918   5.792   7.188 -0.0621  0.6341 -0.0885
  130MOL    C9739055   6.813   5.885   7.204 -0.1894  0.9026 -0.1002
  130MOL    C9839056   6.826   5.982   7.303 -0.4572 -0.4781 -0.5445
  130MOL    N9939057   6.933   5.990   7.386  0.6853  0.2611  0.9071
  130MOL   H10039058   7.371   5.914   7.434 -1.7397 -2.2262  0.9607
  130MOL   H10139059   7.272   5.943   7.288 -0.4685  2.1669 -0.0793
  130MOL   H10239060   7.124   6.004   7.529 -0.2946  0.0313 -0.1116
  130MOL   H10339061   7.128   5.759   7.249 -0.4629 -0.0753 -1.1373
  130MOL   H10439062   6.918   5.729   7.101 -0.0551  0.5943 -0.0592
  130MOL   H10539063   6.716   5.901   7.158  0.4010  0.6933 -1.4453
  130MOL   H10639064   6.747   6.055   7.315  1.1401  1.2292 -0.3399
  130MOL   C10739065   7.193   5.795   7.552 -0.4919 -0.0334 -0.4988
  130MOL   C10839066   7.082   5.707   7.601  0.1758 -0.3811 -0.3178
  130MOL   C10939067   7.125   5.577   7.672  0.6623 -0.3387 -1.4302
  130MOL   C11039068   7.076   5.449   7.627  0.1920 -0.0769  0.3124
  130MOL   C11139069   7.112   5.330   7.693  0.8879  0.4374 -0.1431
  130MOL   C11239070   7.186   5.349   7.810  0.0829 -0.4430  0.0115
  130MOL   C11339071   7.225   5.478   7.850 -0.1909  0.5006  0.0279
  130MOL   N11439072   7.199   5.588   7.781  0.2586  0.3479 -0.5570
  130MOL   H11539073   7.256   5.831   7.633 -0.0114 -0.6594 -0.5924
  130MOL   H11639074   7.250   5.737   7.479  0.7165  2.4207 -1.5623
  130MOL   H11739075   7.019   5.675   7.519 -1.1382  1.8130 -0.2047
  130MOL   H11839076   7.018   5.443   7.536 -1.3539  0.4426  1.2537
  130MOL   H11939077   7.087   5.234   7.652 -0.9258  1.4053 -1.4055
  130MOL   H12039078   7.228   5.263   7.859 -0.1819  1.2585  3.3571
  130MOL   H12139079   7.289   5.484   7.937 -1.2585 -2.0196  1.0258
  130MOL   C12239080   6.977   5.783   7.679  0.2611 -0.7803  0.1973
  130MOL   C12339081   6.845   5.711   7.707  0.7574 -0.0720 -0.4894
  130MOL   C12439082   6.759   5.786   7.808 -0.6096 -0.7319  0.1269
  130MOL   C12539083   6.702   5.914   7.789  0.6083  0.1731 -0.1756
  130MOL   C12639084   6.621   5.959   7.899 -0.2049  0.5576  0.5157
  130MOL   C12739085   6.600   5.881   8.015  0.9995 -0.6352  0.4539
  130MOL   C12839086   6.647   5.749   8.007 -0.3101 -0.4183 -0.6065
  130MOL   N12939087   6.732   5.709   7.914  0.3545 -0.3372  0.1994
  130MOL   H13039088   6.951   5.880   7.636 -0.0781 -0.8573  0.2303
  130MOL   H13139089   7.026   5.815   7.771 -2.2644 -1.0190  1.6721
  130MOL   H13239090   6.871   5.619   7.759 -1.3974 -1.0821 -1.1508
  130MOL   H13339091   6.710   5.967   7.695 -1.4679 -0.9162 -1.0050
  130MOL   H13439092   6.560   6.046   7.880 -1.1427 -0.1162  0.3779
  130MOL   H13539093   6.537   5.929   8.088  0.5654  1.5167 -1.2925
  130MOL   H13639094   6.616   5.688   8.091 -0.2379  1.9322  1.1900
  130MOL   C13739095   6.763   5.693   7.575 -0.6293  0.2026  0.0251
  130MOL   C13839096   6.607   5.665   7.569  0.2369 -0.1841  0.0817
  130MOL   C13939097   6.557   5.677   7.429 -0.3008 -0.3494 -0.2276
  130MOL   C14039098   6.458   5.769   7.394  0.1873  0.0367 -0.2808
  130MOL   C14139099   6.427   5.776   7.255  0.6819 -0.3780  0.1920
  130MOL   C14239100   6.485   5.698   7.162 -0.3728 -0.0724 -0.1842
  130MOL   C14339101   6.587   5.612   7.213  0.2416 -0.4977 -0.6214
  130MOL   N14439102   6.618   5.595   7.339 -0.0139 -0.6626 -0.0688
  130MOL   H14539103   6.807   5.610   7.520 -0.5626  1.2600 -1.5540
  130MOL   H14639104   6.784   5.777   7.510  0.7895 -0.0080  0.1844
  130MOL   H14739105   6.551   5.738   7.627 -1.0375 -0.4230 -0.8269
  130MOL   H14839106   6.410   5.828   7.471 -2.9956  0.4363 -2.4921
  130MOL   H14939107   6.364   5.855   7.215  0.7538 -1.0768 -1.3332
  130MOL   H15039108   6.460   5.701   7.057 -0.4327  2.5490 -0.1282
  130MOL   H15139109   6.646   5.556   7.143  0.9484 -0.2339 -0.2434
  130MOL   C15239110   6.570   5.530   7.629 -0.3012  0.0141  0.2218
  130MOL   C15339111   6.419   5.505   7.676  0.6616 -0.6000 -0.4284
  130MOL   C15439112   6.364   5.590   7.782  0.0452  0.0017  0.6282
  130MOL   C15539113   6.341   5.533   7.909 -0.2262  0.8958 -0.6637
  130MOL   C15639114   6.296   5.623   8.010  0.1113  0.9204 -0.4311
  130MOL   C15739115   6.274   5.762   7.980  0.0548  0.3827 -0.0907
  130MOL   C15839116   6.293   5.798   7.849  0.3371  0.2651  0.7873
  130MOL   N15939117   6.334   5.713   7.747 -0.2313 -0.6175 -0.4916
  130MOL   H16039118   6.641   5.515   7.710 -2.0643  1.8625  2.1350
  130MOL   H16139119   6.597   5.456   7.552  0.6225 -0.7880  1.2974
  130MOL   H16239120   6.432   5.407   7.721 -1.4727 -0.6319  0.1894
  130MOL   H16339121   6.351   5.427   7.927  0.0768  0.7816 -1.4978
  130MOL   H16439122   6.254   5.584   8.102 -0.7106 -1.7674 -1.8832
  130MOL   H16539123   6.234   5.827   8.057  3.2623  2.3570  0.0071
  130MOL   H16639124   6.280   5.902   7.820 -1.4589 -0.3428 -0.7263
  130MOL   C16739125   6.309   5.473   7.569 -0.3115 -0.5583 -0.6432
  130MOL   C16839126   6.329   5.331   7.506  0.7436 -0.0485 -0.0197
  130MOL   C16939127   6.291   5.221   7.600  0.7303 -0.0221 -0.4470
  130MOL   C17039128   6.389   5.145   7.673 -0.2370 -0.0392  0.0358
  130MOL   C17139129   6.345   5.054   7.774  0.9126 -0.1824 -0.1661
  130MOL   C17239130   6.207   5.044   7.785 -0.5253  0.0580  0.5016
  130MOL   C17339131   6.117   5.116   7.708  0.7145 -0.1083  0.2054
  130MOL   N17439132   6.159   5.205   7.619  0.2785  0.7271 -0.5410
  130MOL   H17539133   6.298   5.553   7.496 -0.6141 -0.5539 -0.5955
  130MOL   H17639134   6.209   5.481   7.612 -0.4745  0.0871 -1.1276
  130MOL   H17739135   6.437   5.331   7.486  0.6452 -0.6941 -0.5391
  130MOL   H17839136   6.493   5.173   7.665 -0.1646 -0.8614 -2.1581
  130MOL   H17939137   6.405   4.992   7.840  1.5175 -0.7776 -1.2574
  130MOL   H18039138   6.172   4.985   7.868 -0.4284  0.1325  0.5955
  130MOL   H18139139   6.011   5.109   7.728  0.9216 -0.6250  1.1571
  130MOL   C18239140   6.266   5.308   7.366 -0.3784  0.3980  0.3823
  130MOL   C18339141   6.367   5.316   7.250  0.8118 -0.4286 -0.3945
  130MOL   C18439142   6.467   5.204   7.263 -0.7992 -0.3378  0.0720
  130MOL   C18539143   6.614   5.218   7.280  0.1488  0.4739  0.7290
  130MOL   C18639144   6.690   5.099   7.286 -0.4870 -0.7033  0.5673
  130MOL   C18739145   6.633   4.976   7.280  0.7634  0.3510 -0.4522
  130MOL   C18839146   6.495   4.968   7.271 -0.8267  0.9413  0.3261
  130MOL   N18939147   6.417   5.078   7.263  0.6969  0.3685 -0.8042
  130MOL   H19039148   6.188   5.382   7.346  0.4428  0.8829 -1.0658
  130MOL   H19139149   6.219   5.210   7.362  0.9068 -0.2153 -0.0554
  130MOL   H19239150   6.407   5.418   7.258 -1.7562  0.6861 -1.2928
  130MOL   H19339151   6.668   5.311   7.290 -1.6754  2.0466 -3.1290
  130MOL   H19439152   6.794   5.104   7.313 -0.6644  1.5280  0.9482
  130MOL   H19539153   6.696   4.888   7.276 -0.0868 -0.3877  1.6509
  130MOL   H19639154   6.460   4.866   7.278  2.8568 -0.4971 -1.0887
  130MOL   C19739155   6.290   5.325   7.110 -0.5310 -0.1729  0.6159
  130MOL   C19839156   6.358   5.395   6.986 -0.7445 -1.0361  0.3282
  130MOL   C19939157   6.479   5.302   6.950 -0.3706  0.5156  0.2235
  130MOL   C20039158   6.601   5.356   6.900 -0.1522  0.1713 -0.2345
  130MOL   C20139159   6.704   5.272   6.851  0.8495  0.4343  0.0473
  130MOL   C20239160   6.680   5.135   6.842 -0.3655 -0.0908 -0.2306
  130MOL   C20339161   6.558   5.084   6.905 -0.3801  0.1745  0.7233
  130MOL   N20439162   6.458   5.169   6.943  0.2068  0.2048 -0.1820
  130MOL   H20539163   6.199   5.381   7.129 -0.3490  0.1926  0.4207
  130MOL   H20639164   6.258   5.226   7.078 -2.5130  0.5186  0.4046
  130MOL   H20739165   6.398   5.492   7.013  0.9043 -1.5886 -0.0598
  130MOL   H20839166   6.624   5.461   6.889  0.9723 -0.0823 -0.3982
  130MOL   H20939167   6.804   5.305   6.824  1.2289  0.5961  1.6012
  130MOL   H21039168   6.755   5.069   6.802  0.9489  2.0801 -1.4182
  130MOL   H21139169   6.538   4.978   6.901 -0.3720  0.2370 -1.0764
  130MOL   C21239170   6.264   5.405   6.864 -0.3232  0.7484 -0.0786
  130MOL   C21339171   6.127   5.467   6.876 -0.1218  0.2303 -0.0474
  130MOL   C21439172   6.120   5.607   6.943 -0.2411 -0.2758  0.1987
  130MOL   C21539173   6.016   5.649   7.023 -0.3218  0.4693  0.1537
  130MOL   C21639174   6.008   5.774   7.089  0.4429  0.2374  0.2265
  130MOL   C21739175   6.123   5.860   7.062  0.4386  0.0212 -0.0906
  130MOL   C21839176   6.224   5.811   6.978 -0.6799 -0.6936  0.7638
  130MOL   N21939177   6.221   5.691   6.920 -0.2835  0.4583 -0.4895
  130MOL   H22039178   6.253   5.302   6.830  0.4125 -0.0569  2.0306
  130MOL   H22139179   6.322   5.449   6.782  0.7280  1.2253  0.9067
  130MOL   H22239180   6.074   5.398   6.941  0.9431 -0.1415  0.4259
  130MOL   H22339181   5.936   5.580   7.046  0.6169 -0.2503  1.2664
  130MOL   H22439182   5.929   5.809   7.153 -0.3219 -1.3925  0.1768
  130MOL   H22539183   6.125   5.957   7.108  2.5187 -0.4080  0.7592
  130MOL   H22639184   6.306   5.872   6.943 -0.6397 -0.9345  0.4275
  130MOL   C22739185   6.045   5.467   6.748 -0.9213  0.1927  0.0613
  130MOL   C22839186   6.000   5.320   6.707  0.0116 -0.4168 -0.4910
  130MOL   C22939187   5.908   5.256   6.814 -0.3919 -0.7434  0.4178
  130MOL   C23039188   5.952   5.146   6.894  0.6697 -0.9405  1.3062
  130MOL   C23139189   5.854   5.069   6.965 -0.3032 -0.1100 -0.3317
  130MOL   C23239190   5.722   5.108   6.952  0.4058 -0.3299 -0.6092
  130MOL   C23339191   5.689   5.227   6.885  0.1821  0.0964  0.7657
  130MOL   N23439192   5.780   5.300   6.820  0.0520 -0.0575  0.0494
  130MOL   H23539193   6.101   5.519   6.670 -0.2578  0.7585  0.9037
  130MOL   H23639194   5.949   5.514   6.769 -0.9359  0.0143  0.3898
  130MOL   H23739195   6.092   5.261   6.710 -0.2760 -0.7784  1.5916
  130MOL   H23839196   6.057   5.122   6.887  0.6247 -0.7180 -0.4919
  130MOL   H23939197   5.881   4.979   7.018  0.5159  0.7999  0.8366
  130MOL   H24039198   5.645   5.063   7.013  0.8283  0.2151  0.3264
  130MOL   H24139199   5.588   5.263   6.879  0.4597  0.9711  1.2984
  130MOL   C24239200   5.940   5.305   6.568  0.1018  0.4029  0.7829
  130MOL   C24339201   6.041   5.333   6.455 -0.0493 -0.2964  0.1911
  130MOL   C24439202   6.181   5.278   6.472 -1.0142 -0.3310 -0.1751
  130MOL   C24539203   6.292   5.361   6.485  0.0194  0.7043  0.0639
  130MOL   C24639204   6.414   5.300   6.503  0.0357 -0.1414 -0.3834
  130MOL   C24739205   6.425   5.161   6.487 -0.4869 -0.4660  0.0597
  130MOL   C24839206   6.306   5.087   6.491 -0.9483  0.3820  0.5601
  130MOL   N24939207   6.187   5.149   6.476  0.2776 -0.0752  0.6245
  130MOL   H25039208   5.849   5.362   6.552 -0.8327 -1.3804 -0.4251
  130MOL   H25139209   5.919   5.199   6.551  1.3839  0.1608  0.6112
  130MOL   H25239210   6.037   5.442   6.455 -0.3654 -0.2938 -1.1292
  130MOL   H25339211   6.282   5.468   6.478  0.2433  0.9621  2.9350
  130MOL   H25439212   6.512   5.342   6.522  0.5476 -2.2119  1.8845
  130MOL   H25539213   6.517   5.108   6.510 -1.2875 -0.6427  3.1066
  130MOL   H25639214   6.300   4.981   6.512 -1.2054  0.1083 -0.8606
  130MOL   C25739215   5.984   5.286   6.318  0.1352  0.4103  0.5582
  130MOL   C25839216   6.084   5.314   6.202 -0.2427  0.4396 -0.2968
  130MOL   C25939217   6.048   5.225   6.078 -0.1321  0.1149  0.1465
  130MOL   C26039218   6.148   5.170   5.996  0.7227 -0.0569  0.0535
  130MOL   C26139219   6.115   5.097   5.886  0.9578  0.4081 -0.5274
  130MOL   C26239220   5.980   5.088   5.854 -0.4102 -0.1034 -0.8054
  130MOL   C26339221   5.885   5.156   5.929  0.0290  0.3684 -0.2570
  130MOL   N26439222   5.917   5.231   6.039  0.1111 -0.0997  0.3353
  130MOL   H26539223   5.893   5.344   6.304  0.8866  2.0066  2.0879
  130MOL   H26639224   5.959   5.180   6.322 -0.9814  0.6849  1.1676
  130MOL   H26739225   6.181   5.275   6.232 -1.4925 -1.8533  0.8750
  130MOL   H26839226   6.250   5.193   6.020  0.1497  0.8685  1.6829
  130MOL   H26939227   6.188   5.060   5.816  0.1915 -1.6756 -0.2896
  130MOL   H27039228   5.962   5.025   5.768  1.3951  0.9077 -1.9576
  130MOL   H27139229   5.782   5.144   5.900  0.2846 -1.5780 -0.4192
  130MOL   C27239230   6.101   5.465   6.160  0.5883  0.4461 -0.6628
  130MOL   C27339231   6.192   5.499   6.048  0.6497 -0.2095  0.3844
  130MOL   C27439232   6.170   5.641   5.988 -0.3920 -0.3983 -0.5967
  130MOL   C27539233   6.168   5.659   5.852 -0.0963  0.1391  0.1483
  130MOL   C27639234   6.145   5.786   5.794 -0.5053 -0.1887 -0.2129
  130MOL   C27739235   6.134   5.900   5.878 -0.0083 -0.2603 -0.7661
  130MOL   C27839236   6.155   5.877   6.014 -0.3814  0.0916  0.2196
  130MOL   N27939237   6.173   5.751   6.072 -0.0478  0.9286  0.6224
  130MOL   H28039238   6.131   5.524   6.247 -2.1665  0.0372  0.6350
  130MOL   H28139239   6.000   5.501   6.143 -0.0022 -0.0872  1.4620
  130MOL   H28239240   6.161   5.441   5.961 -0.6611  0.5784  0.3174
  130MOL   H28339241   6.177   5.569   5.793 -1.6598 -0.8865  1.4344
  130MOL   H28439242   6.134   5.805   5.688  1.5528 -0.7564 -0.5434
  130MOL   H28539243   6.124   6.001   5.841  1.5390 -0.2859 -1.2704
  130MOL   H28639244   6.138   5.958   6.084  1.6950 -0.2578  1.1576
  130MOL   C28739245   6.339   5.472   6.088  0.3303 -0.0904  0.0550
  130MOL   C28839246   6.438   5.486   5.975 -0.7351  0.1014 -0.0718
  130MOL   C28939247   6.580   5.449   6.026  0.3976  0.1379 -0.1352
  130MOL   C29039248   6.677   5.547   6.051 -0.2084  1.2179 -0.1374
  130MOL   C29139249   6.809   5.501   6.082 -0.1602 -0.2309  0.2814
  130MOL   C29239250   6.837   5.365   6.100  0.1665 -1.0263 -0.0760
  130MOL   C29339251   6.726   5.272   6.078 -0.6992 -0.2940 -0.7520
  130MOL   N29439252   6.604   5.313   6.031 -0.5069  0.4602 -0.0555
  130MOL   H29539253   6.348   5.371   6.127  1.8561 -0.4780 -1.2847
  130MOL   H29639254   6.366   5.532   6.175 -2.3400 -0.2712  1.0784
  130MOL   H29739255   6.444   5.588   5.936  0.0900 -0.1808 -0.7012
  130MOL   H29839256   6.658   5.651   6.031  0.1207  1.4458  0.7214
  130MOL   H29939257   6.891   5.571   6.091 -0.2855  0.1225 -1.2050
  130MOL   H30039258   6.937   5.333   6.124 -0.4233 -1.4739  1.8898
  130MOL   H30139259   6.732   5.166   6.101 -1.1084  0.0044  0.7625
  130MOL   H30239260   6.416   5.418   5.894 -0.1748  0.4716 -0.5354
  131MOL     C139261   5.651   6.135   7.249 -0.0663 -0.2643 -0.1046
  131MOL     C239262   5.689   6.189   7.113 -0.2066 -0.1891  0.3580
  131MOL     C339263   5.708   6.077   7.010 -0.4308 -0.8358  0.3414
  131MOL     C439264   5.836   6.057   6.950  0.0325  0.6490  0.6921
  131MOL     C539265   5.850   5.960   6.843  0.5730 -0.2313  0.3079
  131MOL     C639266   5.734   5.888   6.801 -0.3736 -0.3983  0.4872
  131MOL     C739267   5.612   5.926   6.863  0.1120 -0.7168  1.0010
  131MOL     N839268   5.597   6.011   6.970 -0.0928 -0.5942 -0.3711
  131MOL     H939269   5.628   6.217   7.317 -2.7986 -1.9669  1.1302
  131MOL    H1039270   5.568   6.064   7.253 -0.4918  0.2788  0.8508
  131MOL    H1139271   5.784   6.243   7.116 -0.4006  0.2775 -1.2818
  131MOL    H1239272   5.919   6.110   6.993  0.5825  0.9792 -0.7462
  131MOL    H1339273   5.949   5.946   6.801 -0.1004 -2.0191 -0.7660
  131MOL    H1439274   5.746   5.817   6.721  0.3015 -0.3479  0.5380
  131MOL    H1539275   5.525   5.871   6.828 -0.0203  1.1904 -1.7729
  131MOL    H1639276   5.735   6.077   7.287 -0.1511 -1.2757 -1.4068
  131MOL    C1739277   5.581   6.297   7.068  0.5311 -0.2572  0.2876
  131MOL    C1839278   5.582   6.336   6.919  0.6526 -0.7923  0.2630
  131MOL    C1939279   5.463   6.428   6.878 -0.4220  0.2832  0.5337
  131MOL    C2039280   5.364   6.383   6.795  0.8917 -0.5435  0.5596
  131MOL    C2139281   5.254   6.461   6.755 -0.0216 -0.2719 -0.2632
  131MOL    C2239282   5.250   6.592   6.809 -0.4639  0.7598  0.0398
  131MOL    C2339283   5.350   6.630   6.901 -0.0356  0.2348  0.1961
  131MOL    N2439284   5.455   6.550   6.929 -0.3971  0.2710  0.3914
  131MOL    H2539285   5.576   6.374   7.144  0.0247 -0.5986  0.6006
  131MOL    H2639286   5.487   6.240   7.071  1.1760 -1.5572 -2.2248
  131MOL    H2739287   5.572   6.245   6.860  1.1701 -1.2177  0.8332
  131MOL    H2839288   5.368   6.282   6.759 -1.3978 -0.7834  0.9299
  131MOL    H2939289   5.171   6.425   6.696 -0.8885  1.2251  0.0284
  131MOL    H3039290   5.174   6.662   6.778 -0.3331  1.2168  0.7355
  131MOL    H3139291   5.343   6.725   6.951  1.5320  0.1519  0.6060
  131MOL    C3239292   5.716   6.400   6.872 -0.2916  0.6490  0.0012
  131MOL    C3339293   5.735   6.419   6.715  0.2155 -0.5639  0.2478
  131MOL    C3439294   5.860   6.504   6.692  0.3492  0.2056  0.0045
  131MOL    C3539295   5.867   6.613   6.604 -0.2235  0.0899 -0.2764
  131MOL    C3639296   5.992   6.678   6.598 -0.7133  0.3388 -0.1340
  131MOL    C3739297   6.111   6.623   6.652  0.0273  0.7646  0.1451
  131MOL    C3839298   6.094   6.499   6.712 -0.1325  0.0419  0.0835
  131MOL    N3939299   5.975   6.445   6.739 -0.5173 -0.2431 -0.6177
  131MOL    H4039300   5.793   6.332   6.906 -0.3897 -0.8205 -2.5462
  131MOL    H4139301   5.737   6.496   6.920  1.6646 -0.8194  2.1268
  131MOL    H4239302   5.642   6.470   6.687  0.3295 -0.2793  0.3825
  131MOL    H4339303   5.785   6.654   6.546 -1.9135  0.1710  2.1147
  131MOL    H4439304   6.000   6.767   6.537  2.5899 -0.3551 -0.8320
  131MOL    H4539305   6.209   6.664   6.633  0.3307  0.3184  0.7236
  131MOL    H4639306   6.184   6.445   6.739  0.2867 -0.1233 -1.5817
  131MOL    C4739307   5.743   6.284   6.647  0.3803 -0.4461  0.8438
  131MOL    C4839308   5.788   6.285   6.501  0.2938 -1.3610  0.3696
  131MOL    C4939309   5.806   6.144   6.448  1.1433  0.1940 -0.3945
  131MOL    C5039310   5.935   6.088   6.422  0.0430  0.1979  0.4591
  131MOL    C5139311   5.944   5.952   6.378  0.1522 -0.3668  0.0547
  131MOL    C5239312   5.826   5.878   6.363 -0.4073  0.2893  0.1494
  131MOL    C5339313   5.704   5.947   6.387 -1.0167 -0.0243 -0.8649
  131MOL    N5439314   5.694   6.076   6.424  0.0910  0.1632  0.0018
  131MOL    H5539315   5.649   6.229   6.651 -0.7861  1.4694  0.1560
  131MOL    H5639316   5.814   6.214   6.692  1.5580 -0.7163 -1.3407
  131MOL    H5739317   5.883   6.339   6.498 -0.4247 -0.1096 -1.0380
  131MOL    H5839318   6.022   6.145   6.453  0.2612 -0.3243  0.8171
  131MOL    H5939319   6.045   5.914   6.368  0.8498  0.3531  3.5233
  131MOL    H6039320   5.827   5.775   6.330  0.9095 -0.1240  1.4388
  131MOL    H6139321   5.614   5.889   6.378 -2.0289  1.4391 -0.2389
  131MOL    C6239322   5.686   6.368   6.418  0.2802  0.4747  0.1359
  131MOL    C6339323   5.726   6.383   6.268  0.0620  0.0683 -0.3582
  131MOL    C6439324   5.598   6.397   6.181 -0.4800  0.0744  0.7557
  131MOL    C6539325   5.553   6.287   6.107 -0.6654  0.5247  0.2245
  131MOL    C6639326   5.445   6.298   6.019  0.5406  0.2333  0.8834
  131MOL    C6739327   5.389   6.430   6.009  0.3589 -0.0398 -0.7015
  131MOL    C6839328   5.443   6.535   6.086 -0.5103 -0.0545  0.3689
  131MOL    N6939329   5.543   6.518   6.169  0.8842 -0.1303 -0.0030
  131MOL    H7039330   5.672   6.469   6.456 -0.4337  0.4068  0.0527
  131MOL    H7139331   5.593   6.311   6.425  1.0339 -0.9233 -1.0087
  131MOL    H7239332   5.770   6.289   6.235  1.1308  0.1825  0.6989
  131MOL    H7339333   5.596   6.190   6.129  0.1725  1.0718  0.9913
  131MOL    H7439334   5.389   6.222   5.967 -0.0318  1.3509 -0.1614
  131MOL    H7539335   5.300   6.445   5.949  0.5357 -2.4605 -1.6067
  131MOL    H7639336   5.402   6.635   6.080 -0.0714  0.0343 -1.6833
  131MOL    C7739337   5.826   6.502   6.266 -0.0135  0.2305  0.4550
  131MOL    C7839338   5.931   6.485   6.155  0.2313 -0.4422 -0.0303
  131MOL    C7939339   5.968   6.625   6.102 -0.8388  1.3832  0.2477
  131MOL    C8039340   5.908   6.682   5.989 -0.8637 -0.1378  0.0294
  131MOL    C8139341   5.948   6.807   5.950  0.3326 -0.6712  0.1032
  131MOL    C8239342   6.042   6.886   6.023 -0.2800  0.2521 -0.1878
  131MOL    C8339343   6.084   6.824   6.140 -0.2321  0.9423 -0.9898
  131MOL    N8439344   6.044   6.699   6.177 -1.0203  0.0560 -0.2907
  131MOL    H8539345   5.887   6.495   6.356 -0.0279  1.0225  0.5338
  131MOL    H8639346   5.779   6.600   6.261 -0.2704  0.0946  0.1757
  131MOL    H8739347   5.857   6.451   6.082 -1.5899 -2.0195  2.4806
  131MOL    H8839348   5.837   6.628   5.929 -1.0200 -1.7790  1.6441
  131MOL    H8939349   5.898   6.843   5.862  1.6137  1.3138  0.1834
  131MOL    H9039350   6.078   6.982   5.990 -2.2234  1.7769  1.9720
  131MOL    H9139351   6.150   6.878   6.206  1.0052 -0.7460 -0.8215
  131MOL    C9239352   6.036   6.384   6.182 -0.2232  0.4017 -0.2528
  131MOL    C9339353   6.150   6.388   6.079  0.4610 -0.2200 -0.4212
  131MOL    C9439354   6.286   6.331   6.134  0.2112 -0.1785  0.0587
  131MOL    C9539355   6.407   6.408   6.130  0.2240  0.5850 -0.7471
  131MOL    C9639356   6.523   6.339   6.169 -0.5876 -0.4756  0.0606
  131MOL    C9739357   6.511   6.207   6.226  0.2817  1.0262  0.3106
  131MOL    C9839358   6.381   6.144   6.215  0.2866 -0.7163  0.5529
  131MOL    N9939359   6.275   6.202   6.166 -0.4074 -0.3602  0.7015
  131MOL   H10039360   5.982   6.290   6.195 -1.4291  1.2270  0.7411
  131MOL   H10139361   6.092   6.414   6.270  0.7448 -3.1883  0.4394
  131MOL   H10239362   6.169   6.493   6.059  0.9569 -0.1295  0.5259
  131MOL   H10339363   6.409   6.513   6.103 -1.5670  0.8053 -0.0956
  131MOL   H10439364   6.617   6.392   6.175  0.1212 -1.5502 -1.3070
  131MOL   H10539365   6.601   6.162   6.264  0.3376  1.0104  0.1604
  131MOL   H10639366   6.374   6.040   6.242 -2.0958 -1.0031 -1.0103
  131MOL   C10739367   6.110   6.327   5.945  0.4936  0.1388  0.6065
  131MOL   C10839368   6.196   6.365   5.817  0.1833 -0.0200 -0.2010
  131MOL   C10939369   6.179   6.260   5.706 -0.6443 -0.7955 -0.2841
  131MOL   C11039370   6.285   6.220   5.626 -0.4678  0.1481 -0.4270
  131MOL   C11139371   6.255   6.135   5.522 -0.1590 -0.4190  0.0680
  131MOL   C11239372   6.120   6.095   5.496  0.3488  0.0445 -0.7762
  131MOL   C11339373   6.021   6.143   5.587 -0.3914  0.4287  0.6169
  131MOL   N11439374   6.051   6.219   5.689  0.5047  0.5901 -0.4706
  131MOL   H11539375   6.003   6.339   5.927  1.0907  0.5561 -3.1007
  131MOL   H11639376   6.111   6.218   5.949 -1.3439  0.0849  0.0431
  131MOL   H11739377   6.303   6.364   5.840  0.1589  0.9982 -0.0640
  131MOL   H11839378   6.386   6.255   5.643 -0.1632 -1.0149  0.2218
  131MOL   H11939379   6.332   6.112   5.449 -0.3220  1.9824 -0.8999
  131MOL   H12039380   6.091   6.034   5.412 -2.5434 -0.7992  0.7630
  131MOL   H12139381   5.919   6.110   5.583 -0.1956 -0.4305  2.2397
  131MOL   C12239382   6.155   6.505   5.771  0.5016  0.2600  0.2246
  131MOL   C12339383   6.211   6.558   5.633 -0.9220 -0.8417  0.1482
  131MOL   C12439384   6.126   6.671   5.575 -0.4302  0.1991 -1.0876
  131MOL   C12539385   6.052   6.644   5.457 -0.0818  0.2410  0.0779
  131MOL   C12639386   5.961   6.744   5.420 -0.2927  1.0810 -0.2391
  131MOL   C12739387   5.966   6.868   5.486  0.2906 -0.0493 -0.2900
  131MOL   C12839388   6.044   6.883   5.601 -0.2712 -0.4485 -0.0432
  131MOL   N12939389   6.113   6.781   5.650 -0.6200  0.6151 -0.0291
  131MOL   H13039390   6.166   6.585   5.844 -0.4112  0.9997 -0.4230
  131MOL   H13139391   6.050   6.487   5.751  0.5198 -0.9787  1.1991
  131MOL   H13239392   6.208   6.475   5.562 -0.2967  0.1722 -1.0922
  131MOL   H13339393   6.066   6.553   5.401  1.4896  2.3031 -3.0198
  131MOL   H13439394   5.886   6.716   5.348 -0.6291 -2.0229  1.1913
  131MOL   H13539395   5.908   6.954   5.456  1.4279  1.2838  1.2581
  131MOL   H13639396   6.034   6.971   5.664  0.3957 -0.5477  0.2139
  131MOL   C13739397   6.359   6.603   5.652 -0.0936 -0.5168 -0.4635
  131MOL   C13839398   6.445   6.626   5.517 -0.1012  0.1642 -0.0906
  131MOL   C13939399   6.577   6.693   5.564 -0.2678  0.6769 -0.3025
  131MOL   C14039400   6.601   6.825   5.528 -0.0993 -0.6814  0.5775
  131MOL   C14139401   6.720   6.892   5.553  1.1462  0.0477  0.3133
  131MOL   C14239402   6.813   6.818   5.627 -0.3210 -0.3110  0.4277
  131MOL   C14339403   6.788   6.685   5.659  0.0114  0.5129  0.3169
  131MOL   N14439404   6.671   6.622   5.633 -0.7250  0.5346  0.0692
  131MOL   H14539405   6.413   6.541   5.724 -0.6377  0.8934  1.1801
  131MOL   H14639406   6.353   6.702   5.695 -1.3332  0.5507 -3.0072
  131MOL   H14739407   6.390   6.699   5.458 -0.4715 -0.8026 -0.9494
  131MOL   H14839408   6.528   6.887   5.479  0.0728 -0.7701  0.2083
  131MOL   H14939409   6.739   6.995   5.525 -2.2313  1.5362  3.2147
  131MOL   H15039410   6.913   6.847   5.654 -0.8755 -0.4882  2.8040
  131MOL   H15139411   6.867   6.631   5.710  1.1215 -1.0619 -2.9149
  131MOL   C15239412   6.456   6.494   5.435  0.2021 -0.2403  0.0349
  131MOL   C15339413   6.532   6.510   5.301 -0.4092 -0.1652  1.0581
  131MOL   C15439414   6.539   6.367   5.234 -0.6267  0.0447 -0.2383
  131MOL   C15539415   6.661   6.310   5.196  0.0921 -0.0048  0.6495
  131MOL   C15639416   6.651   6.179   5.150  0.2240 -0.3477 -0.1491
  131MOL   C15739417   6.525   6.122   5.124  0.3042 -0.6253 -0.3588
  131MOL   C15839418   6.410   6.197   5.145  0.5114  0.3581 -0.0281
  131MOL   N15939419   6.416   6.318   5.201 -0.2653  0.9767 -0.2964
  131MOL   H16039420   6.361   6.440   5.428 -1.8655  3.0371  1.7334
  131MOL   H16139421   6.516   6.429   5.499 -1.9179  0.1560  2.5489
  131MOL   H16239422   6.632   6.542   5.328 -0.4557 -0.1870  1.2524
  131MOL   H16339423   6.756   6.361   5.206 -0.4525  1.0826  0.3333
  131MOL   H16439424   6.739   6.120   5.127  0.3035 -0.2526 -0.0888
  131MOL   H16539425   6.520   6.023   5.082 -0.8580 -1.2289  1.1764
  131MOL   H16639426   6.311   6.160   5.123  1.2299 -1.5783 -0.1288
  131MOL   C16739427   6.482   6.620   5.209 -0.0191 -0.4711  0.5708
  131MOL   C16839428   6.532   6.615   5.053  0.3690 -0.0914 -0.8513
  131MOL   C16939429   6.444   6.716   4.985  0.2765 -0.0079  0.4162
  131MOL   C17039430   6.361   6.683   4.877  0.6551 -0.2194  0.0307
  131MOL   C17139431   6.286   6.784   4.806  0.3041 -0.6416 -0.1020
  131MOL   C17239432   6.302   6.913   4.850 -0.0894 -0.3893  0.3704
  131MOL   C17339433   6.388   6.938   4.957 -0.4958  0.1804  0.0141
  131MOL   N17439434   6.462   6.842   5.023  0.7330 -0.0470 -0.2974
  131MOL   H17539435   6.517   6.710   5.259 -0.2404 -1.0586  1.8241
  131MOL   H17639436   6.373   6.626   5.204  0.0083  0.5950  1.0163
  131MOL   H17739437   6.513   6.516   5.012  1.8112 -1.0433  0.6810
  131MOL   H17839438   6.350   6.578   4.855 -2.9385 -0.1092  0.9590
  131MOL   H17939439   6.224   6.758   4.722 -0.6382  0.2857  0.2934
  131MOL   H18039440   6.249   6.995   4.804  0.6672 -0.8371 -1.3524
  131MOL   H18139441   6.388   7.034   5.005  1.5479 -0.5754  1.6220
  131MOL   C18239442   6.679   6.652   5.040  0.2677 -0.2279  0.7696
  131MOL   C18339443   6.732   6.664   4.893  0.5547 -0.2825 -0.1964
  131MOL   C18439444   6.854   6.757   4.893  0.4295  0.5201  0.2134
  131MOL   C18539445   6.986   6.713   4.919 -0.5259  0.4916 -0.8614
  131MOL   C18639446   7.096   6.801   4.903 -1.0910  0.7136 -0.6429
  131MOL   C18739447   7.066   6.932   4.866  0.5594  0.5443 -0.1153
  131MOL   C18839448   6.931   6.972   4.863 -0.7058  0.1367 -0.0815
  131MOL   N18939449   6.826   6.886   4.871 -0.5918 -0.3845  0.3109
  131MOL   H19039450   6.737   6.584   5.102  2.0186  2.3709  2.0454
  131MOL   H19139451   6.689   6.753   5.081 -1.0289 -1.0417  3.2254
  131MOL   H19239452   6.658   6.715   4.830  0.8927  1.3637  0.7114
  131MOL   H19339453   7.012   6.612   4.945  1.3720  0.3832 -3.0186
  131MOL   H19439454   7.192   6.754   4.917 -1.4091 -0.2033 -1.4874
  131MOL   H19539455   7.145   7.002   4.842  0.6993  0.6065  0.5023
  131MOL   H19639456   6.904   7.075   4.845 -0.9360  0.1074  0.0948
  131MOL   C19739457   6.755   6.539   4.814 -0.4123 -0.5923 -0.5455
  131MOL   C19839458   6.756   6.547   4.660 -0.1166 -0.4255  0.0741
  131MOL   C19939459   6.903   6.561   4.620  0.1110  0.5204  0.0992
  131MOL   C20039460   6.956   6.678   4.561  0.0882  0.1602 -0.1220
  131MOL   C20139461   7.093   6.691   4.554  0.2141 -0.0419 -0.2731
  131MOL   C20239462   7.176   6.593   4.605  0.2702 -0.4057 -0.3737
  131MOL   C20339463   7.121   6.473   4.652 -0.4169 -0.4422 -0.4204
  131MOL   N20439464   6.985   6.456   4.650 -0.1775 -0.5872  0.0374
  131MOL   H20539465   6.667   6.480   4.841 -1.2902 -0.6250 -3.3389
  131MOL   H20639466   6.842   6.489   4.857  0.1049  1.3904  0.7657
  131MOL   H20739467   6.722   6.647   4.632  1.3692 -0.3288 -1.4074
  131MOL   H20839468   6.884   6.758   4.548 -0.4223 -0.3615 -0.5362
  131MOL   H20939469   7.137   6.783   4.520  0.2949  0.0059 -0.0436
  131MOL   H21039470   7.283   6.605   4.599  0.1643 -0.2038 -2.0471
  131MOL   H21139471   7.187   6.400   4.696  1.9183  1.2347 -0.9870
  131MOL   C21239472   6.691   6.430   4.588 -0.3069  0.6639  0.7364
  131MOL   C21339473   6.679   6.438   4.433 -0.0883 -0.0934 -0.0574
  131MOL   C21439474   6.656   6.298   4.378 -1.0602 -0.1904  0.5947
  131MOL   C21539475   6.748   6.227   4.303  0.3892  0.0312 -0.9747
  131MOL   C21639476   6.711   6.104   4.256 -0.1360  0.1273  0.9703
  131MOL   C21739477   6.585   6.049   4.284  0.3617  0.2423 -0.0890
  131MOL   C21839478   6.494   6.124   4.359  0.2294 -0.2116  0.1374
  131MOL   N21939479   6.530   6.246   4.410 -0.1402  0.5424 -0.0130
  131MOL   H22039480   6.591   6.409   4.627 -0.5934 -0.3991 -0.5277
  131MOL   H22139481   6.753   6.344   4.613  1.4831  1.3534 -1.2088
  131MOL   H22239482   6.769   6.481   4.390  0.2055 -0.5965  0.0534
  131MOL   H22339483   6.846   6.265   4.278 -0.0023  0.8786 -1.2330
  131MOL   H22439484   6.793   6.054   4.207  0.7075 -0.5049  2.9485
  131MOL   H22539485   6.558   5.953   4.243  0.6586  1.1754 -2.5559
  131MOL   H22639486   6.393   6.096   4.385 -0.4591  1.8276 -0.2381
  131MOL   C22739487   6.572   6.541   4.382  0.5189  0.2474 -0.3057
  131MOL   C22839488   6.597   6.615   4.248 -0.2707  0.1210 -0.1951
  131MOL   C22939489   6.643   6.517   4.142  0.2545 -0.3140 -0.7075
  131MOL   C23039490   6.550   6.438   4.076 -0.3889 -0.1828  0.0019
  131MOL   C23139491   6.589   6.341   3.982  0.0300  0.5019  0.1734
  131MOL   C23239492   6.730   6.331   3.967 -0.5176  0.0383  0.5237
  131MOL   C23339493   6.822   6.406   4.037 -0.3125 -0.0759  0.3276
  131MOL   N23439494   6.780   6.497   4.124 -0.2771 -1.3486  0.2957
  131MOL   H23539495   6.569   6.616   4.461  0.9074  0.1606 -0.2040
  131MOL   H23639496   6.474   6.494   4.382  1.0699 -0.9363  0.1905
  131MOL   H23739497   6.679   6.686   4.263 -2.2355  2.5706 -0.6000
  131MOL   H23839498   6.445   6.454   4.097  0.2406  2.2336  1.5148
  131MOL   H23939499   6.512   6.289   3.927  0.6665  1.3600 -1.5627
  131MOL   H24039500   6.756   6.252   3.897 -1.2249  0.3431 -0.0968
  131MOL   H24139501   6.929   6.395   4.029 -0.1409  0.8154  1.2093
  131MOL   C24239502   6.475   6.700   4.198  0.0312 -0.4571 -0.5107
  131MOL   C24339503   6.413   6.803   4.291 -0.5242  0.5747  0.2415
  131MOL   C24439504   6.513   6.883   4.366 -0.6635 -0.2664 -0.0433
  131MOL   C24539505   6.517   6.875   4.507  0.1952  0.2984  1.0475
  131MOL   C24639506   6.615   6.956   4.578  0.7901 -0.2340  0.3404
  131MOL   C24739507   6.692   7.045   4.505 -0.3435  0.0107  1.2092
  131MOL   C24839508   6.682   7.040   4.367 -0.4623  0.2207 -1.0225
  131MOL   N24939509   6.597   6.967   4.301 -0.1010  0.0440 -0.2823
  131MOL   H25039510   6.401   6.633   4.154 -0.2390  0.0797 -0.8753
  131MOL   H25139511   6.521   6.748   4.111  3.1515  0.2497  1.4367
  131MOL   H25239512   6.369   6.730   4.359 -2.7258 -0.0806 -1.8342
  131MOL   H25339513   6.455   6.813   4.568 -0.3924  0.1736  0.3297
  131MOL   H25439514   6.622   6.942   4.685 -1.6460  1.0206  0.7088
  131MOL   H25539515   6.762   7.110   4.557  0.9767 -0.6044  0.2406
  131MOL   H25639516   6.744   7.107   4.309 -1.1061  0.0763 -1.8953
  131MOL   C25739517   6.294   6.890   4.238  0.3377 -0.0173  0.0215
  131MOL   C25839518   6.188   6.911   4.341 -0.0971 -0.1459 -0.5149
  131MOL   C25939519   6.143   7.055   4.361  0.0292 -0.3315  0.2859
  131MOL   C26039520   6.217   7.145   4.439  1.4083 -0.1099  0.6517
  131MOL   C26139521   6.181   7.283   4.440  0.1566  0.3170 -0.0063
  131MOL   C26239522   6.070   7.321   4.368  0.6315  0.6627 -0.1235
  131MOL   C26339523   6.005   7.227   4.289 -0.4737  0.2980  0.0952
  131MOL   N26439524   6.039   7.098   4.289 -0.4097 -0.4223 -0.8228
  131MOL   H26539525   6.251   6.838   4.152 -0.7918 -1.6379  1.5090
  131MOL   H26639526   6.335   6.986   4.207 -0.9272  1.1252  1.8157
  131MOL   H26739527   6.232   6.892   4.439  0.5907  0.0249 -0.7822
  131MOL   H26839528   6.288   7.096   4.504 -0.3019 -0.5291  2.2512
  131MOL   H26939529   6.227   7.356   4.505 -0.8527 -0.1328  1.2128
  131MOL   H27039530   6.035   7.423   4.359  0.8306  0.6995 -0.4738
  131MOL   H27139531   5.923   7.259   4.227  0.0022  0.5223 -0.4259
  131MOL   C27239532   6.070   6.817   4.324 -0.0715  0.0397  0.3772
  131MOL   C27339533   6.090   6.666   4.323 -0.5249  0.1477 -0.0127
  131MOL   C27439534   6.134   6.594   4.454  0.0207 -0.0307  0.4817
  131MOL   C27539535   6.072   6.612   4.570  0.9220  0.0762  0.1071
  131MOL   C27639536   6.108   6.530   4.683  0.2482  0.5620 -0.2116
  131MOL   C27739537   6.199   6.423   4.666 -0.0993 -0.1189 -0.7020
  131MOL   C27839538   6.256   6.416   4.538 -0.2381  0.4098 -0.4080
  131MOL   N27939539   6.231   6.500   4.438  0.4770  0.5579  0.0076
  131MOL   H28039540   6.012   6.836   4.233 -0.7498  0.1778  0.8374
  131MOL   H28139541   5.995   6.847   4.398  0.6048 -1.7985  1.8376
  131MOL   H28239542   6.168   6.647   4.249  1.0887  4.0869  0.5600
  131MOL   H28339543   5.993   6.685   4.562  1.7215  0.8858 -0.5488
  131MOL   H28439544   6.055   6.545   4.776 -1.1942  0.9127 -1.0703
  131MOL   H28539545   6.227   6.363   4.751 -0.9462  1.2320  0.5470
  131MOL   H28639546   6.314   6.332   4.504 -1.0997  0.2602 -1.5374
  131MOL   C28739547   5.966   6.579   4.269 -0.4589 -0.3664  0.1907
  131MOL   C28839548   5.930   6.599   4.120 -0.4676  0.0382  0.0992
  131MOL   C28939549   6.050   6.589   4.024 -0.1195 -0.0733 -0.1470
  131MOL   C29039550   6.092   6.464   3.972  0.0417  0.7654  0.2179
  131MOL   C29139551   6.204   6.466   3.884 -0.2380  0.5839  0.6785
  131MOL   C29239552   6.264   6.592   3.856  0.5526  0.1380  0.4386
  131MOL   C29339553   6.201   6.706   3.897  0.3694  0.0060 -0.3280
  131MOL   N29439554   6.101   6.705   3.983 -0.1744 -0.1485 -0.7159
  131MOL   H29539555   5.877   6.594   4.330 -1.2938 -0.9657 -0.8515
  131MOL   H29639556   5.978   6.471   4.278  2.0780  0.0138  1.5904
  131MOL   H29739557   5.875   6.691   4.101 -1.8010 -0.8775 -0.5716
  131MOL   H29839558   6.048   6.369   3.998 -1.3066  1.0219 -1.0874
  131MOL   H29939559   6.249   6.375   3.848 -2.0643  0.0978 -0.4448
  131MOL   H30039560   6.355   6.599   3.799 -0.5431  1.8529 -1.1462
  131MOL   H30139561   6.240   6.800   3.860 -3.6251  0.8077 -2.7579
  131MOL   H30239562   5.866   6.519   4.083  1.0406 -0.1502 -2.1895
  132MOL     C139563   8.053   1.272   6.161  0.9406 -0.6003 -0.1064
  132MOL     C239564   7.987   1.254   6.289 -0.1195 -0.4535  0.4762
  132MOL     C339565   8.095   1.233   6.394  0.7200  0.5823  0.3714
  132MOL     C439566   0.016   1.339   6.452  0.2490  0.3870  0.2371
  132MOL     C539567   0.133   1.301   6.526 -0.5925 -0.1225  0.1187
  132MOL     C639568   0.170   1.168   6.542  0.4515  0.1395  0.5139
  132MOL     C739569   0.076   1.075   6.495 -0.5199 -0.1269 -0.3048
  132MOL     N839570   8.120   1.103   6.421  0.1546 -0.3063 -0.1766
  132MOL     H939571   8.130   1.196   6.144  0.2924 -1.4178  0.5701
  132MOL    H1039572   7.977   1.277   6.084 -0.5372 -2.1223  1.1905
  132MOL    H1139573   7.933   1.159   6.282  0.9790 -1.0503  0.0965
  132MOL    H1239574   8.141   1.440   6.426  0.8801  0.7481  0.9766
  132MOL    H1339575   0.201   1.369   6.575  1.5023 -0.2069 -2.5250
  132MOL    H1439576   0.250   1.144   6.611  0.1763  0.8088  1.0799
  132MOL    H1539577   0.088   0.977   6.538  1.1665  0.4041  0.4775
  132MOL    H1639578   8.097   1.370   6.148 -0.1876 -0.3964 -2.5609
  132MOL    C1739579   7.872   1.348   6.329  0.6354  0.1548  0.1447
  132MOL    C1839580   7.743   1.331   6.241  0.3013 -0.8692  0.0433
  132MOL    C1939581   7.694   1.190   6.244  0.7352  0.3197 -0.0793
  132MOL    C2039582   7.698   1.110   6.130 -0.3252  0.3388 -0.3443
  132MOL    C2139583   7.641   0.980   6.145 -0.4892 -0.1175  0.4731
  132MOL    C2239584   7.592   0.935   6.266 -0.7753 -0.5678  0.2176
  132MOL    C2339585   7.606   1.018   6.381 -0.3291 -0.1413 -0.0045
  132MOL    N2439586   7.652   1.147   6.368 -0.0027 -0.2924 -0.0374
  132MOL    H2539587   7.907   1.450   6.319  2.5804 -0.3681  1.3711
  132MOL    H2639588   7.834   1.331   6.430 -1.1709 -0.5611 -0.6319
  132MOL    H2739589   7.768   1.345   6.136  1.1493 -1.0701  0.2127
  132MOL    H2839590   7.757   1.138   6.044  1.3704 -0.0510  0.6577
  132MOL    H2939591   7.632   0.911   6.062 -1.4820 -0.6323  0.9944
  132MOL    H3039592   7.548   0.837   6.276  0.2920 -1.1073 -0.2626
  132MOL    H3139593   7.586   0.992   6.484 -1.1181 -0.1851 -0.1676
  132MOL    C3239594   7.625   1.427   6.283 -0.2428  0.4651 -0.3851
  132MOL    C3339595   7.501   1.422   6.195 -0.0017 -0.2633  0.0565
  132MOL    C3439596   7.395   1.515   6.270 -0.6135 -0.0219 -0.3535
  132MOL    C3539597   7.290   1.449   6.339  0.2551 -0.1726 -0.5758
  132MOL    C3639598   7.186   1.526   6.381  0.0752  0.0706  0.4089
  132MOL    C3739599   7.201   1.665   6.380 -0.1904  0.1863 -0.0186
  132MOL    C3839600   7.320   1.722   6.332  0.2392 -0.5271 -0.3069
  132MOL    N3939601   7.416   1.648   6.265 -0.1673  0.4210 -0.3248
  132MOL    H4039602   7.661   1.529   6.295  2.7590 -0.3431 -1.9429
  132MOL    H4139603   7.595   1.394   6.382 -0.6629  0.5480 -0.4835
  132MOL    H4239604   7.461   1.321   6.186 -0.4345 -0.0326 -0.6245
  132MOL    H4339605   7.281   1.342   6.339  1.3517 -0.2792 -1.0565
  132MOL    H4439606   7.105   1.483   6.438 -0.5856  1.1335  0.2739
  132MOL    H4539607   7.130   1.730   6.431  0.1749 -0.2362  1.0387
  132MOL    H4639608   7.339   1.827   6.348  1.3514 -0.6303 -0.8773
  132MOL    C4739609   7.527   1.467   6.043 -0.2918  0.3103 -0.0666
  132MOL    C4839610   7.399   1.501   5.957 -0.1219 -0.5918  0.5253
  132MOL    C4939611   7.425   1.565   5.817 -0.0461  0.3374 -0.2003
  132MOL    C5039612   7.408   1.704   5.818  0.5389  0.2731  0.4432
  132MOL    C5139613   7.420   1.764   5.693  0.0904  0.0242 -0.2577
  132MOL    C5239614   7.454   1.694   5.577 -0.3579  0.1822 -0.2042
  132MOL    C5339615   7.478   1.553   5.589 -0.6085  0.2476  0.1317
  132MOL    N5439616   7.466   1.488   5.709  0.8501 -0.5354 -0.1491
  132MOL    H5539617   7.583   1.391   5.987  1.4582  1.6493 -0.1785
  132MOL    H5639618   7.587   1.558   6.051 -0.1935  0.1490  1.0877
  132MOL    H5739619   7.347   1.578   6.014  1.6863  0.0552  1.3362
  132MOL    H5839620   7.379   1.762   5.904  0.1606  0.1099  0.4320
  132MOL    H5939621   7.385   1.865   5.685  1.3206  0.3112 -2.5715
  132MOL    H6039622   7.446   1.743   5.481 -1.2540  0.3279 -0.0528
  132MOL    H6139623   7.502   1.498   5.500  3.7605 -0.3414  1.5784
  132MOL    C6239624   7.303   1.384   5.936 -0.5131 -0.4355  0.1287
  132MOL    C6339625   7.162   1.408   5.882  0.0503  0.5994  0.6309
  132MOL    C6439626   7.097   1.271   5.858  0.2883  0.0454  0.0288
  132MOL    C6539627   7.062   1.230   5.729  0.3893 -0.6343 -0.6856
  132MOL    C6639628   6.989   1.111   5.717 -0.7636  0.2594 -0.0613
  132MOL    C6739629   6.936   1.041   5.830 -0.2732 -0.2601 -0.1075
  132MOL    C6839630   6.985   1.096   5.952  0.3656 -0.1151 -0.3805
  132MOL    N6939631   7.065   1.203   5.968 -0.5228 -0.2564 -0.4291
  132MOL    H7039632   7.286   1.337   6.033 -0.5831  0.9827  0.8142
  132MOL    H7139633   7.357   1.321   5.866  1.1070 -1.0598  1.8907
  132MOL    H7239634   7.185   1.462   5.790  2.3233 -0.8332  0.2987
  132MOL    H7339635   7.087   1.281   5.637 -1.0686 -1.6411 -1.6758
  132MOL    H7439636   6.953   1.080   5.620 -0.0306 -0.9613  0.0389
  132MOL    H7539637   6.876   0.952   5.825  1.2285 -1.2492 -1.0562
  132MOL    H7639638   6.965   1.052   6.049  2.9331  1.3950  0.8722
  132MOL    C7739639   7.075   1.494   5.985  0.2749 -0.6337  0.2253
  132MOL    C7839640   7.073   1.641   5.946  0.3283 -0.4304  0.5839
  132MOL    C7939641   6.997   1.648   5.811 -0.4797 -0.1038  0.0710
  132MOL    C8039642   6.863   1.591   5.802  0.3235  0.0680  0.5377
  132MOL    C8139643   6.799   1.568   5.681  0.0491  0.7529  0.2852
  132MOL    C8239644   6.877   1.614   5.568 -0.2462 -0.4733  0.3223
  132MOL    C8339645   7.008   1.670   5.582  0.0156  0.4044 -0.5966
  132MOL    N8439646   7.066   1.688   5.703  0.1016 -0.4822 -0.5220
  132MOL    H8539647   7.111   1.476   6.087  0.3595  0.3772  0.3739
  132MOL    H8639648   6.976   1.450   5.979  0.5877 -1.7456  2.4526
  132MOL    H8739649   7.174   1.672   5.924 -0.6445  2.0902 -0.4854
  132MOL    H8839650   6.814   1.554   5.890  1.0616 -0.9208  0.5442
  132MOL    H8939651   6.700   1.525   5.684  0.3045  0.0376 -1.2409
  132MOL    H9039652   6.847   1.615   5.464  1.9460 -0.6287 -0.3294
  132MOL    H9139653   7.066   1.702   5.497  0.2584 -0.4840 -0.7735
  132MOL    C9239654   7.019   1.728   6.067  0.2445  0.0294 -0.3618
  132MOL    C9339655   6.955   1.856   6.037 -0.6841  0.9164  0.4935
  132MOL    C9439656   6.874   1.897   6.157  0.4782 -0.5653  0.3491
  132MOL    C9539657   6.736   1.925   6.142  0.0701 -0.0136 -0.3849
  132MOL    C9639658   6.653   1.927   6.257  0.4319 -0.8850 -0.1252
  132MOL    C9739659   6.719   1.913   6.381  0.0910  0.1878  0.0760
  132MOL    C9839660   6.859   1.912   6.386  0.1101  0.3250  0.3904
  132MOL    N9939661   6.934   1.899   6.276  0.3011  0.5174 -0.5084
  132MOL   H10039662   7.099   1.753   6.136 -1.7771 -0.3084  2.2015
  132MOL   H10139663   6.940   1.669   6.114  0.9041 -1.6193 -1.2908
  132MOL   H10239664   6.879   1.836   5.962 -2.3749  2.0463  1.8704
  132MOL   H10339665   6.700   1.934   6.040 -0.4900  3.4191  0.0352
  132MOL   H10439666   6.549   1.949   6.238  0.3606  0.2937  1.4909
  132MOL   H10539667   6.656   1.926   6.468 -3.1305 -2.0452 -1.8182
  132MOL   H10639668   6.916   1.920   6.477  1.2239  0.8559 -0.3458
  132MOL   C10739669   7.043   1.970   5.979  0.2296 -0.1317 -0.4451
  132MOL   C10839670   7.020   2.012   5.840  0.1048 -0.3521 -0.1366
  132MOL   C10939671   6.874   2.057   5.814  0.4756 -0.0369 -0.2331
  132MOL   C11039672   6.787   2.004   5.720  0.1661 -0.3034  0.1896
  132MOL   C11139673   6.657   2.069   5.702  0.2904  0.1742 -0.0465
  132MOL   C11239674   6.628   2.171   5.788  0.5180 -0.1205 -0.2593
  132MOL   C11339675   6.719   2.215   5.885  0.2314  0.1491 -0.0732
  132MOL   N11439676   6.839   2.159   5.897  0.2850 -0.1557 -0.6518
  132MOL   H11539677   7.147   1.941   5.992  1.4861  3.3453 -2.1524
  132MOL   H11639678   7.035   2.055   6.047  1.1809 -0.5262  0.1759
  132MOL   H11739679   7.033   1.920   5.783 -2.2606 -0.5193 -0.4714
  132MOL   H11839680   6.822   1.935   5.644  2.1454  1.0245 -0.1524
  132MOL   H11939681   6.587   2.035   5.627  0.3186  1.0869 -0.4984
  132MOL   H12039682   6.532   2.221   5.798  2.2235  3.1285  0.7799
  132MOL   H12139683   6.691   2.286   5.962  1.2094 -0.5198  0.9173
  132MOL   C12239684   7.121   2.113   5.789 -0.2306  1.3425 -0.0498
  132MOL   C12339685   7.116   2.163   5.639 -0.0834  0.7446 -0.3435
  132MOL   C12439686   7.213   2.276   5.609 -0.9150 -1.1094  0.0448
  132MOL   C12539687   7.159   2.401   5.594  0.6062  0.3401 -0.1647
  132MOL   C12639688   7.242   2.513   5.576  0.0770 -0.7628 -0.7278
  132MOL   C12739689   7.379   2.493   5.561 -1.2652  0.1664 -0.0205
  132MOL   C12839690   7.427   2.363   5.585 -0.0030  0.5358 -0.5856
  132MOL   N12939691   7.350   2.255   5.607  0.0025  0.0688 -0.2050
  132MOL   H13039692   7.219   2.071   5.810 -1.5009 -0.0641  3.5951
  132MOL   H13139693   7.121   2.204   5.850  0.0282 -0.6096  2.9438
  132MOL   H13239694   7.013   2.196   5.631  0.2508  2.3683  1.5583
  132MOL   H13339695   7.051   2.407   5.599  0.7290  2.4642  0.4357
  132MOL   H13439696   7.200   2.610   5.552  1.0228  0.5378  2.5577
  132MOL   H13539697   7.447   2.576   5.545 -1.1798 -0.0012 -0.5598
  132MOL   H13639698   7.534   2.345   5.584  0.1954  1.4705  1.2613
  132MOL   C13739699   7.151   2.041   5.547 -0.5385 -0.3623  0.8873
  132MOL   C13839700   7.118   2.076   5.402 -0.8133  0.2096  0.0061
  132MOL   C13939701   7.198   1.990   5.305  0.0691  0.4174  0.0842
  132MOL   C14039702   7.286   2.032   5.202 -0.6414 -0.1086 -0.9340
  132MOL   C14139703   7.349   1.935   5.119 -0.2753  0.1006  0.0216
  132MOL   C14239704   7.317   1.798   5.143  0.0609 -0.6609 -0.5563
  132MOL   C14339705   7.233   1.763   5.243  0.3356  0.7326 -0.1506
  132MOL   N14439706   7.175   1.857   5.323 -0.6835  0.1467 -0.1031
  132MOL   H14539707   7.101   1.949   5.577  1.1785 -1.6293 -0.0484
  132MOL   H14639708   7.255   2.010   5.558 -0.4949 -0.0892  1.2864
  132MOL   H14739709   7.153   2.177   5.376  1.3689  0.0550  2.2250
  132MOL   H14839710   7.305   2.138   5.193  0.1484 -0.2741 -1.2874
  132MOL   H14939711   7.432   1.960   5.055 -0.0457  0.4468  0.4532
  132MOL   H15039712   7.372   1.717   5.096  0.0289 -3.8549  4.5069
  132MOL   H15139713   7.210   1.658   5.253  1.5235  0.3601 -1.2141
  132MOL   C15239714   6.962   2.067   5.380 -0.2554  0.1388 -0.3148
  132MOL   C15339715   6.922   2.097   5.234 -0.0668  0.5859  0.0948
  132MOL   C15439716   6.897   1.965   5.167 -0.5539  0.3072  0.2549
  132MOL   C15539717   6.975   1.914   5.063  0.2670 -0.4084 -0.0850
  132MOL   C15639718   6.942   1.783   5.018 -0.1929 -0.6131 -0.4217
  132MOL   C15739719   6.837   1.708   5.071 -0.1459 -0.9293  0.2245
  132MOL   C15839720   6.753   1.784   5.157 -0.1174 -0.5005 -0.4131
  132MOL   N15939721   6.782   1.906   5.204 -0.0959  0.0952 -0.1434
  132MOL   H16039722   6.918   2.144   5.444  2.1712  1.4715 -0.2079
  132MOL   H16139723   6.928   1.971   5.419  0.9212 -0.8378 -1.6773
  132MOL   H16239724   7.009   2.127   5.176  0.5846  0.1780  0.8547
  132MOL   H16339725   7.058   1.971   5.025  0.0475  0.0108  0.0556
  132MOL   H16439726   6.997   1.736   4.937 -1.2811 -0.9996 -0.9402
  132MOL   H16539727   6.811   1.611   5.033  0.4842 -0.2224 -2.0821
  132MOL   H16639728   6.664   1.740   5.199 -0.7211  2.4304  1.5231
  132MOL   C16739729   6.819   2.203   5.222  0.0933  0.3072  0.1951
  132MOL   C16839730   6.868   2.344   5.243  0.0288 -0.0859  0.5897
  132MOL   C16939731   6.990   2.378   5.162 -0.0905 -0.1013 -0.8986
  132MOL   C17039732   7.115   2.411   5.226 -0.2929  0.0987 -0.0176
  132MOL   C17139733   7.227   2.430   5.145 -0.7393 -0.4800  0.4699
  132MOL   C17239734   7.211   2.444   5.005 -0.0405  0.3060 -0.3436
  132MOL   C17339735   7.088   2.408   4.951  0.4790  0.1793 -0.3557
  132MOL   N17439736   6.982   2.371   5.028 -0.9337  0.2796 -0.2051
  132MOL   H17539737   6.733   2.179   5.284  0.3015 -0.5321  0.1746
  132MOL   H17639738   6.789   2.195   5.117  0.2110 -0.0927  0.1907
  132MOL   H17739739   6.884   2.344   5.351 -0.8370 -1.6173  0.7406
  132MOL   H17839740   7.114   2.417   5.334 -0.0392 -4.5598  0.3327
  132MOL   H17939741   7.329   2.437   5.181  0.0911 -0.9153 -1.7056
  132MOL   H18039742   7.298   2.462   4.942 -1.2454  1.3747 -1.7325
  132MOL   H18139743   7.072   2.406   4.844 -3.3905  0.4430  0.1355
  132MOL   C18239744   6.750   2.437   5.234 -0.4760  0.0940  0.2627
  132MOL   C18339745   6.665   2.467   5.359 -0.3666  0.8046  0.0991
  132MOL   C18439746   6.760   2.538   5.461 -0.0887 -0.4803 -0.0050
  132MOL   C18539747   6.771   2.474   5.587  0.3563 -0.2506 -0.0429
  132MOL   C18639748   6.858   2.529   5.683  0.6474 -0.7875  0.8998
  132MOL   C18739749   6.925   2.650   5.646 -0.3448 -0.5056  0.4108
  132MOL   C18839750   6.901   2.704   5.518  0.5371 -0.5908  0.1273
  132MOL   N18939751   6.821   2.648   5.427  0.1993  0.1130 -0.1806
  132MOL   H19039752   6.689   2.418   5.146  0.6446  1.8810 -0.9135
  132MOL   H19139753   6.799   2.528   5.201  2.3864 -1.2129  0.7315
  132MOL   H19239754   6.634   2.374   5.406  1.2658 -0.5002 -1.3188
  132MOL   H19339755   6.709   2.389   5.613 -0.0408 -0.6557 -2.1583
  132MOL   H19439756   6.876   2.489   5.781  0.5961 -0.7946  0.9062
  132MOL   H19539757   6.993   2.691   5.719 -0.9306 -0.1068  0.7353
  132MOL   H19639758   6.945   2.796   5.481  1.6385 -1.1146  0.1260
  132MOL   C19739759   6.536   2.546   5.325 -0.6587 -0.1110 -0.2233
  132MOL   C19839760   6.429   2.477   5.246 -0.6948  0.5759  0.0754
  132MOL   C19939761   6.387   2.352   5.313  0.0293 -0.5151 -0.1713
  132MOL   C20039762   6.431   2.226   5.272 -0.3434 -0.6176 -0.9287
  132MOL   C20139763   6.389   2.107   5.344  0.2820 -0.2121  0.0853
  132MOL   C20239764   6.307   2.133   5.455 -0.0918  0.5166  0.1549
  132MOL   C20339765   6.275   2.263   5.497 -0.5597  0.0892  0.6704
  132MOL   N20439766   6.312   2.368   5.427 -0.0282 -0.0763  0.3175
  132MOL   H20539767   6.568   2.632   5.267  0.2176  1.3407  2.3240
  132MOL   H20639768   6.498   2.582   5.421  2.0662  0.8394  0.5443
  132MOL   H20739769   6.474   2.444   5.152 -2.9204  1.0372 -1.2064
  132MOL   H20839770   6.480   2.213   5.177 -1.4243 -1.8879 -1.3247
  132MOL   H20939771   6.410   2.012   5.298  0.7644 -0.1470  0.1674
  132MOL   H21039772   6.254   2.055   5.507  0.6354  1.3994  2.3177
  132MOL   H21139773   6.217   2.272   5.588 -1.1173  0.2563  0.2998
  132MOL   C21239774   6.317   2.579   5.201  0.2631  0.6260  0.5139
  132MOL   C21339775   6.352   2.687   5.089 -0.1540  0.4034  0.0891
  132MOL   C21439776   6.445   2.629   4.982  0.2483 -0.0367 -0.1588
  132MOL   C21539777   6.582   2.666   4.977 -0.0494 -0.0294  0.4888
  132MOL   C21639778   6.672   2.592   4.899  0.6834 -0.4166  0.6828
  132MOL   C21739779   6.619   2.481   4.831 -0.1905 -0.2731  0.2404
  132MOL   C21839780   6.479   2.454   4.835  0.3521  0.1551  0.3648
  132MOL   N21939781   6.395   2.516   4.915  0.0421  0.3153  0.6370
  132MOL   H22039782   6.274   2.626   5.289 -1.5457  0.5808 -0.3135
  132MOL   H22139783   6.237   2.523   5.152 -0.2847  1.4917  0.4220
  132MOL   H22239784   6.414   2.761   5.140  1.7576  1.0953 -3.0967
  132MOL   H22339785   6.625   2.731   5.052  1.6941 -0.9329  0.3118
  132MOL   H22439786   6.779   2.606   4.903  0.9761 -1.5604 -2.1364
  132MOL   H22539787   6.687   2.410   4.786 -0.5749 -2.6159  3.2381
  132MOL   H22639788   6.442   2.364   4.788 -2.4020  1.4480 -0.0365
  132MOL   C22739789   6.225   2.759   5.036 -0.5247  0.4693  0.3181
  132MOL   C22839790   6.247   2.892   4.962  0.2720  0.2631  0.0289
  132MOL   C22939791   6.136   2.913   4.860 -0.2502 -0.0539 -0.5166
  132MOL   C23039792   6.170   2.946   4.723  0.4367  0.5167 -0.2287
  132MOL   C23139793   6.064   2.955   4.630  0.2716 -0.3615 -0.1058
  132MOL   C23239794   5.932   2.946   4.677 -0.4663 -0.2156 -0.0444
  132MOL   C23339795   5.908   2.928   4.814  0.3764  0.5985 -1.2602
  132MOL   N23439796   6.007   2.905   4.898 -0.2227  0.5372 -0.1056
  132MOL   H23539797   6.148   2.764   5.113  0.3895 -0.2551  1.2916
  132MOL   H23639798   6.183   2.689   4.964  1.5443  0.4897 -0.9364
  132MOL   H23739799   6.340   2.888   4.904 -0.2618  3.8640 -1.2285
  132MOL   H23839800   6.271   2.967   4.690  0.2497  1.1642 -0.4044
  132MOL   H23939801   6.087   2.969   4.525 -0.9568 -0.7276 -0.4315
  132MOL   H24039802   5.850   2.974   4.612  1.6491  1.1084 -2.2063
  132MOL   H24139803   5.808   2.942   4.851 -0.4387 -2.5526 -2.1741
  132MOL   C24239804   6.240   3.017   5.057  0.7232 -0.0146 -0.0527
  132MOL   C24339805   6.371   3.088   5.097 -0.1672  0.3816  0.1926
  132MOL   C24439806   6.472   3.096   4.987  0.0488  0.2472 -0.5887
  132MOL   C24539807   6.593   3.028   4.992  0.7305  0.0496  0.5049
  132MOL   C24639808   6.685   3.048   4.888 -0.7106  0.5033 -0.3030
  132MOL   C24739809   6.647   3.118   4.777  0.3558 -0.0002  0.1260
  132MOL   C24839810   6.521   3.182   4.778 -0.6203  0.2732 -0.1781
  132MOL   N24939811   6.430   3.163   4.882 -0.1428  0.1698  0.4006
  132MOL   H25039812   6.187   2.997   5.150 -0.6780  0.3225 -0.7610
  132MOL   H25139813   6.173   3.089   5.009 -0.3333 -1.9606 -1.5790
  132MOL   H25239814   6.407   3.011   5.166 -1.9640  0.2503  0.9887
  132MOL   H25339815   6.630   2.961   5.068 -0.4078 -1.8967 -0.6165
  132MOL   H25439816   6.772   2.984   4.879 -1.2930 -0.3709  0.2788
  132MOL   H25539817   6.700   3.108   4.683  1.0888  1.3796  0.3872
  132MOL   H25639818   6.504   3.236   4.686 -1.0242 -4.3578 -2.9635
  132MOL   C25739819   6.361   3.218   5.179 -0.0785  0.3112 -0.1184
  132MOL   C25839820   6.496   3.270   5.239  0.5291 -0.0452  0.5907
  132MOL   C25939821   6.491   3.407   5.307 -0.0763 -0.4789  0.3591
  132MOL   C26039822   6.593   3.500   5.292  0.4724 -0.0589  0.7054
  132MOL   C26139823   6.587   3.618   5.358  0.5977  0.2271 -0.1611
  132MOL   C26239824   6.480   3.653   5.439  0.5071 -0.4169 -0.6757
  132MOL   C26339825   6.387   3.548   5.463  0.4196 -0.3630 -0.2992
  132MOL   N26439826   6.391   3.429   5.394 -0.3671 -0.5230  0.1205
  132MOL   H26539827   6.278   3.223   5.249 -0.1687  0.8800 -0.2582
  132MOL   H26639828   6.324   3.298   5.114  0.7043  0.6482 -0.1482
  132MOL   H26739829   6.559   3.282   5.150  0.1919 -0.9177  0.2255
  132MOL   H26839830   6.674   3.478   5.224 -0.4583 -1.1571 -0.0627
  132MOL   H26939831   6.662   3.696   5.349 -0.3000  0.9994 -1.0221
  132MOL   H27039832   6.483   3.749   5.488 -2.6877  0.6391 -2.4085
  132MOL   H27139833   6.308   3.550   5.537 -1.2178  0.1230 -2.0293
  132MOL   C27239834   6.576   3.173   5.328 -0.4446 -0.2306 -0.2826
  132MOL   C27339835   6.527   3.147   5.468  0.9804  0.3406 -0.2827
  132MOL   C27439836   6.388   3.083   5.482  0.1444 -0.3228 -0.7051
  132MOL   C27539837   6.283   3.142   5.559  0.1246  0.2127  0.1013
  132MOL   C27639838   6.158   3.079   5.567  0.3158  0.6601  0.3032
  132MOL   C27739839   6.134   2.952   5.505 -0.2717 -0.2351  0.0218
  132MOL   C27839840   6.243   2.902   5.441  0.1754  0.6282  0.0820
  132MOL   N27939841   6.363   2.967   5.424 -0.3198  0.0254 -0.5430
  132MOL   H28039842   6.681   3.203   5.326 -0.8123  1.0253 -2.6386
  132MOL   H28139843   6.592   3.078   5.278 -0.6244 -0.4462  0.0683
  132MOL   H28239844   6.512   3.248   5.505  0.4370  0.3996 -0.6530
  132MOL   H28339845   6.302   3.240   5.599  1.9712 -0.8824  2.0511
  132MOL   H28439846   6.080   3.121   5.629  0.8155  0.9898  0.7084
  132MOL   H28539847   6.040   2.898   5.503 -0.9625  0.9585 -0.0155
  132MOL   H28639848   6.228   2.812   5.383  1.3038  1.5111 -1.6243
  132MOL   C28739849   6.641   3.081   5.554  0.6154  0.0067 -0.1015
  132MOL   C28839850   6.612   3.060   5.702  0.2205  0.1409  0.3083
  132MOL   C28939851   6.735   3.036   5.786 -0.6148 -0.7384 -0.5076
  132MOL   C29039852   6.767   2.906   5.840  0.0925  0.2983  0.0102
  132MOL   C29139853   6.894   2.887   5.888 -1.3264  0.2931  0.1316
  132MOL   C29239854   6.986   2.998   5.890 -0.1087 -0.0302  0.2151
  132MOL   C29339855   6.945   3.120   5.826 -0.4489  0.0588  0.4115
  132MOL   N29439856   6.821   3.138   5.788  0.0287  0.0779  0.6399
  132MOL   H29539857   6.732   3.138   5.534  2.2369 -2.1711  0.8559
  132MOL   H29639858   6.670   2.984   5.515  2.1598  0.3626  0.1247
  132MOL   H29739859   6.536   2.983   5.720 -0.7859  1.3465  1.2642
  132MOL   H29839860   6.698   2.823   5.835 -0.0923  0.2186  3.0977
  132MOL   H29939861   6.915   2.790   5.930  0.3371  0.9759  0.9205
  132MOL   H30039862   7.091   2.995   5.918  0.8837  2.0270 -3.0376
  132MOL   H30139863   7.008   3.206   5.841 -0.7947  0.5128 -0.7254
  132MOL   H30239864   6.555   3.149   5.726 -0.5851  0.2522 -1.8992
  133MOL     C139865   0.326   0.029   2.031  0.3866  0.0931  0.7288
  133MOL     C239866   0.336   0.114   1.907 -0.2416  0.0746 -0.0380
  133MOL     C339867   0.276   0.252   1.951  0.4789  0.6065  0.1779
  133MOL     C439868   0.148   0.279   1.901 -0.3613  0.5005  0.1145
  133MOL     C539869   0.078   0.397   1.926 -0.0906 -1.0163 -0.2771
  133MOL     C639870   0.138   0.486   2.023 -0.6907  0.8136  0.2381
  133MOL     C739871   0.263   0.446   2.077  0.0897  0.5664  0.2156
  133MOL     N839872   0.331   0.335   2.043  0.3133  0.3112 -0.0788
  133MOL     H939873   0.387   0.075   2.108 -2.4106  0.8124  2.5955
  133MOL    H1039874   0.224   0.038   2.069 -0.3434  1.3455 -1.3897
  133MOL    H1139875   0.270   0.073   1.830 -0.4069  0.2582  0.0070
  133MOL    H1239876   0.107   0.203   1.835  1.8367 -1.9040  1.4026
  133MOL    H1339877   8.131   0.419   1.889 -0.2432  2.4090  1.9667
  133MOL    H1439878   0.088   0.574   2.062 -2.4555 -0.3912  0.7814
  133MOL    H1539879   0.311   0.517   2.143 -0.2614 -1.2212  2.4710
  133MOL    H1639880   0.351   8.077   2.007  0.8503  0.0200  1.5240
  133MOL    C1739881   0.483   0.130   1.861  0.7508 -0.3418 -0.3792
  133MOL    C1839882   0.503   0.226   1.741 -0.0350  0.4900  0.3212
  133MOL    C1939883   0.652   0.254   1.721  1.4297 -0.4901 -0.2372
  133MOL    C2039884   0.707   0.384   1.733 -1.2166 -0.0722 -0.2274
  133MOL    C2139885   0.846   0.399   1.719 -0.6202 -0.0665  0.2025
  133MOL    C2239886   0.914   0.281   1.686 -0.5885 -0.0959 -0.0899
  133MOL    C2339887   0.857   0.156   1.681  0.8107 -0.0221 -0.4063
  133MOL    N2439888   0.728   0.141   1.701 -0.1916 -0.0234 -0.1424
  133MOL    H2539889   0.529   0.033   1.839 -0.5535 -1.3229  1.1384
  133MOL    H2639890   0.544   0.165   1.944 -0.0524 -0.5955  0.3185
  133MOL    H2739891   0.454   0.319   1.772  0.8749  1.2493 -0.5020
  133MOL    H2839892   0.639   0.468   1.741 -0.0132  1.0497 -1.4651
  133MOL    H2939893   0.906   0.488   1.722  1.4496 -1.3317 -1.6698
  133MOL    H3039894   1.022   0.282   1.684 -0.5055  0.3885  2.5597
  133MOL    H3139895   0.922   0.073   1.653 -0.4425 -0.5412 -1.8350
  133MOL    C3239896   0.430   0.178   1.617 -0.5458 -0.0430  0.2748
  133MOL    C3339897   0.449   0.276   1.496  0.2485  0.2159 -0.6213
  133MOL    C3439898   0.496   0.215   1.364  0.2332 -0.1854  1.0396
  133MOL    C3539899   0.566   0.285   1.268 -0.3459 -0.6342  1.0669
  133MOL    C3639900   0.607   0.221   1.145 -0.3714  0.1765  0.4408
  133MOL    C3739901   0.586   0.086   1.127  0.0689 -0.1275 -0.4761
  133MOL    C3839902   0.516   0.018   1.228  0.1176  0.4128  0.4124
  133MOL    N3939903   0.469   0.088   1.336 -0.2830 -0.0123 -0.7565
  133MOL    H4039904   0.325   0.158   1.636 -0.4470  0.3217  1.2474
  133MOL    H4139905   0.483   0.084   1.600  1.6981  1.3964 -0.8748
  133MOL    H4239906   0.536   0.337   1.519  1.1115 -1.0431 -0.5224
  133MOL    H4339907   0.594   0.389   1.282  0.7732 -0.4142 -2.2786
  133MOL    H4439908   0.670   0.274   1.075 -0.4606  0.4724  0.5812
  133MOL    H4539909   0.626   0.035   1.041  1.0915  0.8347 -0.5807
  133MOL    H4639910   0.498   8.064   1.232 -0.8721  0.4987 -1.1621
  133MOL    C4739911   0.320   0.343   1.455 -0.1384  0.0626 -0.0843
  133MOL    C4839912   0.274   0.461   1.539 -0.2183 -0.0366 -0.0084
  133MOL    C4939913   0.383   0.543   1.610 -0.7335  0.7380  0.8694
  133MOL    C5039914   0.374   0.573   1.748  1.0321  0.1105  0.3703
  133MOL    C5139915   0.460   0.673   1.796 -0.1834 -0.4430  0.5005
  133MOL    C5239916   0.547   0.734   1.701  0.5016 -0.4396 -0.2701
  133MOL    C5339917   0.554   0.680   1.568 -0.2829 -0.3201 -0.5583
  133MOL    N5439918   0.476   0.586   1.526 -0.1856 -0.1751 -0.0826
  133MOL    H5539919   0.243   0.268   1.441 -1.9360  1.5633  1.5287
  133MOL    H5639920   0.338   0.383   1.355  0.6620 -1.2371 -0.4698
  133MOL    H5739921   0.228   0.400   1.617  1.1236  0.1762  0.9598
  133MOL    H5839922   0.284   0.540   1.797  0.1038  0.6031 -0.9632
  133MOL    H5939923   0.457   0.702   1.900  1.1000 -0.3548  0.5327
  133MOL    H6039924   0.595   0.826   1.731 -0.2018  0.0981 -0.7690
  133MOL    H6139925   0.620   0.727   1.496  0.7729  0.0987  0.6537
  133MOL    C6239926   0.163   0.557   1.478  0.1077  0.0706  0.0452
  133MOL    C6339927   0.042   0.485   1.397 -0.5588 -0.7777 -1.0182
  133MOL    C6439928   8.101   0.405   1.489 -0.2972  0.1723 -0.6912
  133MOL    C6539929   8.116   0.265   1.503  0.0661  0.0317 -0.2724
  133MOL    C6639930   8.036   0.196   1.597  0.4636  0.1801 -0.2127
  133MOL    C6739931   7.941   0.270   1.673 -0.6421 -0.1708 -0.3762
  133MOL    C6839932   7.928   0.406   1.650 -0.8730 -0.3255  0.2987
  133MOL    N6939933   8.010   0.473   1.566 -0.2304 -0.2715  0.4938
  133MOL    H7039934   0.225   0.622   1.417  1.1810 -1.7545 -0.8349
  133MOL    H7139935   0.115   0.623   1.550 -0.0506 -0.7828  0.7359
  133MOL    H7239936   0.087   0.414   1.328 -0.1760  0.1143 -1.6924
  133MOL    H7339937   0.032   0.204   1.446 -0.5866 -2.0504  1.1073
  133MOL    H7439938   8.051   0.089   1.594 -0.7408 -0.1438  3.0674
  133MOL    H7539939   7.874   0.217   1.739 -0.3164 -3.2165 -2.3657
  133MOL    H7639940   7.862   0.463   1.713 -1.1129  1.9176 -1.9316
  133MOL    C7739941   8.112   0.582   1.305 -0.6694  0.0304 -0.4095
  133MOL    C7839942   0.038   0.662   1.189 -0.1932 -0.2165 -0.0866
  133MOL    C7939943   0.124   0.571   1.096 -0.4876 -0.0281 -1.2299
  133MOL    C8039944   0.268   0.574   1.106  0.3425 -0.0344  0.6806
  133MOL    C8139945   0.344   0.481   1.031 -0.2641  0.6857 -0.4630
  133MOL    C8239946   0.272   0.394   0.948 -0.4861 -0.2302  0.2589
  133MOL    C8339947   0.133   0.399   0.944  0.1130 -0.0343 -0.6150
  133MOL    N8439948   0.058   0.484   1.017  0.4295 -0.0557 -0.1945
  133MOL    H8539949   8.055   0.655   1.361 -2.1061 -0.5357 -1.0968
  133MOL    H8639950   8.041   0.518   1.252  0.2175 -0.3899 -1.1107
  133MOL    H8739951   0.115   0.727   1.230  0.5948 -0.9045 -0.4463
  133MOL    H8839952   0.318   0.650   1.164  0.5058  0.3233  0.0842
  133MOL    H8939953   0.451   0.477   1.042 -0.4640 -1.8260  1.1788
  133MOL    H9039954   0.313   0.319   0.882  0.6693  1.6248 -1.2008
  133MOL    H9139955   0.085   0.326   0.881  1.2733  0.3076 -1.9241
  133MOL    C9239956   8.081   0.745   1.111 -0.5297 -0.3961 -0.8052
  133MOL    C9339957   8.141   0.847   1.012 -0.2538 -0.4772 -0.1803
  133MOL    C9439958   8.021   0.915   0.942 -0.3855  0.1307 -0.4201
  133MOL    C9539959   7.991   0.897   0.810 -0.2878  0.5810 -0.2463
  133MOL    C9639960   7.881   0.960   0.758 -0.3443  0.2691  0.2951
  133MOL    C9739961   7.806   1.047   0.835 -0.1794  0.0671 -0.0043
  133MOL    C9839962   7.843   1.062   0.969 -0.4680  0.2266 -0.5933
  133MOL    N9939963   7.949   0.995   1.021 -0.0390 -0.0315  0.3333
  133MOL   H10039964   8.013   0.795   1.180 -2.6112 -1.9735 -1.6662
  133MOL   H10139965   8.015   0.674   1.061 -1.3954 -1.4954  1.7612
  133MOL   H10239966   0.047   0.793   0.937 -0.3874 -0.9270  0.0353
  133MOL   H10339967   8.060   0.835   0.755  1.9595  2.5154  0.3156
  133MOL   H10439968   7.845   0.956   0.656  1.8181 -0.4949 -0.4497
  133MOL   H10539969   7.713   1.090   0.801  0.0470 -1.9616 -3.4207
  133MOL   H10639970   7.787   1.122   1.040  0.2449 -0.4959  0.5962
  133MOL   C10739971   0.080   0.952   1.086 -0.5778 -0.4122  0.5736
  133MOL   C10839972   0.177   1.048   1.011 -0.5666 -0.0580 -0.5722
  133MOL   C10939973   0.245   0.968   0.896  0.7227 -0.0642  0.2825
  133MOL   C11039974   0.360   0.897   0.922  0.7417 -0.4267 -0.2594
  133MOL   C11139975   0.405   0.810   0.822 -0.4731 -0.3778  0.0155
  133MOL   C11239976   0.334   0.807   0.701 -0.3127 -0.3806  0.1082
  133MOL   C11339977   0.229   0.895   0.681 -0.7222  0.6098  0.2752
  133MOL   N11439978   0.181   0.969   0.779 -0.3455 -0.2089 -0.2613
  133MOL   H11539979   0.159   0.898   1.139  1.7676  1.3378 -1.0596
  133MOL   H11639980   0.022   1.005   1.162  0.5105  2.3056 -0.4373
  133MOL   H11739981   0.253   1.074   1.084  1.0525  0.2156 -2.3098
  133MOL   H11839982   0.399   0.905   1.022 -2.6592  0.8860  1.0375
  133MOL   H11939983   0.484   0.747   0.861 -0.9100 -0.7053  0.3883
  133MOL   H12039984   0.367   0.738   0.625 -0.3101  0.5353 -0.7163
  133MOL   H12139985   0.164   0.891   0.595  0.8870  1.7060 -1.0285
  133MOL   C12239986   0.112   1.185   0.974 -0.4721 -0.1035 -0.5752
  133MOL   C12339987   0.202   1.282   0.901  0.0652  0.3085  0.0076
  133MOL   C12439988   0.126   1.405   0.858  0.4022 -0.0037 -0.1423
  133MOL   C12539989   0.097   1.416   0.717  0.3974 -0.3930  0.7473
  133MOL   C12639990   0.027   1.530   0.673 -0.1416  0.0852 -0.0114
  133MOL   C12739991   8.137   1.627   0.764 -0.5717  0.6827 -0.1617
  133MOL   C12839992   0.012   1.601   0.905 -0.5210  0.2054  0.5369
  133MOL   N12939993   0.085   1.493   0.946  0.1552 -0.1366 -0.3318
  133MOL   H13039994   0.090   1.230   1.071 -2.8040  1.3222 -1.7166
  133MOL   H13139995   0.018   1.162   0.923 -2.2952 -0.5081  2.8164
  133MOL   H13239996   0.236   1.244   0.804  0.2256  0.5966 -0.0492
  133MOL   H13339997   0.128   1.332   0.657  0.1548 -0.3616  0.5751
  133MOL   H13439998   8.152   1.546   0.570  0.3539  2.6797  0.2294
  133MOL   H13539999   8.074   1.705   0.724 -1.8879 -1.2790 -2.0521
  133MOL   H13640000   8.127   1.672   0.977 -1.3577  0.8859 -0.5468
  133MOL   C13740001   0.340   1.308   0.971 -0.6672 -0.5269 -0.3779
  133MOL   C13840002   0.442   1.410   0.908  0.0684  0.4699  0.0514
  133MOL   C13940003   0.425   1.551   0.959 -0.6256 -0.1047  0.1412
  133MOL   C14040004   0.407   1.656   0.867  0.5788 -0.0910  0.2357
  133MOL   C14140005   0.402   1.789   0.912  0.4969 -0.2673  0.2476
  133MOL   C14240006   0.448   1.817   1.042 -0.1200  0.4534  0.4792
  133MOL   C14340007   0.473   1.707   1.122 -0.3921 -0.0118  0.1105
  133MOL   N14440008   0.454   1.578   1.092  0.4116  0.0933  0.4298
  133MOL   H14540009   0.390   1.211   0.971  1.2401  0.4382  0.7685
  133MOL   H14640010   0.325   1.333   1.076 -0.5712 -0.1493 -0.4566
  133MOL   H14740011   0.419   1.410   0.801 -0.4725 -0.4638  0.1637
  133MOL   H14840012   0.382   1.634   0.764  1.3607 -1.4209  0.3233
  133MOL   H14940013   0.387   1.875   0.849 -1.6958 -1.8472 -1.4882
  133MOL   H15040014   0.438   1.920   1.072  2.7500  1.0609 -0.4691
  133MOL   H15140015   0.505   1.734   1.221  1.1941  2.2026 -0.9597
  133MOL   C15240016   0.587   1.361   0.941 -0.0240  0.3195 -0.0258
  133MOL   C15340017   0.632   1.227   0.876  0.6810 -0.0875  0.2907
  133MOL   C15440018   0.611   1.234   0.726 -0.3890 -0.0158  0.3979
  133MOL   C15540019   0.529   1.140   0.666  0.2128  0.3333 -0.9837
  133MOL   C15640020   0.517   1.131   0.527  0.1899  0.0975  0.9358
  133MOL   C15740021   0.581   1.229   0.449 -1.2033 -0.8881  0.3298
  133MOL   C15840022   0.655   1.332   0.519  0.1233  0.0583  1.0972
  133MOL   N15940023   0.668   1.332   0.655 -0.2139  0.7184 -0.1902
  133MOL   H16040024   0.586   1.363   1.050 -0.2349  1.4786 -0.0444
  133MOL   H16140025   0.664   1.431   0.908  0.1176  0.0774 -0.2083
  133MOL   H16240026   0.571   1.147   0.918 -0.3510  1.2679  1.4219
  133MOL   H16340027   0.478   1.066   0.726 -0.0043  1.2542 -0.0399
  133MOL   H16440028   0.446   1.064   0.482  0.4730  0.7174 -0.4309
  133MOL   H16540029   0.568   1.229   0.342 -0.9271  1.0875  0.2701
  133MOL   H16640030   0.705   1.406   0.457 -0.9526 -0.2439 -0.1371
  133MOL   C16740031   0.775   1.190   0.924 -0.3133 -0.3824  0.3480
  133MOL   C16840032   0.860   1.096   0.836 -0.1715  0.3409  0.4716
  133MOL   C16940033   1.006   1.101   0.873  0.0769  0.2839 -0.3745
  133MOL   C17040034   1.101   1.142   0.777 -0.8003 -0.0462  0.2522
  133MOL   C17140035   1.232   1.147   0.815 -0.0751 -0.0182  0.0393
  133MOL   C17240036   1.264   1.116   0.948  0.3014  0.3155  0.3789
  133MOL   C17340037   1.166   1.078   1.036  0.4929  0.2624  0.1247
  133MOL   N17440038   1.036   1.071   1.000 -0.7233  1.0330 -0.1257
  133MOL   H17540039   0.779   1.163   1.029  0.3376 -0.2703  0.3538
  133MOL   H17640040   0.834   1.280   0.935 -0.1492 -0.7386  2.4820
  133MOL   H17740041   0.853   1.122   0.730  0.3340  3.3785  1.1472
  133MOL   H17840042   1.074   1.191   0.685 -1.7274 -0.1764  0.4488
  133MOL   H17940043   1.306   1.184   0.746 -0.4968 -1.0746 -0.9934
  133MOL   H18040044   1.368   1.125   0.977  0.3645  2.2674 -0.4100
  133MOL   H18140045   1.185   1.064   1.141 -0.0593 -0.8573  0.0823
  133MOL   C18240046   0.806   0.955   0.853 -0.1702 -0.1833  0.0027
  133MOL   C18340047   0.851   0.857   0.748  0.2494  0.5609  0.3311
  133MOL   C18440048   0.832   0.709   0.786  0.2046  0.0347  0.4687
  133MOL   C18540049   0.951   0.635   0.798 -0.3625 -0.8505 -0.5332
  133MOL   C18640050   0.936   0.498   0.804 -0.2944  0.9622 -0.2162
  133MOL   C18740051   0.806   0.442   0.807  0.5939 -0.3787  0.4559
  133MOL   C18840052   0.699   0.527   0.807  0.0320 -0.1420  0.2890
  133MOL   N18940053   0.709   0.658   0.795 -0.6420 -0.1158  0.5132
  133MOL   H19040054   0.698   0.961   0.867 -0.1514 -0.8879  0.4538
  133MOL   H19140055   0.841   0.915   0.948  0.9534  0.2132 -0.2347
  133MOL   H19240056   0.957   0.873   0.724  0.7817 -3.4638 -0.3891
  133MOL   H19340057   1.051   0.672   0.816 -1.6060  2.2728  0.2764
  133MOL   H19440058   1.022   0.433   0.800 -1.0187 -0.0246  0.0345
  133MOL   H19540059   0.786   0.337   0.818 -2.3837  0.1914  0.9415
  133MOL   H19640060   0.597   0.494   0.799  0.5783 -1.7324 -0.2727
  133MOL   C19740061   0.791   0.887   0.611 -0.3623 -0.3660 -0.1900
  133MOL   C19840062   0.853   0.809   0.497  0.3814 -0.1576 -0.0300
  133MOL   C19940063   0.744   0.783   0.387  0.3269 -0.5820  0.1097
  133MOL   C20040064   0.674   0.661   0.392  0.3775 -0.0340 -0.1494
  133MOL   C20140065   0.577   0.638   0.291 -0.3719  0.0088 -1.1349
  133MOL   C20240066   0.551   0.741   0.203 -0.8465  0.2939  0.9317
  133MOL   C20340067   0.616   0.860   0.211  0.3108 -0.0461  0.3747
  133MOL   N20440068   0.707   0.890   0.312 -0.5231  0.6354  0.2808
  133MOL   H20540069   0.779   0.992   0.581  3.0912 -0.6182 -2.7821
  133MOL   H20640070   0.685   0.864   0.608 -0.1001 -1.4434 -2.5824
  133MOL   H20740071   0.875   0.710   0.536  1.1358 -0.9913 -2.5047
  133MOL   H20840072   0.710   0.582   0.456  1.3266  0.6852  0.2223
  133MOL   H20940073   0.533   0.541   0.276  1.5616 -1.0539 -0.1380
  133MOL   H21040074   0.469   0.743   0.133  0.1804 -0.8478 -0.3366
  133MOL   H21140075   0.579   0.943   0.154 -2.5450 -1.4561  0.1037
  133MOL   C21240076   0.979   0.889   0.439 -0.2079  0.0648  0.0367
  133MOL   C21340077   1.077   0.817   0.344  0.2981  0.1325 -0.4794
  133MOL   C21440078   1.168   0.926   0.276  0.1821  0.4971 -0.0548
  133MOL   C21540079   1.170   0.934   0.137 -0.2630 -0.2226  0.4739
  133MOL   C21640080   1.260   1.025   0.081  0.0247  0.5566  0.1924
  133MOL   C21740081   1.335   1.114   0.163  0.4720  0.3380 -0.5593
  133MOL   C21840082   1.323   1.096   0.301  0.6922  0.6975 -0.7727
  133MOL   N21940083   1.241   1.000   0.359  0.0709 -0.6769 -0.2221
  133MOL   H22040084   1.038   0.915   0.527  1.1551  0.4272 -0.9754
  133MOL   H22140085   0.953   0.989   0.406  0.4939  0.0908 -0.4495
  133MOL   H22240086   1.015   0.770   0.268  1.7986 -1.4681 -0.7601
  133MOL   H22340087   1.105   0.875   0.075  1.5355  0.4879 -2.1593
  133MOL   H22440088   1.273   1.033   8.126  0.4895 -0.3318  0.1810
  133MOL   H22540089   1.405   1.184   0.120  0.1973  0.4436 -0.8333
  133MOL   H22640090   1.385   1.148   0.373 -0.0288  0.4666  0.0307
  133MOL   C22740091   1.159   0.697   0.400  0.6285 -0.4479  0.3539
  133MOL   C22840092   1.242   0.611   0.300 -1.1444 -0.4579 -0.3466
  133MOL   C22940093   1.372   0.672   0.245 -0.3343  0.6263  0.5975
  133MOL   C23040094   1.393   0.681   0.106  0.6093  0.3993 -0.8429
  133MOL   C23140095   1.518   0.717   0.062 -0.9601  0.3334 -0.0746
  133MOL   C23240096   1.610   0.763   0.162  0.6483  0.9314 -0.4788
  133MOL   C23340097   1.581   0.749   0.299  0.0689 -0.7837 -0.3811
  133MOL   N23440098   1.464   0.703   0.341 -0.5842  0.2963  0.0875
  133MOL   H23540099   1.082   0.639   0.450 -0.2621  0.6477  0.2785
  133MOL   H23640100   1.219   0.748   0.476  0.2182  1.4834 -0.5773
  133MOL   H23740101   1.176   0.594   0.215 -0.0912  0.7883 -1.4280
  133MOL   H23840102   1.316   0.642   0.041  0.1437  0.5771 -0.4049
  133MOL   H23940103   1.543   0.711   8.108 -0.6464  1.5231 -0.0811
  133MOL   H24040104   1.707   0.797   0.130  0.2114  1.2303 -1.5184
  133MOL   H24140105   1.652   0.774   0.377 -0.2989 -0.0268 -0.2930
  133MOL   C24240106   1.272   0.471   0.375 -0.4687 -0.2858  0.7918
  133MOL   C24340107   1.368   0.372   0.296  0.4627  0.8110 -0.5337
  133MOL   C24440108   1.387   0.241   0.366  0.0127  0.6291  0.0557
  133MOL   C24540109   1.515   0.183   0.370 -0.4685 -0.0220 -0.4947
  133MOL   C24640110   1.528   0.060   0.432  0.8902  0.0720 -0.5736
  133MOL   C24740111   1.414   8.150   0.492 -0.5882  0.4952  0.0937
  133MOL   C24840112   1.293   0.071   0.487  0.0154 -0.6400 -0.4547
  133MOL   N24940113   1.284   0.187   0.425  0.0085 -0.1636 -0.1166
  133MOL   H25040114   1.175   0.431   0.404 -0.5250 -0.2843  0.6051
  133MOL   H25140115   1.317   0.486   0.473  1.5860  0.0376 -0.1586
  133MOL   H25240116   1.467   0.419   0.297  0.0794  1.6312  0.1586
  133MOL   H25340117   1.605   0.232   0.335  1.1603 -1.1546  1.9997
  133MOL   H25440118   1.622   0.007   0.435  1.3803  0.9059 -1.0160
  133MOL   H25540119   1.427   8.055   0.541  2.0375 -0.4385 -2.3006
  133MOL   H25640120   1.198   0.029   0.515  0.3010 -1.5962 -0.9158
  133MOL   C25740121   1.346   0.338   0.144 -0.1460  0.6828  0.5658
  133MOL   C25840122   1.204   0.286   0.089 -0.2301  0.6955 -1.5469
  133MOL   C25940123   1.102   0.401   0.096 -0.1879  0.5191 -0.5221
  133MOL   C26040124   0.990   0.393   0.179 -0.1812  0.2672  0.4422
  133MOL   C26140125   0.896   0.498   0.181 -0.0544  0.0706  0.1414
  133MOL   C26240126   0.914   0.601   0.083  0.4144  0.0301  0.4894
  133MOL   C26340127   1.023   0.593   8.146  1.1555  0.2584  0.6365
  133MOL   N26440128   1.112   0.494   0.001 -0.0142  0.5012 -0.4942
  133MOL   H26540129   1.419   0.259   0.124 -3.1547 -2.2262  0.6677
  133MOL   H26640130   1.373   0.423   0.081 -0.6107  0.0455 -0.5085
  133MOL   H26740131   1.170   0.202   0.150 -1.6155  0.8943 -2.0397
  133MOL   H26840132   0.973   0.315   0.252 -0.4963 -0.6863 -0.6218
  133MOL   H26940133   0.813   0.506   0.250  0.4456  0.9141  0.6513
  133MOL   H27040134   0.840   0.679   0.075  0.7175  0.4053  1.3086
  133MOL   H27140135   1.025   0.657   8.059  0.9541 -0.3688  0.1672
  133MOL   C27240136   1.222   0.222   8.102 -0.7168  0.2372 -0.2000
  133MOL   C27340137   1.091   0.184   8.033 -0.0851 -0.1756  0.1256
  133MOL   C27440138   1.114   0.206   7.892 -0.6410  0.1855 -0.0126
  133MOL   C27540139   1.039   0.303   7.828 -0.3359 -0.6763  0.6145
  133MOL   C27640140   1.059   0.318   7.687 -0.6260  0.3378  0.1509
  133MOL   C27740141   1.151   0.239   7.621 -0.3730  0.5990  0.0718
  133MOL   C27840142   1.220   0.141   7.696  0.5183 -0.0004 -0.3564
  133MOL   N27940143   1.194   0.120   7.827 -0.8642 -0.1635 -0.6147
  133MOL   H28040144   1.299   0.145   8.105 -2.5812 -1.6426  1.3231
  133MOL   H28140145   1.271   0.295   8.037 -1.7393  0.3838 -0.8067
  133MOL   H28240146   1.013   0.256   8.057 -0.0703 -1.2967  3.8024
  133MOL   H28340147   0.984   0.377   7.885  2.3708  3.6234 -2.0462
  133MOL   H28440148   1.010   0.402   7.639  0.0481 -0.0761 -1.2804
  133MOL   H28540149   1.175   0.256   7.517  0.0416  0.7841  0.1986
  133MOL   H28640150   1.284   0.066   7.651  1.3789  0.1064  0.6722
  133MOL   C28740151   1.036   0.043   8.059 -0.1591  0.3946  0.4156
  133MOL   C28840152   1.005   0.014   0.056  0.3974  0.0606  0.7581
  133MOL   C28940153   0.950   8.024   0.074 -0.4666 -0.3375  0.2768
  133MOL   C29040154   0.951   7.923   8.123 -0.3324 -0.4782  0.2351
  133MOL   C29140155   0.886   7.802   8.149  0.4795  0.3000 -0.0788
  133MOL   C29240156   0.832   7.784   0.122 -0.1044  1.2044 -0.4238
  133MOL   C29340157   0.840   7.887   0.214  0.2894 -0.1583 -0.4545
  133MOL   N29440158   0.894   8.010   0.197 -0.7519  0.4360 -0.2871
  133MOL   H29540159   1.113   8.124   8.029  1.1965  1.5946  1.0183
  133MOL   H29640160   0.949   0.038   7.993  0.4542 -0.4538 -0.3287
  133MOL   H29740161   0.934   0.085   0.097 -0.6969 -0.3929 -0.3411
  133MOL   H29840162   0.991   7.936   8.024 -0.9660 -1.0756 -0.1016
  133MOL   H29940163   0.881   7.722   8.076 -1.8224 -0.0937  0.4514
  133MOL   H30040164   0.785   7.691   0.148  0.5456  0.4170 -2.0273
  133MOL   H30140165   0.798   7.876   0.313  1.6341  1.1907  0.2921
  133MOL   H30240166   1.091   0.016   0.123  1.3380  1.5191 -0.4393
  134MOL     C140167   6.247   3.079   7.288 -0.1179  0.3676  0.2523
  134MOL     C240168   6.364   3.037   7.379 -0.4769  0.3013 -0.7300
  134MOL     C340169   6.327   2.977   7.512  0.1357  0.1092  0.2958
  134MOL     C440170   6.370   3.022   7.637  0.4100 -0.2088 -0.7871
  134MOL     C540171   6.331   2.952   7.750  0.3650 -0.5359 -0.2736
  134MOL     C640172   6.252   2.835   7.736 -0.3698 -0.7743  0.1047
  134MOL     C740173   6.227   2.786   7.609  0.3099 -0.2079  0.2173
  134MOL     N840174   6.263   2.853   7.500 -0.6113 -0.3560 -1.0209
  134MOL     H940175   6.263   3.158   7.214 -0.2727  0.7729  0.6489
  134MOL    H1040176   6.212   2.991   7.234  1.7489 -0.5943  0.5670
  134MOL    H1140177   6.407   3.131   7.414 -0.1841  0.3995 -1.3405
  134MOL    H1240178   6.427   3.114   7.644  0.2636 -0.2431  1.0516
  134MOL    H1340179   6.349   2.990   7.850 -2.2837  0.2757 -0.0513
  134MOL    H1440180   6.220   2.776   7.821  1.1424  0.4215  1.5332
  134MOL    H1540181   6.181   2.689   7.606  0.1750 -0.2770  3.0527
  134MOL    H1640182   6.173   3.129   7.350  1.0782  3.1079 -0.4457
  134MOL    C1740183   6.478   2.964   7.307 -0.3242  0.1850 -0.3084
  134MOL    C1840184   6.546   3.052   7.198  0.8022 -0.0926 -0.2211
  134MOL    C1940185   6.612   3.176   7.258 -0.2836 -0.2786 -0.7974
  134MOL    C2040186   6.571   3.307   7.229  0.3829 -0.1771  0.0636
  134MOL    C2140187   6.628   3.418   7.290  0.4581 -0.3608  0.2299
  134MOL    C2240188   6.729   3.399   7.379 -0.2457  0.1116  0.8166
  134MOL    C2340189   6.766   3.270   7.418  0.0555  0.4551  0.0482
  134MOL    N2440190   6.705   3.158   7.358 -0.4050 -0.2465 -0.5406
  134MOL    H2540191   6.444   2.880   7.247  0.7128  0.4126 -1.2489
  134MOL    H2640192   6.546   2.914   7.377 -0.1441  0.6789 -0.1263
  134MOL    H2740193   6.470   3.081   7.125  0.6435 -0.8051 -0.3480
  134MOL    H2840194   6.505   3.325   7.146  1.5036 -0.2005 -0.8467
  134MOL    H2940195   6.598   3.520   7.271 -2.3524 -0.7214  2.3102
  134MOL    H3040196   6.782   3.480   7.427 -2.8073 -0.0529  4.0822
  134MOL    H3140197   6.816   3.249   7.511  1.5104 -0.5404 -0.9501
  134MOL    C3240198   6.648   2.975   7.102 -0.0044  0.6046  0.0632
  134MOL    C3340199   6.592   2.879   7.001  0.4561 -0.0519  0.1410
  134MOL    C3440200   6.505   2.946   6.896  0.1169 -0.9915  0.1337
  134MOL    C3540201   6.364   2.956   6.905  0.0870 -0.2824  0.3399
  134MOL    C3640202   6.286   3.018   6.806 -0.2116 -0.5696  1.1922
  134MOL    C3740203   6.354   3.067   6.697 -0.6715  0.7318 -0.0442
  134MOL    C3840204   6.492   3.069   6.696 -0.0471 -0.1843  0.0776
  134MOL    N3940205   6.568   3.010   6.793 -0.2858 -0.1342  0.3592
  134MOL    H4040206   6.719   2.925   7.168  1.0851 -2.0304 -2.9835
  134MOL    H4140207   6.693   3.061   7.054  1.4781  1.3891  2.7497
  134MOL    H4240208   6.522   2.819   7.058  1.4507 -0.8230  0.5735
  134MOL    H4340209   6.315   2.917   6.993 -1.2485 -2.5574 -1.3379
  134MOL    H4440210   6.179   3.031   6.808  0.1216  3.0177 -0.1912
  134MOL    H4540211   6.302   3.122   6.619  1.8781  0.3892 -2.0513
  134MOL    H4640212   6.546   3.119   6.618  2.0109 -2.6477 -0.1689
  134MOL    C4740213   6.701   2.784   6.948 -0.7804  0.9745 -0.1141
  134MOL    C4840214   6.744   2.669   7.046 -0.2151  0.7078 -0.0260
  134MOL    C4940215   6.633   2.566   7.041  0.0998 -0.7149  0.3474
  134MOL    C5040216   6.540   2.561   7.143  0.2420 -0.0816 -0.0749
  134MOL    C5140217   6.424   2.479   7.135 -0.4453 -0.3314 -0.0990
  134MOL    C5240218   6.413   2.404   7.018  0.1022 -0.2648  0.8686
  134MOL    C5340219   6.512   2.410   6.921  0.4115 -0.3687 -0.2487
  134MOL    N5440220   6.620   2.492   6.929 -0.7806  0.3967  0.2183
  134MOL    H5540221   6.791   2.841   6.923 -0.8428  0.5066 -1.4481
  134MOL    H5640222   6.669   2.747   6.850 -0.4434 -1.0741  0.5325
  134MOL    H5740223   6.747   2.709   7.148  1.0696  1.2601 -0.2710
  134MOL    H5840224   6.555   2.626   7.228 -0.4566 -0.4931  0.3700
  134MOL    H5940225   6.351   2.463   7.213 -0.6423 -0.1314 -0.2464
  134MOL    H6040226   6.324   2.343   7.006  0.8117 -1.5391  1.8965
  134MOL    H6140227   6.497   2.366   6.824 -1.2525 -1.5093  0.4938
  134MOL    C6240228   6.889   2.604   7.015 -0.5045  0.1236  0.2813
  134MOL    C6340229   7.013   2.696   7.007 -0.9120 -0.2759  0.3384
  134MOL    C6440230   7.024   2.779   7.132  0.0804  0.2819  0.1812
  134MOL    C6540231   7.005   2.914   7.134 -0.0193  0.2822 -0.3953
  134MOL    C6640232   7.023   2.979   7.259 -0.4888  0.8172 -0.4754
  134MOL    C6740233   7.040   2.908   7.377  0.0221 -0.3220 -0.2809
  134MOL    C6840234   7.057   2.771   7.356  0.1668 -0.7642  0.4151
  134MOL    N6940235   7.043   2.700   7.241 -0.2307 -0.0563  0.2059
  134MOL    H7040236   6.877   2.553   6.919 -0.2925 -2.0868  1.3955
  134MOL    H7140237   6.914   2.537   7.097 -0.8781  0.0933  0.3681
  134MOL    H7240238   7.002   2.762   6.921  0.3430  0.1022  0.4620
  134MOL    H7340239   6.984   2.963   7.040  1.9102 -1.3096 -1.6991
  134MOL    H7440240   7.013   3.086   7.261 -0.9268  0.8135 -1.7386
  134MOL    H7540241   7.056   2.961   7.470  2.6291 -0.4634 -0.5994
  134MOL    H7640242   7.074   2.718   7.448  2.9294  1.4634  1.2737
  134MOL    C7740243   7.140   2.612   6.964  0.6436  0.2561 -0.8453
  134MOL    C7840244   7.147   2.543   6.828 -0.2626  0.2117 -0.9512
  134MOL    C7940245   7.120   2.638   6.712  0.1045 -0.2437 -0.5786
  134MOL    C8040246   6.994   2.639   6.650 -0.0637 -0.4668 -0.0877
  134MOL    C8140247   6.970   2.732   6.545  0.5818 -0.1036 -0.7629
  134MOL    C8240248   7.074   2.817   6.504 -0.3284 -0.5945 -0.4733
  134MOL    C8340249   7.199   2.814   6.567  0.4780  0.0647 -0.1123
  134MOL    N8440250   7.218   2.721   6.667  0.2611  0.2310  0.2649
  134MOL    H8540251   7.160   2.532   7.036  0.6326  1.5778  0.6655
  134MOL    H8640252   7.224   2.680   6.947 -0.4901  2.6351  2.4382
  134MOL    H8740253   7.070   2.467   6.831  1.0421 -1.1120  2.5260
  134MOL    H8840254   6.916   2.569   6.673  0.2865 -0.3458  1.5588
  134MOL    H8940255   6.873   2.737   6.498 -0.5804 -2.1643  1.3129
  134MOL    H9040256   7.057   2.892   6.428 -1.6386  1.5054  1.8176
  134MOL    H9140257   7.285   2.871   6.536  0.8373 -0.8960 -0.9324
  134MOL    C9240258   7.281   2.465   6.815 -0.0286  0.5002  0.0089
  134MOL    C9340259   7.297   2.391   6.680  1.0338  0.1512  0.3751
  134MOL    C9440260   7.444   2.371   6.651  0.4856  0.7654 -0.0739
  134MOL    C9540261   7.509   2.451   6.550  0.9224 -0.1308  0.4964
  134MOL    C9640262   7.645   2.430   6.527  0.1914 -0.4393  0.1248
  134MOL    C9740263   7.710   2.332   6.600 -0.6695  0.7686  0.1768
  134MOL    C9840264   7.640   2.256   6.699  0.1891  0.2626  0.1212
  134MOL    N9940265   7.509   2.281   6.729 -0.0950 -0.2140  0.3972
  134MOL   H10040266   7.309   2.407   6.903  1.1128  2.4851  0.9912
  134MOL   H10140267   7.356   2.543   6.804  0.4705  0.0713  0.3422
  134MOL   H10240268   7.254   2.454   6.602 -1.7871 -1.3910  0.6349
  134MOL   H10340269   7.458   2.527   6.493 -0.5496  0.9364  3.1488
  134MOL   H10440270   7.697   2.482   6.448  0.9165  2.5723  2.5207
  134MOL   H10540271   7.806   2.287   6.583 -1.2361 -0.1670 -0.5491
  134MOL   H10640272   7.681   2.179   6.763 -0.4876  0.6290  1.0216
  134MOL   C10740273   7.207   2.266   6.670 -0.1289 -0.0246  0.3078
  134MOL   C10840274   7.223   2.176   6.548 -0.1115 -0.1017  0.6620
  134MOL   C10940275   7.248   2.033   6.582 -1.0642  0.2957 -0.1547
  134MOL   C11040276   7.377   1.982   6.590  0.2817 -0.0928 -0.5531
  134MOL   C11140277   7.392   1.846   6.623  0.2553  0.2981  0.3005
  134MOL   C11240278   7.285   1.771   6.672  0.3002 -0.3128  0.6489
  134MOL   C11340279   7.162   1.838   6.674  0.1506  0.5268 -0.4315
  134MOL   N11440280   7.142   1.961   6.629 -0.2165  0.0165 -0.4213
  134MOL   H11540281   7.103   2.296   6.684 -0.8702 -1.4108 -1.8993
  134MOL   H11640282   7.229   2.210   6.761 -0.6120  0.2567  0.5984
  134MOL   H11740283   7.309   2.195   6.483 -0.8678 -0.7702 -0.5501
  134MOL   H11840284   7.465   2.043   6.575 -0.1112  0.4316 -0.7381
  134MOL   H11940285   7.494   1.810   6.621 -0.0696 -0.5597 -1.3248
  134MOL   H12040286   7.306   1.669   6.701 -0.3653 -0.4420  0.6793
  134MOL   H12140287   7.070   1.783   6.694  0.0473  0.8059 -0.1468
  134MOL   C12240288   7.093   2.186   6.454  0.0442  0.1404  0.3458
  134MOL   C12340289   7.066   2.301   6.362 -0.2619  0.2627  0.1264
  134MOL   C12440290   7.195   2.328   6.280 -0.2466 -0.0334 -0.5109
  134MOL   C12540291   7.250   2.457   6.283 -0.0999  0.7721 -0.3756
  134MOL   C12640292   7.371   2.471   6.212  0.1636 -0.8362  0.6197
  134MOL   C12740293   7.418   2.366   6.135  0.3043 -0.7273 -0.1074
  134MOL   C12840294   7.354   2.250   6.130  0.1801 -0.3838 -0.0654
  134MOL   N12940295   7.246   2.222   6.208  0.2756  0.3985  0.3189
  134MOL   H13040296   7.012   2.172   6.526  0.3067  0.0472  0.6228
  134MOL   H13140297   7.089   2.090   6.404 -0.5493 -0.9776  2.4671
  134MOL   H13240298   7.055   2.392   6.422 -0.4264  0.5345 -0.3147
  134MOL   H13340299   7.200   2.537   6.336 -0.2595  0.3425  0.1259
  134MOL   H13440300   7.428   2.562   6.213 -0.1239 -0.6562  1.1823
  134MOL   H13540301   7.506   2.365   6.072 -0.1012 -1.4247 -0.6832
  134MOL   H13640302   7.391   2.169   6.068 -0.0133 -0.4655 -0.0747
  134MOL   C13740303   6.952   2.275   6.259  0.3300 -0.0065 -0.5910
  134MOL   C13840304   6.816   2.334   6.265 -0.5224 -0.9131  0.4350
  134MOL   C13940305   6.749   2.291   6.395  0.0281 -0.4271  0.6778
  134MOL   C14040306   6.625   2.222   6.395  0.1028  0.0564  0.3515
  134MOL   C14140307   6.569   2.178   6.517  0.5537 -0.6727 -0.6915
  134MOL   C14240308   6.639   2.207   6.636  0.0570  0.3580 -0.7946
  134MOL   C14340309   6.747   2.296   6.633 -0.3920  0.3492 -0.2487
  134MOL   N14440310   6.799   2.337   6.515  0.3012 -0.3830  0.3416
  134MOL   H14540311   6.946   2.167   6.252 -1.9739  0.2158 -2.6518
  134MOL   H14640312   6.974   2.296   6.154  1.0969 -0.5609 -0.5474
  134MOL   H14740313   6.767   2.297   6.174 -1.8428 -0.6237  1.0107
  134MOL   H14840314   6.572   2.195   6.304  1.2811  0.3734 -0.4389
  134MOL   H14940315   6.479   2.122   6.533  1.6033 -1.8667  1.1159
  134MOL   H15040316   6.608   2.158   6.726  4.1259 -3.0315 -1.0814
  134MOL   H15140317   6.801   2.323   6.723  1.5728  0.4590 -1.4200
  134MOL   C15240318   6.822   2.495   6.255  0.1551  0.4920  0.3288
  134MOL   C15340319   6.692   2.567   6.230  0.1558  0.2517 -0.0209
  134MOL   C15440320   6.708   2.714   6.265  0.0130  0.5114  0.0758
  134MOL   C15540321   6.643   2.763   6.379  0.3393  0.3090 -0.6345
  134MOL   C15640322   6.677   2.890   6.422 -0.0618 -0.6520  0.8657
  134MOL   C15740323   6.761   2.965   6.338 -0.1221  0.2975 -0.0366
  134MOL   C15840324   6.818   2.913   6.222 -0.1513 -0.2300 -0.3868
  134MOL   N15940325   6.792   2.788   6.187 -0.5961  0.4416  0.3285
  134MOL   H16040326   6.887   2.531   6.174 -2.3161 -0.1435 -2.0023
  134MOL   H16140327   6.873   2.532   6.344 -1.3094  0.9959  0.9690
  134MOL   H16240328   6.621   2.536   6.306 -0.9733  1.0405 -0.7259
  134MOL   H16340329   6.589   2.696   6.444 -0.1069  0.5176 -0.7840
  134MOL   H16440330   6.642   2.924   6.519 -1.0429 -2.0413  1.0190
  134MOL   H16540331   6.795   3.060   6.378 -4.2377  0.4980  3.3077
  134MOL   H16640332   6.874   2.969   6.150  0.7721 -0.5034  0.1085
  134MOL   C16740333   6.628   2.539   6.089  0.4467  0.6077 -0.6375
  134MOL   C16840334   6.485   2.597   6.062  0.1515 -0.4263  0.1758
  134MOL   C16940335   6.459   2.625   5.914 -0.1726  0.4181 -0.3046
  134MOL   C17040336   6.436   2.758   5.871 -0.9337 -0.4600 -0.2952
  134MOL   C17140337   6.367   2.777   5.751  0.1276 -0.5034 -0.2140
  134MOL   C17240338   6.353   2.662   5.670  0.4808  0.2810 -0.2532
  134MOL   C17340339   6.393   2.538   5.718 -0.3471 -0.2754  0.1397
  134MOL   N17440340   6.449   2.517   5.837  0.1286 -0.6691 -0.3222
  134MOL   H17540341   6.623   2.433   6.063  0.0201 -0.5918  3.9878
  134MOL   H17640342   6.687   2.592   6.014 -2.8687  2.4235 -2.0537
  134MOL   H17740343   6.478   2.694   6.111 -0.9535 -0.9823  1.1531
  134MOL   H17840344   6.465   2.837   5.938  0.1789 -1.9636  1.0545
  134MOL   H17940345   6.319   2.870   5.724  2.2129  0.2322 -1.4842
  134MOL   H18040346   6.304   2.670   5.575 -0.8915  1.7338  0.5434
  134MOL   H18140347   6.381   2.451   5.654  0.8417 -0.7965  0.6178
  134MOL   C18240348   6.374   2.512   6.126 -0.0015 -0.2657 -0.4134
  134MOL   C18340349   6.256   2.595   6.189 -0.3612 -0.5253 -0.2779
  134MOL   C18440350   6.179   2.677   6.080 -0.5289 -0.3348 -0.8997
  134MOL   C18540351   6.166   2.814   6.100 -0.0676 -0.5120 -0.3938
  134MOL   C18640352   6.108   2.891   5.990 -0.1709 -0.3058 -1.2793
  134MOL   C18740353   6.050   2.824   5.887  0.4165 -0.2816  0.3803
  134MOL   C18840354   6.052   2.686   5.887 -0.1654 -0.9260  0.1449
  134MOL   N18940355   6.121   2.612   5.981  0.4584  0.2149  0.2353
  134MOL   H19040356   6.420   2.440   6.194 -1.0636  0.2867  0.9030
  134MOL   H19140357   6.334   2.443   6.051 -1.8468  0.9892 -0.6204
  134MOL   H19240358   6.305   2.666   6.255  0.2534 -1.6114  0.4419
  134MOL   H19340359   6.205   2.869   6.185 -0.3891  1.7209 -1.6328
  134MOL   H19440360   6.094   2.998   6.000  0.5353 -0.4683  2.2994
  134MOL   H19540361   5.995   2.887   5.820 -0.1826  0.1751  1.2992
  134MOL   H19640362   6.013   2.631   5.803 -1.3192 -0.5363  0.4273
  134MOL   C19740363   6.156   2.509   6.266 -0.2563 -0.0198  0.9902
  134MOL   C19840364   6.210   2.421   6.387  0.0279 -0.5287  0.5728
  134MOL   C19940365   6.273   2.501   6.500  0.1649  1.0059 -0.5518
  134MOL   C20040366   6.406   2.488   6.526  0.1941  0.6701  0.7463
  134MOL   C20140367   6.459   2.560   6.633 -0.2022  0.1179  0.1638
  134MOL   C20240368   6.381   2.647   6.703  0.2728 -0.4100 -0.4682
  134MOL   C20340369   6.244   2.659   6.666 -0.7133  0.0894 -0.8860
  134MOL   N20440370   6.193   2.577   6.573  0.2229 -0.0796 -0.0079
  134MOL   H20540371   6.100   2.444   6.199  1.3618 -0.7818  0.3582
  134MOL   H20640372   6.082   2.576   6.310 -0.4763  1.0916 -1.0273
  134MOL   H20740373   6.282   2.354   6.341 -0.3520 -0.0238 -0.7887
  134MOL   H20840374   6.472   2.445   6.452 -0.5725  0.6953  0.0470
  134MOL   H20940375   6.566   2.556   6.648 -0.0756 -1.3554 -0.9713
  134MOL   H21040376   6.426   2.718   6.771  0.7345 -0.4874 -0.6941
  134MOL   H21140377   6.180   2.733   6.711  0.2771  1.6391 -1.9725
  134MOL   C21240378   6.095   2.333   6.433  0.5680  0.2234 -0.1798
  134MOL   C21340379   6.034   2.218   6.351 -0.3276 -0.5748  0.1307
  134MOL   C21440380   6.132   2.105   6.330 -0.3817  0.5632  0.1391
  134MOL   C21540381   6.202   2.092   6.211  0.4341 -1.0184  0.3773
  134MOL   C21640382   6.284   1.975   6.189  0.5604 -0.1363  0.4048
  134MOL   C21740383   6.303   1.890   6.301  0.4101  0.2261  0.3055
  134MOL   C21840384   6.239   1.918   6.420 -0.3254 -0.1488  0.2711
  134MOL   N21940385   6.158   2.026   6.440 -0.2576 -0.5637  0.0828
  134MOL   H22040386   6.024   2.406   6.473  0.4604  0.9231 -1.6145
  134MOL   H22140387   6.126   2.286   6.526  0.5997  0.1430 -0.2306
  134MOL   H22240388   6.020   2.251   6.249  0.3192  1.1759  0.5833
  134MOL   H22340389   6.180   2.161   6.132 -2.9566 -0.2307  1.8994
  134MOL   H22440390   6.339   1.959   6.097  0.3633 -2.0333  0.6152
  134MOL   H22540391   6.372   1.807   6.300 -2.7995 -2.5712 -2.6136
  134MOL   H22640392   6.251   1.853   6.506  0.2537  1.2699  1.2890
  134MOL   C22740393   5.894   2.174   6.405  0.2168 -0.3537  0.7992
  134MOL   C22840394   5.779   2.273   6.393  0.3968  0.0282  0.2523
  134MOL   C22940395   5.742   2.313   6.254  0.4427  0.3803  0.5681
  134MOL   C23040396   5.778   2.447   6.202 -0.0350  0.5773 -0.1183
  134MOL   C23140397   5.738   2.480   6.076  0.0820 -0.7037  0.3920
  134MOL   C23240398   5.661   2.389   5.999 -0.0826 -0.6162  0.7560
  134MOL   C23340399   5.632   2.264   6.055 -1.0285  0.0887  0.5036
  134MOL   N23440400   5.661   2.229   6.183  0.2828 -0.4055  0.7277
  134MOL   H23540401   5.900   2.138   6.508  0.0296  0.3857  1.0700
  134MOL   H23640402   5.860   2.096   6.338  1.3076 -0.5388  0.4563
  134MOL   H23740403   5.822   2.364   6.437  0.6602  2.1595 -4.1167
  134MOL   H23840404   5.835   2.514   6.265  2.5916 -0.8761 -0.8648
  134MOL   H23940405   5.756   2.581   6.042  2.5153 -0.2408  2.8537
  134MOL   H24040406   5.627   2.398   5.897  0.3876  0.2056  0.6663
  134MOL   H24140407   5.577   2.188   6.002  0.7334 -0.4096 -0.6495
  134MOL   C24240408   5.651   2.236   6.472 -0.1377  0.3928 -0.0859
  134MOL   C24340409   5.631   2.255   6.625  0.3524 -0.2683 -0.5718
  134MOL   C24440410   5.639   2.398   6.675 -0.8320 -0.3011  0.2627
  134MOL   C24540411   5.714   2.439   6.791  0.0535  0.1046  0.1141
  134MOL   C24640412   5.717   2.575   6.822 -0.4268  0.0006  0.1756
  134MOL   C24740413   5.652   2.667   6.743 -0.1894  0.0856 -0.0133
  134MOL   C24840414   5.588   2.617   6.624  1.0261 -0.4186 -0.1832
  134MOL   N24940415   5.580   2.491   6.590  0.0516 -0.4692 -0.4063
  134MOL   H25040416   5.630   2.131   6.451 -1.2918  0.6015 -0.0415
  134MOL   H25140417   5.572   2.297   6.427 -0.0669  0.4934 -0.0735
  134MOL   H25240418   5.717   2.204   6.667  1.2582  0.8586 -1.0197
  134MOL   H25340419   5.784   2.375   6.843 -2.0155 -1.2455  1.3141
  134MOL   H25440420   5.777   2.603   6.907 -1.1341  0.5045  0.5116
  134MOL   H25540421   5.657   2.770   6.776  3.0006  0.5541 -1.6830
  134MOL   H25640422   5.509   2.666   6.570 -0.9074 -1.0272  2.0130
  134MOL   C25740423   5.494   2.187   6.680 -0.1891 -0.2618  0.0035
  134MOL   C25840424   5.357   2.251   6.643  0.3714 -0.3839  0.3020
  134MOL   C25940425   5.255   2.139   6.626 -0.6738 -0.4133 -0.4739
  134MOL   C26040426   5.213   2.105   6.498 -0.3096 -0.1731  0.1215
  134MOL   C26140427   5.120   2.005   6.487 -0.3637 -0.0104  0.0124
  134MOL   C26240428   5.081   1.934   6.596  0.8248  0.3101 -0.9669
  134MOL   C26340429   5.133   1.961   6.723  0.3416 -0.6124  0.3487
  134MOL   N26440430   5.220   2.066   6.741  0.0985 -0.3157  0.1061
  134MOL   H26540431   5.516   2.175   6.786  3.1980 -0.3695 -0.6657
  134MOL   H26640432   5.493   2.085   6.640  1.2683  0.3601 -1.6962
  134MOL   H26740433   5.369   2.298   6.545 -0.9431  1.3526  0.9436
  134MOL   H26840434   5.247   2.150   6.406 -0.6600 -0.1529  0.0042
  134MOL   H26940435   5.067   1.984   6.395 -0.7833  0.3122  0.1736
  134MOL   H27040436   5.019   1.846   6.593 -1.1971  1.7160 -0.8708
  134MOL   H27140437   5.108   1.916   6.819 -0.4395  0.6962  0.7711
  134MOL   C27240438   5.305   2.365   6.737 -0.1741  0.2363 -0.4899
  134MOL   C27340439   5.163   2.377   6.803 -0.4923  0.3550 -0.0682
  134MOL   C27440440   5.158   2.475   6.917  0.4736  0.0855  0.6550
  134MOL   C27540441   5.104   2.434   7.039 -0.0041  0.6978 -0.0572
  134MOL   C27640442   5.099   2.521   7.140 -0.2399 -0.3306 -0.7190
  134MOL   C27740443   5.139   2.657   7.119 -0.1755 -0.4342  0.2472
  134MOL   C27840444   5.194   2.695   6.992 -0.4013 -0.4673 -0.4930
  134MOL   N27940445   5.200   2.601   6.894  0.3099  0.5405  0.1570
  134MOL   H28040446   5.311   2.458   6.682  1.7134 -0.1907 -1.0164
  134MOL   H28140447   5.368   2.356   6.826  0.9353  0.2886 -1.2611
  134MOL   H28240448   5.150   2.277   6.844 -0.4608  1.6236  3.2002
  134MOL   H28340449   5.051   2.340   7.043 -1.2916  1.4139 -0.0114
  134MOL   H28440450   5.055   2.496   7.235 -1.3481  1.1660 -0.8015
  134MOL   H28540451   5.121   2.734   7.192  0.3736 -0.7140  0.6793
  134MOL   H28640452   5.221   2.796   6.964 -0.7748  0.3971  2.0866
  134MOL   C28740453   5.035   2.371   6.712 -0.4191 -0.5441 -0.4752
  134MOL   C28840454   5.037   2.480   6.606  0.4620 -0.0519 -0.1897
  134MOL   C28940455   4.922   2.461   6.510  0.0240  0.0415 -0.0862
  134MOL   C29040456   4.933   2.377   6.395  0.1192  0.1731 -0.7804
  134MOL   C29140457   4.823   2.360   6.307 -0.1340  0.4961  1.0408
  134MOL   C29240458   4.705   2.428   6.346 -0.0956  0.3337  0.2417
  134MOL   C29340459   4.703   2.510   6.464  0.1323 -0.4331  0.6346
  134MOL   N29440460   4.810   2.521   6.546 -0.4511  0.4327  0.2914
  134MOL   H29540461   4.947   2.387   6.775  0.0529 -0.8107  0.2483
  134MOL   H29640462   5.029   2.272   6.668  1.0897 -1.0090  0.3460
  134MOL   H29740463   5.126   2.458   6.548  1.9897  0.7886  1.7638
  134MOL   H29840464   5.030   2.334   6.374  0.8118  0.4021  1.8206
  134MOL   H29940465   4.825   2.288   6.227  0.7208 -0.8663  2.2512
  134MOL   H30040466   4.617   2.414   6.285  0.0881  2.3927 -0.5251
  134MOL   H30140467   4.613   2.564   6.488  0.1180  0.6733 -1.7826
  134MOL   H30240468   5.039   2.583   6.644 -0.8062  0.0022 -0.2381
  135MOL     C140469   2.360   3.097   3.917 -0.2716  0.0817 -0.1960
  135MOL     C240470   2.334   3.238   3.862  0.1211 -0.1395 -0.7799
  135MOL     C340471   2.346   3.343   3.971  0.0858  0.0790  0.0331
  135MOL     C440472   2.235   3.428   4.002  0.4245  0.0024  0.1024
  135MOL     C540473   2.250   3.516   4.106 -0.4348 -0.3476  0.5444
  135MOL     C640474   2.370   3.530   4.174 -0.3087  0.0245 -0.0783
  135MOL     C740475   2.470   3.442   4.137 -0.6457  0.0735 -0.4971
  135MOL     N840476   2.461   3.350   4.038  0.0094  0.3529  0.4160
  135MOL     H940477   2.455   3.098   3.971 -0.5200  0.2535  0.2385
  135MOL    H1040478   2.277   3.069   3.982 -0.7916  4.5460  1.2371
  135MOL    H1140479   2.229   3.233   3.833 -0.4723 -0.7338  1.4051
  135MOL    H1240480   2.144   3.415   3.946 -0.3073  0.2428  1.2138
  135MOL    H1340481   2.170   3.583   4.132 -0.4321 -0.0901 -0.0939
  135MOL    H1440482   2.389   3.604   4.250 -1.0807 -0.2847  0.4261
  135MOL    H1540483   2.560   3.454   4.195  0.7011 -1.4369 -2.2279
  135MOL    H1640484   2.362   3.020   3.840 -2.0495 -1.4348  1.2407
  135MOL    C1740485   2.443   3.270   3.753  0.2557 -0.1001 -0.0383
  135MOL    C1840486   2.418   3.211   3.605 -0.4498  0.7170 -0.2894
  135MOL    C1940487   2.275   3.215   3.559  0.5998  0.2680  0.2132
  135MOL    C2040488   2.208   3.096   3.522  0.1099  0.2744  0.1570
  135MOL    C2140489   2.074   3.111   3.464  0.0708  0.0849  0.6872
  135MOL    C2240490   2.014   3.237   3.455 -0.1610  0.2650  0.0482
  135MOL    C2340491   2.087   3.347   3.502 -0.0287 -0.4865  0.0559
  135MOL    N2440492   2.210   3.338   3.551 -0.0673  0.1263 -0.9781
  135MOL    H2540493   2.543   3.254   3.793  0.0296 -1.3463  0.0564
  135MOL    H2640494   2.449   3.378   3.748 -1.4882 -0.0562 -2.0975
  135MOL    H2740495   2.436   3.105   3.622 -1.1020  0.6200 -0.2000
  135MOL    H2840496   2.248   2.997   3.538 -2.1196 -0.8845 -1.1350
  135MOL    H2940497   2.026   3.021   3.428  0.9533 -0.5545  1.0828
  135MOL    H3040498   1.916   3.262   3.419 -0.2166  2.0505  1.3428
  135MOL    H3140499   2.037   3.442   3.498  0.3736 -0.2642  0.2963
  135MOL    C3240500   2.514   3.274   3.502 -0.0514 -0.0537 -0.1041
  135MOL    C3340501   2.657   3.207   3.498 -0.6343 -0.8159  0.6749
  135MOL    C3440502   2.654   3.058   3.462 -0.3030  0.1029 -0.1798
  135MOL    C3540503   2.734   2.964   3.525  0.3085 -0.0456  0.2838
  135MOL    C3640504   2.723   2.833   3.480 -0.9702 -0.1853  0.2603
  135MOL    C3740505   2.649   2.808   3.367  0.0521 -0.2294 -0.5073
  135MOL    C3840506   2.568   2.909   3.310 -0.3417  0.0681  0.2991
  135MOL    N3940507   2.571   3.036   3.356 -0.3423  0.8490 -0.3194
  135MOL    H4040508   2.507   3.383   3.493  0.0860  0.0328  0.8150
  135MOL    H4140509   2.468   3.240   3.409  2.0736  0.0937 -1.2409
  135MOL    H4240510   2.686   3.216   3.603 -1.7373  2.4539  0.7428
  135MOL    H4340511   2.786   2.986   3.618 -0.8181  1.2051  0.6435
  135MOL    H4440512   2.781   2.753   3.524 -0.4302 -0.5361 -1.0632
  135MOL    H4540513   2.649   2.709   3.325 -1.2282 -0.5570  0.2403
  135MOL    H4640514   2.504   2.892   3.224 -0.5281 -0.8685  0.6099
  135MOL    C4740515   2.754   3.288   3.409 -0.2267  0.6104  0.3485
  135MOL    C4840516   2.911   3.266   3.435 -0.3481  0.1547 -0.2709
  135MOL    C4940517   2.976   3.309   3.309  0.0754  0.3275  0.1817
  135MOL    C5040518   3.050   3.223   3.228  0.2669  0.4712  0.4459
  135MOL    C5140519   3.075   3.273   3.097 -1.2873 -0.0493 -0.1468
  135MOL    C5240520   3.049   3.405   3.063  0.5378 -0.5324  0.3118
  135MOL    C5340521   2.992   3.489   3.153 -0.4111  0.3540 -0.2287
  135MOL    N5440522   2.952   3.441   3.272 -0.6934  1.0102 -0.7301
  135MOL    H5540523   2.722   3.392   3.412 -0.8628  0.4351 -0.4282
  135MOL    H5640524   2.727   3.270   3.305  0.1427  0.3878  0.2907
  135MOL    H5740525   2.926   3.160   3.453 -0.8459 -0.1037 -1.3749
  135MOL    H5840526   3.066   3.118   3.245  0.4653 -0.0422 -2.5795
  135MOL    H5940527   3.132   3.210   3.031 -0.2174  0.1009  0.6227
  135MOL    H6040528   3.075   3.440   2.964 -0.6866 -1.5001 -0.3700
  135MOL    H6140529   2.978   3.594   3.131  2.9368  0.6047 -1.4904
  135MOL    C6240530   2.973   3.328   3.561 -0.0590  0.9633 -0.4465
  135MOL    C6340531   3.117   3.319   3.580 -0.3158 -0.5854  0.0554
  135MOL    C6440532   3.171   3.433   3.658  1.2181  0.9712 -0.7288
  135MOL    C6540533   3.279   3.499   3.606 -0.4494 -0.3723 -0.4951
  135MOL    C6640534   3.341   3.603   3.678  0.6880  0.0547 -0.4613
  135MOL    C6740535   3.278   3.641   3.801  0.3805 -0.0393  0.6751
  135MOL    C6840536   3.164   3.575   3.844  0.4844 -0.0477  0.2232
  135MOL    N6940537   3.112   3.470   3.773 -0.0245 -0.5522 -0.7069
  135MOL    H7040538   2.925   3.294   3.653  0.1408  1.1952 -0.2582
  135MOL    H7140539   2.936   3.431   3.564  0.8499  1.3275 -1.3751
  135MOL    H7240540   3.157   3.342   3.481  0.4989 -0.2521  0.4537
  135MOL    H7340541   3.324   3.466   3.513  0.8147 -1.6146  0.5382
  135MOL    H7440542   3.423   3.657   3.632 -1.1667  1.3656 -2.3020
  135MOL    H7540543   3.322   3.725   3.853  0.4163  0.3754 -0.0110
  135MOL    H7640544   3.116   3.595   3.939 -0.3193  0.2972 -0.2493
  135MOL    C7740545   3.166   3.180   3.628 -0.1839  0.8809  1.2421
  135MOL    C7840546   3.163   3.153   3.784 -0.3975 -0.5014  0.4439
  135MOL    C7940547   3.032   3.150   3.857  0.1285 -0.3418 -0.0546
  135MOL    C8040548   3.007   3.254   3.945 -0.1169  0.5807 -0.0512
  135MOL    C8140549   2.879   3.254   4.007  0.1587 -0.2541  0.4750
  135MOL    C8240550   2.781   3.175   3.958  0.7221  0.9041  0.7557
  135MOL    C8340551   2.823   3.069   3.881  1.5412 -0.3165  0.2436
  135MOL    N8440552   2.940   3.059   3.825  0.3634  0.5069 -0.0801
  135MOL    H8540553   3.266   3.168   3.586 -0.5623  0.0807  0.5497
  135MOL    H8640554   3.126   3.089   3.582  0.7161  0.1491  1.9060
  135MOL    H8740555   3.214   3.241   3.823  0.9406 -0.8867 -0.3981
  135MOL    H8840556   3.079   3.334   3.955 -1.4165  1.9524 -1.3336
  135MOL    H8940557   2.856   3.338   4.070  0.4249 -0.2983  0.6297
  135MOL    H9040558   2.678   3.187   3.986  0.2446  1.2050 -1.0510
  135MOL    H9140559   2.742   3.006   3.847  0.1056  0.5561  1.9384
  135MOL    C9240560   3.252   3.033   3.831 -0.2844  0.0776 -0.3381
  135MOL    C9340561   3.410   3.047   3.804 -0.2876  0.2123 -0.0234
  135MOL    C9440562   3.452   3.190   3.856  0.4619  0.5101  0.5836
  135MOL    C9540563   3.512   3.292   3.784 -0.3087 -0.0005  0.4980
  135MOL    C9640564   3.546   3.414   3.845  0.1212  0.1523 -0.2113
  135MOL    C9740565   3.518   3.433   3.984  0.0989  0.1259  0.5116
  135MOL    C9840566   3.472   3.316   4.048 -0.7422  0.2297 -0.3501
  135MOL    N9940567   3.442   3.198   3.990  0.5873  0.3212  0.0971
  135MOL   H10040568   3.208   2.939   3.797 -0.0567  0.4130 -1.5830
  135MOL   H10140569   3.243   3.027   3.940 -1.2846  1.4901 -0.3275
  135MOL   H10240570   3.415   3.051   3.695 -1.9387  2.0434 -0.0593
  135MOL   H10340571   3.536   3.288   3.679  1.1650 -1.7061  0.8672
  135MOL   H10440572   3.581   3.500   3.790  3.1915 -1.5503 -1.0250
  135MOL   H10540573   3.537   3.521   4.044 -1.4106  0.7869  0.0337
  135MOL   H10640574   3.447   3.318   4.153  1.4417 -0.3690  0.2186
  135MOL   C10740575   3.491   2.929   3.857 -0.1444 -0.3568  0.3888
  135MOL   C10840576   3.643   2.914   3.809  0.5379 -0.0437 -0.6031
  135MOL   C10940577   3.724   2.861   3.917  0.1642 -0.3498 -0.1667
  135MOL   C11040578   3.846   2.923   3.951  0.0387  0.4785  0.5389
  135MOL   C11140579   3.929   2.860   4.050 -0.3637 -0.5020  0.5283
  135MOL   C11240580   3.887   2.738   4.107 -0.0767 -0.0662  0.0042
  135MOL   C11340581   3.773   2.674   4.052  0.2196  0.4075  1.1894
  135MOL   N11440582   3.691   2.739   3.961 -0.3019 -0.2121  0.7684
  135MOL   H11540583   3.440   2.834   3.841 -2.9088  1.1182  0.0718
  135MOL   H11640584   3.491   2.931   3.966  1.9261  0.8458  0.3792
  135MOL   H11740585   3.674   3.019   3.801  0.4241  0.2110  1.9366
  135MOL   H11840586   3.878   3.013   3.901  0.4849 -0.1027 -0.2367
  135MOL   H11940587   4.026   2.897   4.079 -0.1538  0.7699 -1.6875
  135MOL   H12040588   3.942   2.672   4.174 -0.9393 -0.0239  0.7581
  135MOL   H12140589   3.739   2.582   4.097  0.1465 -1.4411 -2.4427
  135MOL   C12240590   3.649   2.835   3.676  0.5627 -0.0829  0.0553
  135MOL   C12340591   3.565   2.881   3.549 -0.0805 -0.3614 -0.1411
  135MOL   C12440592   3.578   3.027   3.500 -0.3408  0.0717 -0.0094
  135MOL   C12540593   3.697   3.096   3.531 -0.2167  0.7351  0.1559
  135MOL   C12640594   3.707   3.225   3.496  0.8801  0.4392 -0.3677
  135MOL   C12740595   3.598   3.284   3.434  0.3062  0.0451 -0.5673
  135MOL   C12840596   3.489   3.206   3.390 -0.3695  0.6090  0.6100
  135MOL   N12940597   3.478   3.078   3.425  0.2673  0.5526  0.1571
  135MOL   H13040598   3.630   2.730   3.696  0.6063  0.2859  2.1220
  135MOL   H13140599   3.751   2.831   3.639  0.2733  0.7373 -0.8390
  135MOL   H13240600   3.460   2.869   3.575 -0.2261  0.3648 -0.3869
  135MOL   H13340601   3.778   3.060   3.593 -2.1608 -0.2939  2.1333
  135MOL   H13440602   3.791   3.286   3.526 -0.6147  2.5075 -0.2831
  135MOL   H13540603   3.586   3.392   3.430 -2.0572 -0.2745 -3.8038
  135MOL   H13640604   3.404   3.248   3.339 -0.7346 -1.3872 -0.4793
  135MOL   C13740605   3.601   2.787   3.433 -0.5348 -0.1089  0.3018
  135MOL   C13840606   3.546   2.643   3.430  0.3833  0.0377 -0.1092
  135MOL   C13940607   3.397   2.642   3.449 -0.1837 -0.6277 -0.8289
  135MOL   C14040608   3.341   2.571   3.562 -0.2768 -0.0607 -0.1921
  135MOL   C14140609   3.206   2.574   3.578 -0.0332 -0.2838 -0.5935
  135MOL   C14240610   3.126   2.639   3.482 -0.0505 -0.5516 -0.4824
  135MOL   C14340611   3.188   2.713   3.382  0.3905 -0.3265  0.3027
  135MOL   N14440612   3.324   2.711   3.359  0.2848  0.2180  0.4025
  135MOL   H14540613   3.710   2.791   3.425 -0.5796  1.6301  0.2285
  135MOL   H14640614   3.567   2.838   3.343  0.3847  2.4726  1.3438
  135MOL   H14740615   3.567   2.593   3.525  0.0121 -2.4640 -1.3151
  135MOL   H14840616   3.406   2.515   3.628 -2.1900 -1.4236  0.5810
  135MOL   H14940617   3.153   2.520   3.655 -0.4788  3.8683  2.1534
  135MOL   H15040618   3.019   2.644   3.488  0.0054  1.0308 -0.4218
  135MOL   H15140619   3.124   2.768   3.314  1.7092  0.4670 -0.3258
  135MOL   C15240620   3.586   2.546   3.311  0.3490  0.3023  0.1857
  135MOL   C15340621   3.732   2.508   3.311 -0.2244  0.4219 -0.0657
  135MOL   C15440622   3.787   2.497   3.450  0.0156 -0.4235  0.2542
  135MOL   C15540623   3.869   2.593   3.510  0.0051  0.0407  0.5637
  135MOL   C15640624   3.891   2.591   3.645  0.9581  0.6570  0.3807
  135MOL   C15740625   3.830   2.481   3.715  0.0938 -0.3530 -0.0446
  135MOL   C15840626   3.749   2.391   3.650 -0.6500  0.2447 -0.7535
  135MOL   N15940627   3.730   2.395   3.520 -0.3222  0.6617  0.1882
  135MOL   H16040628   3.555   2.571   3.209 -0.5884 -3.8132 -0.6035
  135MOL   H16140629   3.531   2.457   3.340  0.5922  0.4821  1.1908
  135MOL   H16240630   3.790   2.586   3.262 -1.5013  0.9080 -0.8236
  135MOL   H16340631   3.925   2.665   3.453 -0.6452  1.4237  1.6556
  135MOL   H16440632   3.955   2.661   3.695  0.9855  0.7015  0.2840
  135MOL   H16540633   3.846   2.474   3.822 -1.6889 -1.7299  0.1611
  135MOL   H16640634   3.720   2.300   3.700  2.6902 -0.3350  0.3048
  135MOL   C16740635   3.769   2.387   3.218 -0.4407  0.6073 -0.2787
  135MOL   C16840636   3.732   2.395   3.066  0.0422 -0.0527 -0.1367
  135MOL   C16940637   3.776   2.530   2.999 -0.2246  0.2224 -0.3444
  135MOL   C17040638   3.691   2.606   2.923 -0.3338 -0.0917  0.1246
  135MOL   C17140639   3.740   2.714   2.855  0.6381  0.2588 -0.1402
  135MOL   C17240640   3.873   2.754   2.863  0.3427 -0.3283 -0.8189
  135MOL   C17340641   3.952   2.672   2.947  0.3036 -0.0513  0.2145
  135MOL   N17440642   3.908   2.559   3.012 -0.4229 -0.3005 -0.1629
  135MOL   H17540643   3.729   2.299   3.266  0.1967  1.0548  1.0939
  135MOL   H17640644   3.878   2.376   3.218 -0.5804 -0.8432 -0.7061
  135MOL   H17740645   3.623   2.387   3.057 -0.0181  0.4199  0.1803
  135MOL   H17840646   3.587   2.582   2.906 -0.7897  2.1037 -0.4694
  135MOL   H17940647   3.675   2.775   2.793 -0.4418  0.0560  0.7857
  135MOL   H18040648   3.911   2.848   2.825 -0.4184  1.0872  1.7860
  135MOL   H18140649   4.054   2.700   2.967 -0.3594  1.5657  1.5318
  135MOL   C18240650   3.800   2.277   2.993  0.3925 -0.4949  0.3623
  135MOL   C18340651   3.733   2.241   2.857 -0.4801 -0.4486 -0.2189
  135MOL   C18440652   3.808   2.304   2.745 -0.8018  0.2986 -0.0287
  135MOL   C18540653   3.760   2.411   2.664  0.6127  0.9043 -0.0125
  135MOL   C18640654   3.836   2.463   2.560 -0.4059 -0.2983 -0.3202
  135MOL   C18740655   3.955   2.395   2.525 -0.2843 -0.1858 -0.1215
  135MOL   C18840656   4.006   2.297   2.613 -0.3014  0.3430  1.0541
  135MOL   N18940657   3.931   2.252   2.718 -0.5111  0.2896  0.5299
  135MOL   H19040658   3.775   2.199   3.066  0.3678  0.8175  1.7833
  135MOL   H19140659   3.909   2.284   2.992  0.3038  0.7384 -0.6476
  135MOL   H19240660   3.631   2.280   2.856 -1.2211 -2.2553  1.7336
  135MOL   H19340661   3.676   2.473   2.691 -0.6300 -0.3672 -0.9031
  135MOL   H19440662   3.791   2.546   2.507  2.2105  1.7072  0.4981
  135MOL   H19540663   4.015   2.426   2.440  0.3185 -1.6016 -0.2395
  135MOL   H19640664   4.087   2.229   2.590 -1.9332 -0.6917 -1.9702
  135MOL   C19740665   3.734   2.097   2.829  0.4504  0.2612 -0.4887
  135MOL   C19840666   3.630   2.004   2.912  0.2409  0.4752  0.0181
  135MOL   C19940667   3.497   2.050   2.856 -0.2973 -0.4120 -0.0236
  135MOL   C20040668   3.409   2.125   2.939 -0.2931  0.4271  0.3656
  135MOL   C20140669   3.280   2.146   2.894 -0.1684 -0.0366  0.5846
  135MOL   C20240670   3.247   2.098   2.765 -0.1806 -0.5548  0.0325
  135MOL   C20340671   3.344   2.032   2.691  0.4747  0.9513  0.9277
  135MOL   N20440672   3.467   2.000   2.733  0.2722 -0.1701 -0.0517
  135MOL   H20540673   3.835   2.061   2.851  1.4813  3.4320  0.1854
  135MOL   H20640674   3.717   2.067   2.726  0.5009 -2.0244  0.1375
  135MOL   H20740675   3.622   2.041   3.014 -0.9693 -0.8940  0.4267
  135MOL   H20840676   3.438   2.170   3.033 -0.6353  0.8045  0.2922
  135MOL   H20940677   3.196   2.186   2.950 -2.0893 -2.1957 -0.6813
  135MOL   H21040678   3.154   2.120   2.714 -0.0786  0.7056  0.3601
  135MOL   H21140679   3.325   2.005   2.588  0.2315 -0.2144  1.2636
  135MOL   C21240680   3.651   1.857   2.917  0.2348  0.2006  0.2314
  135MOL   C21340681   3.779   1.807   2.998  0.4956 -0.5032  0.3407
  135MOL   C21440682   3.788   1.867   3.141 -0.2388  0.0173  0.1876
  135MOL   C21540683   3.892   1.942   3.181 -0.6799  0.5666 -0.1825
  135MOL   C21640684   3.888   1.993   3.316  0.0442 -0.0947  0.6668
  135MOL   C21740685   3.777   1.967   3.397 -0.1404  0.5579  0.0852
  135MOL   C21840686   3.672   1.898   3.326 -1.0843 -0.2308 -0.4133
  135MOL   N21940687   3.672   1.859   3.203 -0.5067 -0.1108  0.5023
  135MOL   H22040688   3.659   1.831   2.811 -0.4665 -1.4006  0.5586
  135MOL   H22140689   3.561   1.816   2.963 -0.6283  2.8994  1.0198
  135MOL   H22240690   3.875   1.840   2.957 -0.7844  1.6452 -1.0234
  135MOL   H22340691   3.986   1.954   3.129 -0.2939  0.7069  0.5376
  135MOL   H22440692   3.979   2.036   3.355  0.8190 -2.1262  1.1485
  135MOL   H22540693   3.756   2.006   3.496 -0.0258 -1.0723  0.7530
  135MOL   H22640694   3.583   1.880   3.385 -0.8772 -1.6107 -0.5119
  135MOL   C22740695   3.793   1.652   2.987  0.0452 -0.3774 -1.0940
  135MOL   C22840696   3.799   1.590   2.849 -0.1812  0.4928  0.1208
  135MOL   C22940697   3.904   1.651   2.755 -0.0613 -0.3378 -0.1658
  135MOL   C23040698   4.041   1.604   2.748  0.0676  0.1808 -0.0125
  135MOL   C23140699   4.127   1.668   2.662 -0.9375 -0.6484 -0.0892
  135MOL   C23240700   4.084   1.782   2.585  0.0966  0.4539  0.4511
  135MOL   C23340701   3.950   1.813   2.604 -0.4877 -0.2407  0.6243
  135MOL   N23440702   3.863   1.752   2.678  0.2508  0.0918 -0.1262
  135MOL   H23540703   3.702   1.629   3.042 -0.6887 -0.9701 -2.5324
  135MOL   H23640704   3.877   1.618   3.048  1.6768  0.8974 -2.5535
  135MOL   H23740705   3.704   1.608   2.799  0.3575 -0.0105 -1.1387
  135MOL   H23840706   4.073   1.522   2.810 -0.1419 -0.7025 -1.0488
  135MOL   H23940707   4.225   1.624   2.660 -0.6437 -0.1087  1.4937
  135MOL   H24040708   4.150   1.837   2.521 -2.0465 -0.3012 -2.5284
  135MOL   H24140709   3.915   1.903   2.556 -1.2580 -0.7809  0.1706
  135MOL   C24240710   3.814   1.436   2.871 -0.7216 -0.2085  0.0972
  135MOL   C24340711   3.694   1.377   2.944  1.1774 -0.6862 -0.5733
  135MOL   C24440712   3.563   1.422   2.884  0.6775 -0.7142 -0.0564
  135MOL   C24540713   3.483   1.512   2.956 -0.3767  0.1015  0.2433
  135MOL   C24640714   3.369   1.563   2.895 -0.0784 -0.6302 -0.7946
  135MOL   C24740715   3.334   1.524   2.760  0.0055 -0.4029 -0.0744
  135MOL   C24840716   3.420   1.434   2.700 -0.3968  0.2285 -0.4641
  135MOL   N24940717   3.530   1.375   2.761  0.6212 -0.7648 -0.3943
  135MOL   H25040718   3.906   1.418   2.928  0.2411  1.1016 -0.9970
  135MOL   H25140719   3.815   1.397   2.769  0.4898 -1.9861  0.7668
  135MOL   H25240720   3.707   1.402   3.050  0.1167  1.9634 -1.0274
  135MOL   H25340721   3.505   1.560   3.051 -1.6236  1.8585 -0.3256
  135MOL   H25440722   3.295   1.626   2.941  2.0384  1.6954 -0.4968
  135MOL   H25540723   3.241   1.550   2.711  0.5352  1.9990  0.1178
  135MOL   H25640724   3.404   1.390   2.603  0.3178  1.7764 -1.3033
  135MOL   C25740725   3.704   1.217   2.960  0.0755 -0.0755 -1.0282
  135MOL   C25840726   3.586   1.154   3.031  0.4301  0.6828  0.4308
  135MOL   C25940727   3.571   1.010   2.984 -1.0945  0.5938  0.2371
  135MOL   C26040728   3.451   0.972   2.927  0.1634 -0.5194  0.4353
  135MOL   C26140729   3.439   0.839   2.875 -0.8451 -0.0724 -0.2032
  135MOL   C26240730   3.544   0.748   2.897  0.4867  0.3472  0.6613
  135MOL   C26340731   3.660   0.793   2.960 -1.0603 -0.0799  0.7089
  135MOL   N26440732   3.672   0.921   2.996  0.5521  0.3129 -0.1885
  135MOL   H26540733   3.796   1.193   3.014 -0.1538  0.1048 -0.5588
  135MOL   H26640734   3.708   1.175   2.860 -2.0834 -0.6826 -0.8841
  135MOL   H26740735   3.496   1.201   2.992 -0.3021  0.8274  2.1966
  135MOL   H26840736   3.367   1.039   2.922 -0.7664 -1.7138 -0.2986
  135MOL   H26940737   3.341   0.813   2.840 -1.2028  0.3395  0.4789
  135MOL   H27040738   3.531   0.644   2.869  1.1922  0.5370 -0.3436
  135MOL   H27140739   3.755   0.743   2.972  0.3234  2.0547 -0.8499
  135MOL   C27240740   3.604   1.174   3.187  0.2680  0.0259 -0.4496
  135MOL   C27340741   3.492   1.123   3.280 -0.7307 -0.2696  0.1810
  135MOL   C27440742   3.541   1.083   3.419  0.3303  0.1599  0.5026
  135MOL   C27540743   3.629   1.173   3.487  0.4230  0.2880  0.2360
  135MOL   C27640744   3.661   1.156   3.621  0.1889  0.3000 -0.5938
  135MOL   C27740745   3.600   1.049   3.688  0.0798 -0.2778 -0.1992
  135MOL   C27840746   3.516   0.962   3.613 -0.0308 -0.2747 -0.0686
  135MOL   N27940747   3.489   0.976   3.479  0.6309  0.2166  0.1422
  135MOL   H28040748   3.608   1.279   3.214  1.1075 -0.0372 -0.3303
  135MOL   H28140749   3.704   1.137   3.209  0.3781  0.2127 -0.6298
  135MOL   H28240750   3.452   1.028   3.244  0.0731 -0.7663  0.6063
  135MOL   H28340751   3.671   1.260   3.440 -0.6717  0.4077 -0.5290
  135MOL   H28440752   3.723   1.223   3.678  1.8618 -0.5138 -1.4277
  135MOL   H28540753   3.603   1.036   3.795 -1.8099 -0.7968 -0.2023
  135MOL   H28640754   3.471   0.873   3.655 -0.8805  0.7152  1.1695
  135MOL   C28740755   3.374   1.220   3.289 -0.3338 -0.4028  0.2650
  135MOL   C28840756   3.271   1.220   3.167  0.5880  0.6151  0.0718
  135MOL   C28940757   3.138   1.272   3.217  0.6150  0.2335  0.2287
  135MOL   C29040758   3.082   1.396   3.178  1.0785 -0.5435  0.2141
  135MOL   C29140759   2.959   1.437   3.234 -1.0842 -0.1900  0.3761
  135MOL   C29240760   2.898   1.353   3.324  0.6593 -0.1155 -0.5529
  135MOL   C29340761   2.962   1.235   3.360 -0.4749 -0.7874 -0.3543
  135MOL   N29440762   3.080   1.191   3.311 -0.1506 -0.2019 -0.0714
  135MOL   H29540763   3.403   1.322   3.313  2.2089 -1.0685  0.0899
  135MOL   H29640764   3.311   1.186   3.372  1.4548 -0.4344  1.6411
  135MOL   H29740765   3.253   1.128   3.112  0.4337  0.4158  0.4563
  135MOL   H29840766   3.142   1.458   3.112  0.8176 -1.2829 -0.7240
  135MOL   H29940767   2.922   1.538   3.221 -0.4697 -0.1036 -0.7345
  135MOL   H30040768   2.800   1.390   3.351  1.0854  0.2751  0.4629
  135MOL   H30140769   2.926   1.177   3.444  1.5344 -0.1731  0.9594
  135MOL   H30240770   3.305   1.289   3.089  0.8169  2.5655  1.8575
  136MOL     C140771   2.421   7.115   1.022 -1.0593 -0.6020 -0.5320
  136MOL     C240772   2.369   7.108   0.884  0.3671  0.5402 -0.1634
  136MOL     C340773   2.453   7.009   0.806 -0.1133  0.6831 -0.4280
  136MOL     C440774   2.533   7.051   0.699  0.1147 -0.0261  0.1873
  136MOL     C540775   2.626   6.963   0.640 -0.0315  0.0146  0.7479
  136MOL     C640776   2.633   6.833   0.691  0.0183 -0.9249  0.8859
  136MOL     C740777   2.556   6.802   0.804 -0.5399  0.4154  0.8355
  136MOL     N840778   2.460   6.882   0.854 -0.1115 -0.9495 -0.0877
  136MOL     H940779   2.528   7.136   1.020 -1.1164 -0.2139  0.0249
  136MOL    H1040780   2.368   7.186   1.086  0.5255  0.1710 -0.0443
  136MOL    H1140781   2.368   7.207   0.839 -1.3265 -0.6037 -2.7699
  136MOL    H1240782   2.528   7.156   0.672  0.6088 -0.3184 -1.0971
  136MOL    H1340783   2.689   6.989   0.556 -0.6979 -2.2041 -0.4990
  136MOL    H1440784   2.699   6.757   0.654 -0.1162 -0.5070 -0.2134
  136MOL    H1540785   2.555   6.701   0.842 -2.0484  1.3591  3.4528
  136MOL    H1640786   2.409   7.024   1.081 -1.9860  0.6394  1.2639
  136MOL    C1740787   2.220   7.065   0.877 -1.0313 -0.4143  0.1223
  136MOL    C1840788   2.110   7.163   0.932 -0.3387  0.3969 -0.0159
  136MOL    C1940789   2.119   7.305   0.875 -0.0594 -0.4316  0.1009
  136MOL    C2040790   2.143   7.424   0.949  0.2418  0.5261 -0.0189
  136MOL    C2140791   2.151   7.547   0.878 -0.8968 -0.8286 -0.2618
  136MOL    C2240792   2.145   7.545   0.740  0.3793 -0.2914  0.2892
  136MOL    C2340793   2.119   7.422   0.674 -0.8805  0.6842 -0.4899
  136MOL    N2440794   2.111   7.307   0.742 -0.6726  0.7111  0.2941
  136MOL    H2540795   2.216   6.969   0.928 -2.0227 -1.1198 -1.2412
  136MOL    H2640796   2.198   7.043   0.773 -4.4342 -1.4330  1.0084
  136MOL    H2740797   2.116   7.181   1.040 -0.5838  0.3940 -0.0016
  136MOL    H2840798   2.149   7.436   1.057 -0.0504 -0.9835  0.1766
  136MOL    H2940799   2.175   7.632   0.941 -0.8255 -1.9318  1.2289
  136MOL    H3040800   2.158   7.633   0.680 -1.8190  0.8103  1.3889
  136MOL    H3140801   2.123   7.413   0.566  1.0015 -0.6583 -0.3473
  136MOL    C3240802   1.959   7.115   0.916 -0.4460 -0.4451  0.6124
  136MOL    C3340803   1.883   7.037   1.027 -0.4792 -0.0444  0.2625
  136MOL    C3440804   1.875   7.116   1.153  0.5995 -0.9363 -0.3379
  136MOL    C3540805   1.919   7.051   1.267  0.2657 -0.6320 -0.1071
  136MOL    C3640806   1.898   7.122   1.389 -0.2907  0.3684 -0.1539
  136MOL    C3740807   1.846   7.253   1.390  0.9450 -0.6883 -0.1331
  136MOL    C3840808   1.806   7.303   1.262 -0.1546  0.5990 -0.1560
  136MOL    N3940809   1.815   7.234   1.147  0.0208 -0.0471 -0.0420
  136MOL    H4040810   1.950   7.067   0.818 -3.3912  0.8993  0.1801
  136MOL    H4140811   1.903   7.206   0.895 -0.2091 -0.2456  0.8463
  136MOL    H4240812   1.944   6.947   1.032  1.0167  0.8427 -1.2515
  136MOL    H4340813   1.952   6.949   1.269  2.0929 -0.0754 -0.6761
  136MOL    H4440814   1.912   7.068   1.481  1.4952  0.7695 -0.1745
  136MOL    H4540815   1.829   7.305   1.483  0.5998 -0.9398 -0.0560
  136MOL    H4640816   1.762   7.401   1.257 -0.0724  0.5958 -0.9793
  136MOL    C4740817   1.747   6.996   0.969  0.6215 -0.3522 -0.1735
  136MOL    C4840818   1.663   6.902   1.066  0.5353 -0.5722 -0.6066
  136MOL    C4940819   1.511   6.893   1.031 -0.5318 -0.1901 -0.6103
  136MOL    C5040820   1.452   6.965   0.925  0.1376 -0.3701  0.5319
  136MOL    C5140821   1.314   6.934   0.897  0.5721  0.4105  0.4957
  136MOL    C5240822   1.248   6.841   0.980 -0.4834  0.7244 -0.9507
  136MOL    C5340823   1.320   6.778   1.079 -0.1209  0.7942 -0.2149
  136MOL    N5440824   1.446   6.798   1.102  0.4769 -0.4849 -0.0444
  136MOL    H5540825   1.762   6.951   0.871  0.9936  0.9150 -0.7092
  136MOL    H5640826   1.693   7.089   0.954  0.4681 -0.2166  1.1620
  136MOL    H5740827   1.673   6.960   1.158  1.3427 -2.3736  0.4589
  136MOL    H5840828   1.493   7.046   0.866 -1.3497  1.6564  2.1833
  136MOL    H5940829   1.262   6.979   0.814  0.9959  2.3052  1.2313
  136MOL    H6040830   1.145   6.811   0.969 -0.8397  1.0042  1.3278
  136MOL    H6140831   1.272   6.708   1.147  0.5309  0.6638  0.1154
  136MOL    C6240832   1.730   6.758   1.094  0.1769  0.1073  0.3526
  136MOL    C6340833   1.718   6.646   0.991 -0.5055  0.3809 -0.1627
  136MOL    C6440834   1.803   6.662   0.862 -0.4249 -0.7165 -0.4034
  136MOL    C6540835   1.743   6.642   0.735  0.0016 -1.0869  0.9229
  136MOL    C6640836   1.824   6.648   0.623  0.0904  0.5035  0.1076
  136MOL    C6740837   1.961   6.673   0.644  0.1883  0.1411 -0.2358
  136MOL    C6840838   2.012   6.698   0.774 -0.3628 -0.2507  0.1948
  136MOL    N6940839   1.931   6.693   0.883 -0.3277 -0.3436  0.1654
  136MOL    H7040840   1.693   6.719   1.189 -3.1760  0.8923 -0.5614
  136MOL    H7140841   1.836   6.779   1.109  0.2241 -0.3571  0.6966
  136MOL    H7240842   1.617   6.639   0.952 -1.0159 -1.4799  1.3634
  136MOL    H7340843   1.636   6.628   0.731 -0.3450  1.4583  0.4407
  136MOL    H7440844   1.785   6.627   0.524 -0.7844 -1.1170  0.7586
  136MOL    H7540845   2.031   6.667   0.562 -0.0944  2.7109 -0.7145
  136MOL    H7640846   2.114   6.728   0.795 -0.0643 -0.9743 -0.1789
  136MOL    C7740847   1.747   6.511   1.051  0.0259 -0.1779 -1.0977
  136MOL    C7840848   1.673   6.389   0.985 -0.3660 -0.3553 -0.9651
  136MOL    C7940849   1.755   6.265   1.000 -0.8405  0.2906 -0.6010
  136MOL    C8040850   1.833   6.211   0.901 -0.0908  1.1463 -0.5720
  136MOL    C8140851   1.905   6.091   0.924  0.1294  0.5182 -1.4425
  136MOL    C8240852   1.910   6.044   1.056 -0.1105  0.3481 -0.1393
  136MOL    C8340853   1.852   6.123   1.155 -0.3794 -0.2954  0.0165
  136MOL    N8440854   1.772   6.229   1.128 -0.0005  0.5362 -0.1063
  136MOL    H8540855   1.735   6.511   1.159  1.4045 -0.7144 -0.9349
  136MOL    H8640856   1.854   6.492   1.041 -0.0514 -1.0912 -0.3222
  136MOL    H8740857   1.663   6.411   0.879 -1.5967 -1.4750 -1.0902
  136MOL    H8840858   1.828   6.256   0.803  0.3247 -0.4886 -1.3680
  136MOL    H8940859   1.967   6.049   0.846 -1.0317 -0.4692 -1.8460
  136MOL    H9040860   1.957   5.952   1.088  1.2962  1.2510  0.4017
  136MOL    H9140861   1.861   6.099   1.260 -0.8380 -3.8824 -0.7165
  136MOL    C9240862   1.528   6.367   1.041 -0.1355 -0.2719  0.0738
  136MOL    C9340863   1.421   6.292   0.961  0.3284 -0.6270  0.3862
  136MOL    C9440864   1.375   6.367   0.838 -0.6864 -0.0003  0.7044
  136MOL    C9540865   1.458   6.375   0.723 -0.2028 -0.5218  0.4634
  136MOL    C9640866   1.406   6.453   0.613  0.3594  0.5228  0.9581
  136MOL    C9740867   1.275   6.506   0.615 -1.0019 -0.5691  0.0231
  136MOL    C9840868   1.206   6.470   0.731  0.0135 -0.4929  0.0323
  136MOL    N9940869   1.253   6.412   0.842 -0.0203  0.5628  0.5343
  136MOL   H10040870   1.480   6.460   1.068  0.4713  0.4176 -1.1844
  136MOL   H10140871   1.525   6.317   1.138 -2.8132  1.4263  0.9287
  136MOL   H10240872   1.334   6.282   1.027  0.5165 -1.4806  0.5105
  136MOL   H10340873   1.552   6.323   0.719 -0.4106 -1.0540  1.9488
  136MOL   H10440874   1.467   6.471   0.525  1.8301 -1.8969  1.4297
  136MOL   H10540875   1.241   6.579   0.543  0.8421 -1.2749 -1.6182
  136MOL   H10640876   1.104   6.504   0.735 -0.2451 -1.2188 -0.3887
  136MOL   C10740877   1.469   6.147   0.921  0.2029  0.3871 -0.3766
  136MOL   C10840878   1.457   6.043   1.038 -0.1947 -0.3132 -0.6542
  136MOL   C10940879   1.312   6.035   1.099  0.6647  0.0845 -0.4884
  136MOL   C11040880   1.283   6.043   1.236 -0.9747  0.0325 -0.4221
  136MOL   C11140881   1.153   6.025   1.281 -0.0462 -0.3199  0.1252
  136MOL   C11240882   1.051   6.017   1.185  0.8792 -0.5997 -0.2323
  136MOL   C11340883   1.086   6.030   1.050  0.3696 -0.4678  0.1372
  136MOL   N11440884   1.212   6.013   1.007 -0.7519 -0.1711  0.5949
  136MOL   H11540885   1.569   6.155   0.878  0.1012  0.2076 -0.6449
  136MOL   H11640886   1.396   6.114   0.847  0.4742 -1.8741  0.3118
  136MOL   H11740887   1.522   6.071   1.121 -0.7743 -0.7189 -0.0620
  136MOL   H11840888   1.371   6.064   1.295  0.2231  0.2333 -2.2174
  136MOL   H11940889   1.132   6.045   1.385 -1.8886  1.8216 -0.5948
  136MOL   H12040890   0.944   6.018   1.199  0.6080 -0.5279 -2.1868
  136MOL   H12140891   1.009   6.032   0.975 -0.1003  0.2768  0.6257
  136MOL   C12240892   1.503   5.909   0.992  0.4656  0.4456  0.8861
  136MOL   C12340893   1.518   5.798   1.098 -0.0854 -0.2382 -0.3118
  136MOL   C12440894   1.492   5.660   1.040  0.2714 -0.5054 -0.5068
  136MOL   C12540895   1.373   5.597   1.081 -0.2605 -0.9591  0.1868
  136MOL   C12640896   1.341   5.477   1.026 -0.1689 -0.4183  0.3593
  136MOL   C12740897   1.436   5.422   0.942  0.2120  0.2342 -0.5172
  136MOL   C12840898   1.554   5.485   0.918 -0.9374 -0.1301 -1.4324
  136MOL   N12940899   1.592   5.603   0.970  0.5881 -0.3647 -0.1614
  136MOL   H13040900   1.596   5.926   0.937 -0.0092 -1.6264 -0.6110
  136MOL   H13140901   1.437   5.874   0.914  0.4543 -2.6897  2.2433
  136MOL   H13240902   1.436   5.818   1.167  0.4080 -2.5428  1.0046
  136MOL   H13340903   1.306   5.638   1.154  0.8249  0.7331  0.2499
  136MOL   H13440904   1.252   5.427   1.061 -0.3264 -0.4238 -0.0512
  136MOL   H13540905   1.423   5.324   0.899 -1.2343  0.2538 -0.1415
  136MOL   H13640906   1.633   5.445   0.856  0.6924  2.0076 -0.7994
  136MOL   C13740907   1.650   5.828   1.173  0.1888 -0.2469  0.6298
  136MOL   C13840908   1.701   5.713   1.259  0.1127 -0.6823  0.3697
  136MOL   C13940909   1.841   5.739   1.312  0.3253  0.1229 -0.0922
  136MOL   C14040910   1.942   5.647   1.275  0.3267  0.3498  0.5992
  136MOL   C14140911   2.070   5.675   1.320  0.2257 -0.5011  0.9755
  136MOL   C14240912   2.084   5.791   1.400  0.2612  0.5494 -0.3584
  136MOL   C14340913   1.980   5.867   1.438 -0.1923  0.1092 -0.3383
  136MOL   N14440914   1.854   5.842   1.396  0.5113  0.3848 -0.0122
  136MOL   H14540915   1.656   5.928   1.217 -0.2075  0.4008 -0.7746
  136MOL   H14640916   1.732   5.826   1.102 -0.6946  0.3882 -0.4239
  136MOL   H14740917   1.699   5.622   1.201  0.0057  0.2028 -1.0372
  136MOL   H14840918   1.928   5.562   1.210  3.4703  1.7147 -2.0044
  136MOL   H14940919   2.160   5.621   1.295  2.1220  3.4426 -1.2180
  136MOL   H15040920   2.186   5.817   1.424  0.2102  1.4927 -1.0996
  136MOL   H15140921   1.996   5.952   1.503  2.0236  0.7316 -1.6465
  136MOL   C15240922   1.605   5.688   1.370  0.1356  0.0300 -0.1806
  136MOL   C15340923   1.608   5.549   1.442 -0.1649  0.5235  0.0298
  136MOL   C15440924   1.511   5.536   1.554  0.2084  1.1669  0.4086
  136MOL   C15540925   1.550   5.463   1.670 -0.3948 -0.9228 -0.7109
  136MOL   C15640926   1.460   5.451   1.775  1.0120  0.0639 -0.6576
  136MOL   C15740927   1.332   5.498   1.755 -0.8845  0.8615 -0.0958
  136MOL   C15840928   1.303   5.567   1.634  0.1661  0.1782  0.8451
  136MOL   N15940929   1.388   5.581   1.529  0.3667 -0.1576  0.6648
  136MOL   H16040930   1.500   5.701   1.347  0.1959  1.3908  0.2986
  136MOL   H16140931   1.619   5.760   1.451 -1.7178 -0.3685  0.5055
  136MOL   H16240932   1.712   5.540   1.474  0.2132 -0.5410 -1.3929
  136MOL   H16340933   1.651   5.425   1.681 -1.0416 -2.8378 -1.2567
  136MOL   H16440934   1.494   5.402   1.865  3.1203 -4.1281 -3.5510
  136MOL   H16540935   1.264   5.484   1.839  2.2675 -4.5275  1.7992
  136MOL   H16640936   1.212   5.625   1.633  0.3625  0.4947  1.1440
  136MOL   C16740937   1.581   5.428   1.344  0.1455  0.1711 -0.0576
  136MOL   C16840938   1.662   5.302   1.382 -0.1494  0.0321  0.2511
  136MOL   C16940939   1.612   5.188   1.297 -0.4168  0.3900  0.3911
  136MOL   C17040940   1.584   5.193   1.156  0.8215 -0.2608 -0.1168
  136MOL   C17140941   1.539   5.075   1.099  0.6904 -0.1568 -0.5081
  136MOL   C17240942   1.522   4.960   1.170  0.0684  0.3237 -0.2248
  136MOL   C17340943   1.546   4.964   1.308  0.2617 -0.9244  0.0978
  136MOL   N17440944   1.585   5.077   1.375  0.0651 -0.6448  0.1233
  136MOL   H17540945   1.602   5.446   1.239 -0.0873  0.8503  0.0071
  136MOL   H17640946   1.476   5.396   1.347  0.7463 -2.3383 -3.0334
  136MOL   H17740947   1.635   5.276   1.484 -2.7436 -0.3813 -0.4997
  136MOL   H17840948   1.604   5.278   1.092 -1.2056  0.1841 -0.1693
  136MOL   H17940949   1.525   5.072   0.992 -2.3463  1.6954 -0.2365
  136MOL   H18040950   1.496   4.869   1.118 -1.6385  0.3814  0.4782
  136MOL   H18140951   1.528   4.881   1.374  0.3896  1.1976  2.9046
  136MOL   C18240952   1.813   5.318   1.388  0.1357  0.4048 -0.6136
  136MOL   C18340953   1.897   5.191   1.427  0.0561 -0.2077  0.8537
  136MOL   C18440954   2.045   5.210   1.399 -0.2542 -0.3132 -0.3374
  136MOL   C18540955   2.116   5.125   1.314 -0.4198 -0.3525 -0.5381
  136MOL   C18640956   2.252   5.147   1.296 -0.6618  0.1763 -0.7941
  136MOL   C18740957   2.316   5.251   1.373  0.5347 -0.4605  0.0391
  136MOL   C18840958   2.238   5.327   1.456 -0.2164 -0.3592  0.3046
  136MOL   N18940959   2.104   5.309   1.475  0.6177  0.2177  0.2212
  136MOL   H19040960   1.842   5.388   1.466 -0.5470  0.3520 -0.3119
  136MOL   H19140961   1.845   5.362   1.293  1.9042  2.4423  0.8662
  136MOL   H19240962   1.861   5.107   1.367 -1.0796  0.6002  0.3861
  136MOL   H19340963   2.078   5.034   1.270  0.2540 -1.0283  0.2695
  136MOL   H19440964   2.319   5.079   1.247 -0.6749 -1.0002  0.7682
  136MOL   H19540965   2.422   5.267   1.381  0.4625 -0.0283  0.1183
  136MOL   H19640966   2.292   5.401   1.513  0.9988 -1.8308  1.1235
  136MOL   C19740967   1.865   5.150   1.575 -0.2322 -0.0074  0.8319
  136MOL   C19840968   1.947   5.029   1.630 -0.0533  0.2304  0.4429
  136MOL   C19940969   1.941   5.018   1.781  0.1992  0.0919  0.9871
  136MOL   C20040970   1.824   5.049   1.865 -0.5181  0.7873  0.1425
  136MOL   C20140971   1.837   5.039   2.005 -0.1659 -0.5776  0.0017
  136MOL   C20240972   1.956   4.989   2.052  0.4129 -0.0108  0.0932
  136MOL   C20340973   2.065   4.954   1.965  0.7592 -0.4295 -1.0731
  136MOL   N20440974   2.056   4.967   1.834  0.0793 -0.1004  0.2311
  136MOL   H20540975   1.757   5.139   1.590 -0.2605 -1.1387 -0.1812
  136MOL   H20640976   1.902   5.224   1.646  1.1651  0.1861 -0.0744
  136MOL   H20740977   2.050   5.054   1.604  0.2234 -1.1570  0.1234
  136MOL   H20840978   1.733   5.084   1.820 -1.2623 -1.5546 -0.2713
  136MOL   H20940979   1.752   5.059   2.068 -0.1715 -1.2412  0.2112
  136MOL   H21040980   1.954   4.969   2.158  0.8395  2.1869  0.5450
  136MOL   H21140981   2.161   4.933   2.009  0.1909 -1.5201 -0.3311
  136MOL   C21240982   1.917   4.899   1.560  0.3809 -0.4322  0.0936
  136MOL   C21340983   1.926   4.764   1.628 -0.2346  0.5823  0.0332
  136MOL   C21440984   1.834   4.661   1.566  0.2862  0.5477  0.5932
  136MOL   C21540985   1.722   4.613   1.637 -0.6520 -0.6285 -0.4263
  136MOL   C21640986   1.636   4.531   1.565  0.7450 -0.6836  0.0669
  136MOL   C21740987   1.659   4.493   1.433 -0.6291  0.6730  0.5122
  136MOL   C21840988   1.768   4.548   1.371  0.0771  0.6276  0.0325
  136MOL   N21940989   1.853   4.633   1.432 -0.0460 -0.3232  0.1072
  136MOL   H22040990   1.972   4.886   1.467  2.6544 -0.2907  1.3821
  136MOL   H22140991   1.814   4.916   1.530  0.5793 -0.9595 -0.8921
  136MOL   H22240992   1.901   4.775   1.734  1.3618  0.9967  0.3866
  136MOL   H22340993   1.694   4.633   1.739 -1.0931 -0.8703 -0.4969
  136MOL   H22440994   1.543   4.500   1.609  0.5112  0.2485  0.2349
  136MOL   H22540995   1.591   4.435   1.374  0.5479 -0.4341  0.2106
  136MOL   H22640996   1.781   4.515   1.269 -2.5636  0.4440 -0.2936
  136MOL   C22740997   2.070   4.711   1.626  0.5069 -0.2061  0.6808
  136MOL   C22840998   2.102   4.589   1.719  0.8526  0.2182  0.5197
  136MOL   C22940999   2.236   4.528   1.679  0.0961  0.3624  0.0605
  136MOL   C23041000   2.235   4.399   1.626  0.1203 -0.5047 -0.5447
  136MOL   C23141001   2.363   4.340   1.601 -0.5766  0.1108  1.4926
  136MOL   C23241002   2.483   4.414   1.628 -0.4866 -0.7702 -0.0604
  136MOL   C23341003   2.461   4.541   1.682 -0.3982 -0.4683  0.8035
  136MOL   N23441004   2.344   4.606   1.700 -0.3176 -0.1339 -0.3172
  136MOL   H23541005   2.124   4.797   1.666 -1.4905  0.9892  0.8677
  136MOL   H23641006   2.098   4.695   1.523 -0.8169  0.8272  0.1386
  136MOL   H23741007   2.027   4.516   1.688 -0.8839  2.2683 -0.2179
  136MOL   H23841008   2.144   4.343   1.613 -1.7556  2.3237 -0.0799
  136MOL   H23941009   2.373   4.246   1.550  0.7862  0.9082  0.2552
  136MOL   H24041010   2.585   4.383   1.609 -1.3820 -3.8406 -0.0830
  136MOL   H24141011   2.550   4.602   1.697 -1.8920  1.4795  1.9907
  136MOL   C24241012   2.092   4.609   1.874 -0.2289  0.0868 -0.5378
  136MOL   C24341013   2.072   4.491   1.960 -0.1771 -0.4085  0.4749
  136MOL   C24441014   2.107   4.528   2.106 -0.0438 -1.0258 -0.2300
  136MOL   C24541015   2.229   4.491   2.162 -0.2041 -0.1550  0.7140
  136MOL   C24641016   2.267   4.544   2.288  0.6882  0.9504  0.1361
  136MOL   C24741017   2.179   4.640   2.342 -0.5522  0.2382 -0.1895
  136MOL   C24841018   2.057   4.667   2.288  0.5997 -0.4873  0.3806
  136MOL   N24941019   2.025   4.618   2.168 -0.1475  0.4311 -0.0886
  136MOL   H25041020   2.015   4.683   1.897 -2.0137 -1.6553 -0.8197
  136MOL   H25141021   2.186   4.647   1.914 -1.0014  1.4713 -0.0057
  136MOL   H25241022   2.145   4.418   1.925  0.2160  0.6004 -0.8334
  136MOL   H25341023   2.293   4.423   2.108 -0.3828  0.6941 -0.5761
  136MOL   H25441024   2.359   4.513   2.335  0.6912  0.1449 -0.3968
  136MOL   H25541025   2.200   4.676   2.442 -0.6092  0.3503 -0.2184
  136MOL   H25641026   1.982   4.726   2.339 -0.0893 -1.3480  0.3657
  136MOL   C25741027   1.922   4.427   1.949 -0.8632 -0.8017 -0.1566
  136MOL   C25841028   1.909   4.285   2.012  0.5867 -0.3236  0.9960
  136MOL   C25941029   1.764   4.243   2.035  0.3669 -0.9420  0.3265
  136MOL   C26041030   1.731   4.166   2.145  0.2115  0.6026  0.6557
  136MOL   C26141031   1.606   4.105   2.149  0.7283  0.1049 -0.4885
  136MOL   C26241032   1.517   4.126   2.044 -0.5641 -0.4952 -0.2312
  136MOL   C26341033   1.563   4.197   1.933 -0.2794 -0.0381 -0.0342
  136MOL   N26441034   1.677   4.270   1.939  0.9028  0.7945  0.1242
  136MOL   H26541035   1.893   4.414   1.845  0.1539 -0.2349 -0.5150
  136MOL   H26641036   1.841   4.488   1.989  0.5008 -0.6893  2.5826
  136MOL   H26741037   1.943   4.289   2.115  0.0036  0.7668  1.1522
  136MOL   H26841038   1.804   4.131   2.216  1.0746 -1.6898 -1.2949
  136MOL   H26941039   1.586   4.050   2.240 -1.0645  0.2977 -0.7547
  136MOL   H27041040   1.415   4.091   2.052 -0.4835 -0.5297  0.6869
  136MOL   H27141041   1.483   4.220   1.864 -2.7014  0.9090  2.9393
  136MOL   C27241042   1.984   4.178   1.937 -0.8637 -0.6493 -0.2530
  136MOL   C27341043   2.108   4.131   2.015 -0.8298  0.6173  0.0276
  136MOL   C27441044   2.080   4.049   2.138  0.4965  0.6536 -0.8099
  136MOL   C27541045   2.107   4.105   2.268  0.3243  0.3390  0.5306
  136MOL   C27641046   2.064   4.024   2.380 -0.7334  0.2665 -0.9864
  136MOL   C27741047   2.011   3.896   2.355  0.5417  0.3616 -0.1231
  136MOL   C27841048   2.001   3.851   2.223 -0.0476 -0.5588  0.0771
  136MOL   N27941049   2.025   3.926   2.115 -0.7665 -0.4414 -0.1657
  136MOL   H28041050   2.005   4.217   1.838 -1.1620 -1.0196 -0.4610
  136MOL   H28141051   1.915   4.094   1.930 -2.5145  0.6860 -0.3623
  136MOL   H28241052   2.166   4.217   2.049  1.0380 -1.1273  1.3513
  136MOL   H28341053   2.141   4.205   2.289  0.5554  0.6225 -1.1246
  136MOL   H28441054   2.080   4.054   2.483 -3.1899 -2.7832  0.3622
  136MOL   H28541055   1.979   3.837   2.439 -2.0509 -0.6216 -1.7260
  136MOL   H28641056   1.959   3.754   2.204  0.3289 -0.6921 -0.0839
  136MOL   C28741057   2.191   4.062   1.912  0.0499 -0.1791  0.5136
  136MOL   C28841058   2.328   4.006   1.965  0.6100  0.1347  0.3376
  136MOL   C28941059   2.431   4.114   1.947  0.1605 -0.4165 -0.3685
  136MOL   C29041060   2.523   4.112   1.839 -0.7215 -0.2399 -0.3160
  136MOL   C29141061   2.628   4.206   1.834  0.8806  0.1327 -1.0054
  136MOL   C29241062   2.630   4.302   1.939 -0.3042  0.0810  0.2487
  136MOL   C29341063   2.533   4.301   2.041  0.0172  0.0909 -0.5439
  136MOL   N29441064   2.435   4.212   2.048 -0.5265 -0.2261  0.4081
  136MOL   H29541065   2.198   4.121   1.821 -2.0576 -1.4519 -0.5052
  136MOL   H29641066   2.137   3.973   1.878  2.0833 -0.9944 -0.6666
  136MOL   H29741067   2.356   3.931   1.890 -1.4079  0.4076 -0.7152
  136MOL   H29841068   2.516   4.031   1.768  0.1367 -1.9747  1.5167
  136MOL   H29941069   2.696   4.197   1.751  1.1985 -0.5130 -0.6831
  136MOL   H30041070   2.707   4.378   1.940 -1.1952  0.9961  0.6624
  136MOL   H30141071   2.542   4.365   2.127 -0.3563  1.3662 -1.4221
  136MOL   H30241072   2.328   3.961   2.064  2.1357  0.5223  0.5301
  137MOL     C141073   5.765   7.685   1.707  0.3553  0.0156 -0.0320
  137MOL     C241074   5.618   7.684   1.661 -0.2591  0.0560 -0.2625
  137MOL     C341075   5.619   7.672   1.513 -0.4919  0.4266  0.4447
  137MOL     C441076   5.579   7.782   1.435  0.7878  0.5197 -0.2559
  137MOL     C541077   5.585   7.767   1.296  0.3990 -0.5823 -1.1385
  137MOL     C641078   5.647   7.655   1.240  0.0816  0.7376  0.4344
  137MOL     C741079   5.692   7.554   1.326 -0.2571 -1.0413  0.0308
  137MOL     N841080   5.673   7.561   1.460  0.3125 -0.3315  0.1629
  137MOL     H941081   5.773   7.689   1.816  0.7324 -1.4664  0.0003
  137MOL    H1041082   5.826   7.604   1.667  0.1780 -0.0477 -0.1719
  137MOL    H1141083   5.562   7.774   1.685 -2.6694 -0.6641 -2.8920
  137MOL    H1241084   5.554   7.878   1.478  0.4854  0.7752 -0.9889
  137MOL    H1341085   5.559   7.853   1.236  1.6723  1.3426  0.9720
  137MOL    H1441086   5.650   7.632   1.135 -1.4316  0.7877  0.3757
  137MOL    H1541087   5.724   7.458   1.290 -1.1197 -0.0999 -3.5307
  137MOL    H1641088   5.816   7.770   1.662  0.3807 -1.0839 -2.1229
  137MOL    C1741089   5.543   7.567   1.722 -0.3906  0.2390  0.2913
  137MOL    C1841090   5.447   7.583   1.844  0.4865 -0.4895  0.0497
  137MOL    C1941091   5.341   7.686   1.823 -0.5762  0.0435  0.3298
  137MOL    C2041092   5.280   7.711   1.698  0.5482  0.3983 -0.9626
  137MOL    C2141093   5.192   7.822   1.684  0.5635  0.1175  0.2253
  137MOL    C2241094   5.154   7.888   1.802  0.4899  0.6036  0.2681
  137MOL    C2341095   5.214   7.845   1.921  0.3139  0.2102 -0.6051
  137MOL    N2441096   5.311   7.754   1.934  0.3954  0.5935  0.3191
  137MOL    H2541097   5.622   7.499   1.754  0.7605  1.3804 -0.1023
  137MOL    H2641098   5.486   7.514   1.646 -2.1827  1.1890  0.9552
  137MOL    H2741099   5.514   7.596   1.929  1.7837 -3.3459 -0.4655
  137MOL    H2841100   5.293   7.636   1.621 -1.1364  1.6048 -2.4809
  137MOL    H2941101   5.137   7.833   1.591 -0.1656  2.0542  0.8744
  137MOL    H3041102   5.074   7.960   1.797  1.6023  1.7265 -1.9721
  137MOL    H3141103   5.181   7.887   2.015 -1.8493  0.6995 -1.5609
  137MOL    C3241104   5.388   7.450   1.883  0.2427 -0.1392  0.5776
  137MOL    C3341105   5.480   7.341   1.954  0.2592  0.0586  0.1436
  137MOL    C3441106   5.493   7.361   2.109 -0.1011  0.1885  0.0230
  137MOL    C3541107   5.392   7.330   2.201  0.1982 -0.2224  0.9823
  137MOL    C3641108   5.412   7.361   2.334  0.1166  0.2852 -0.3191
  137MOL    C3741109   5.534   7.418   2.377 -0.7632  0.1665 -0.4555
  137MOL    C3841110   5.627   7.458   2.278 -0.0142  0.1152  0.9818
  137MOL    N3941111   5.605   7.435   2.146 -0.3126 -0.3697  0.4917
  137MOL    H4041112   5.355   7.401   1.792 -1.5165 -2.0033  2.1674
  137MOL    H4141113   5.304   7.467   1.950  1.1503  0.9029  1.4933
  137MOL    H4241114   5.580   7.347   1.911  0.1146  2.0781  0.0386
  137MOL    H4341115   5.313   7.264   2.169 -0.3727 -0.0766  2.0847
  137MOL    H4441116   5.346   7.327   2.413 -0.6045 -0.5430 -1.2766
  137MOL    H4541117   5.551   7.439   2.482  1.6004 -2.5505 -0.2308
  137MOL    H4641118   5.722   7.501   2.306 -0.0610 -0.5434  2.1727
  137MOL    C4741119   5.439   7.198   1.916  0.1665  0.1009 -0.7585
  137MOL    C4841120   5.517   7.087   1.993  0.6807 -0.8468  0.4651
  137MOL    C4941121   5.432   6.986   2.064 -0.3031  0.0225  0.1196
  137MOL    C5041122   5.446   6.964   2.206 -0.4293  0.1521 -0.5365
  137MOL    C5141123   5.358   6.873   2.272  0.4784 -0.2197 -0.0238
  137MOL    C5241124   5.265   6.801   2.194  0.4789 -0.3317 -0.4747
  137MOL    C5341125   5.253   6.838   2.054 -0.6348 -0.3252  0.1329
  137MOL    N5441126   5.343   6.913   1.988  0.6110 -0.7095  0.3234
  137MOL    H5541127   5.454   7.187   1.809 -0.2562  0.2912 -0.8371
  137MOL    H5641128   5.333   7.196   1.940 -0.4323 -0.7838 -3.3545
  137MOL    H5741129   5.572   7.140   2.071 -2.4389  2.2873  0.6850
  137MOL    H5841130   5.514   7.021   2.267 -1.4514 -0.3472  1.1023
  137MOL    H5941131   5.371   6.866   2.379 -2.3816  0.3703  0.4035
  137MOL    H6041132   5.198   6.735   2.247  1.2222 -1.0616 -0.4404
  137MOL    H6141133   5.177   6.798   1.989 -0.3314  0.3809 -0.6598
  137MOL    C6241134   5.618   7.024   1.898 -0.1556  0.4740  0.1907
  137MOL    C6341135   5.723   7.103   1.823  0.0572  0.0750  0.4424
  137MOL    C6441136   5.817   7.177   1.910  0.2754 -0.0458  0.3040
  137MOL    C6541137   5.837   7.315   1.888 -0.1851  0.0832 -0.6672
  137MOL    C6641138   5.913   7.385   1.989  0.1538  0.2425  0.0588
  137MOL    C6741139   5.961   7.318   2.099 -0.8297 -0.1578 -0.5515
  137MOL    C6841140   5.928   7.181   2.112  0.0636 -0.0264  0.5911
  137MOL    N6941141   5.863   7.106   2.020 -0.1070 -0.3938 -0.1360
  137MOL    H7041142   5.564   6.968   1.821  0.8600  0.6526 -0.6694
  137MOL    H7141143   5.667   6.943   1.953  0.3892  1.9289  1.8756
  137MOL    H7241144   5.664   7.176   1.767 -1.3736 -0.3184  1.4076
  137MOL    H7341145   5.787   7.368   1.808 -0.9118 -0.9962 -0.9418
  137MOL    H7441146   5.934   7.491   1.984  0.2083  0.2193 -0.2379
  137MOL    H7541147   6.014   7.370   2.178 -0.5859  0.4225 -1.0881
  137MOL    H7641148   5.961   7.134   2.203 -1.1012  1.1119  1.6139
  137MOL    C7741149   5.815   7.020   1.720 -0.0611  0.5580 -0.0524
  137MOL    C7841150   5.736   6.950   1.606  0.3631 -0.1680 -0.1357
  137MOL    C7941151   5.623   7.034   1.554 -0.2667  0.2421  0.0265
  137MOL    C8041152   5.489   6.980   1.562 -0.0307 -0.2399  0.6927
  137MOL    C8141153   5.384   7.057   1.506 -0.1232 -0.0259  0.1031
  137MOL    C8241154   5.409   7.182   1.445 -0.3239 -0.2980  0.5682
  137MOL    C8341155   5.545   7.227   1.452  0.2263 -0.4509 -0.2836
  137MOL    N8441156   5.641   7.158   1.509 -0.4047  0.0911  0.0302
  137MOL    H8541157   5.879   6.944   1.764  0.6613  0.1069 -1.8541
  137MOL    H8641158   5.891   7.091   1.686 -1.0176  1.0263 -1.2508
  137MOL    H8741159   5.701   6.856   1.648 -0.2123  0.3075  0.4632
  137MOL    H8841160   5.469   6.885   1.609  0.5846  0.9989  3.5600
  137MOL    H8941161   5.286   7.012   1.497 -0.2277 -1.1681  5.2397
  137MOL    H9041162   5.329   7.240   1.402  0.5198 -1.2961 -2.5298
  137MOL    H9141163   5.578   7.324   1.417  0.2603 -0.0992  0.7051
  137MOL    C9241164   5.837   6.913   1.494 -0.5879  0.1034 -0.3820
  137MOL    C9341165   5.815   6.797   1.398 -0.4165 -0.0462 -0.3748
  137MOL    C9441166   5.748   6.674   1.470  0.3967  0.1931 -0.0160
  137MOL    C9541167   5.614   6.632   1.453  0.6440 -0.4303  0.0302
  137MOL    C9641168   5.565   6.520   1.522  0.0420  0.1248  0.1035
  137MOL    C9741169   5.655   6.450   1.610 -0.3190 -1.2364  0.0282
  137MOL    C9841170   5.783   6.505   1.629 -0.2850  0.2754 -0.3211
  137MOL    N9941171   5.826   6.607   1.559 -0.0382  0.1054  0.6111
  137MOL   H10041172   5.930   6.883   1.543  0.6068  0.5097 -2.3586
  137MOL   H10141173   5.869   6.997   1.433  2.0967 -1.1374 -0.7690
  137MOL   H10241174   5.911   6.770   1.353 -0.0770  0.5180 -0.0056
  137MOL   H10341175   5.539   6.684   1.395  0.6044  0.2643  0.6818
  137MOL   H10441176   5.470   6.469   1.516  1.9884 -3.3597 -2.4171
  137MOL   H10541177   5.629   6.364   1.669 -0.4375 -1.8462 -0.8932
  137MOL   H10641178   5.852   6.461   1.699 -1.4329 -0.1067  0.5838
  137MOL   C10741179   5.735   6.853   1.272 -0.0879  0.4061  0.0633
  137MOL   C10841180   5.817   6.934   1.167 -0.5546  0.0583  0.3707
  137MOL   C10941181   5.934   6.858   1.115  0.3665  0.6064 -0.0894
  137MOL   C11041182   5.926   6.738   1.044 -0.5912  0.7309  0.3236
  137MOL   C11141183   6.045   6.676   0.996  0.0253 -0.4170  0.1213
  137MOL   C11241184   6.166   6.748   1.004 -0.2904 -0.1446  1.1589
  137MOL   C11341185   6.167   6.870   1.077  0.6762 -0.8262  0.1179
  137MOL   N11441186   6.050   6.922   1.130  0.6119  0.6764  0.1603
  137MOL   H11541187   5.656   6.921   1.304  0.4684  0.4842  1.2754
  137MOL   H11641188   5.683   6.769   1.226 -0.7828  0.9225 -0.1147
  137MOL   H11741189   5.849   7.027   1.215  0.4754  0.8566 -1.8149
  137MOL   H11841190   5.825   6.705   1.021 -0.5515  1.9886 -1.8241
  137MOL   H11941191   6.032   6.588   0.935  1.9053  0.2651 -1.3133
  137MOL   H12041192   6.255   6.710   0.959 -0.6929  1.0591 -0.7103
  137MOL   H12141193   6.251   6.934   1.055 -0.0284 -0.2220 -0.8602
  137MOL   C12241194   5.732   6.991   1.054  0.9655 -0.2186 -0.6944
  137MOL   C12341195   5.807   7.087   0.960 -0.0325  0.5189  0.4461
  137MOL   C12441196   5.723   7.103   0.828  0.2722 -1.0505  0.1069
  137MOL   C12541197   5.781   7.099   0.701 -0.0860 -0.5853 -1.6045
  137MOL   C12641198   5.698   7.107   0.589  0.3076  0.1615 -0.6282
  137MOL   C12741199   5.560   7.140   0.612  0.3843 -0.5351 -0.0477
  137MOL   C12841200   5.512   7.158   0.746 -0.1050 -0.1370 -0.7608
  137MOL   N12941201   5.592   7.139   0.859 -0.3675  0.0259  0.0896
  137MOL   H13041202   5.648   7.042   1.103  1.3740 -1.3269  1.2360
  137MOL   H13141203   5.707   6.906   0.992  2.6245 -0.8173 -0.5450
  137MOL   H13241204   5.906   7.051   0.931 -1.3207 -1.4422 -1.5847
  137MOL   H13341205   5.879   7.055   0.690  0.4205  0.2863 -0.7582
  137MOL   H13441206   5.728   7.090   0.487 -0.5588 -0.0660 -0.8501
  137MOL   H13541207   5.499   7.131   0.523 -1.7466 -0.7448  1.4003
  137MOL   H13641208   5.408   7.172   0.772 -1.0735 -2.7328 -2.9796
  137MOL   C13741209   5.841   7.222   1.023  0.6293  0.7117  0.6277
  137MOL   C13841210   5.921   7.317   0.934 -0.0338 -0.2301 -0.8351
  137MOL   C13941211   5.939   7.448   1.005 -0.5475  0.5886  0.1645
  137MOL   C14041212   5.916   7.571   0.939  0.4731 -0.3272  0.0606
  137MOL   C14141213   5.936   7.686   1.010 -0.1169  0.1473 -0.3981
  137MOL   C14241214   5.982   7.678   1.141  0.0267  0.0506  0.1789
  137MOL   C14341215   5.998   7.551   1.199  0.2793 -0.0326  0.5977
  137MOL   N14441216   5.978   7.438   1.136 -0.0429  0.7104 -0.4435
  137MOL   H14541217   5.897   7.197   1.113 -1.6644 -1.1725  1.5726
  137MOL   H14641218   5.743   7.263   1.046 -0.0292 -2.1082  3.0926
  137MOL   H14741219   5.853   7.340   0.852  0.2223 -0.1230 -1.0223
  137MOL   H14841220   5.900   7.569   0.832 -0.5301  1.6520  0.1516
  137MOL   H14941221   5.919   7.786   0.971 -0.8842  0.8680  1.6743
  137MOL   H15041222   6.003   7.764   1.203  0.9190 -0.4388  0.5686
  137MOL   H15141223   6.037   7.529   1.297  2.0660 -0.8094 -0.2570
  137MOL   C15241224   6.064   7.257   0.897 -0.2918 -0.4577 -0.4167
  137MOL   C15341225   6.170   7.357   0.838 -0.4361  0.3368  0.3863
  137MOL   C15441226   6.319   7.326   0.862 -0.5875 -0.1568 -0.6787
  137MOL   C15541227   6.402   7.387   0.963  0.2947  0.0374  0.0253
  137MOL   C15641228   6.529   7.327   0.992  0.0652 -0.7751  0.2493
  137MOL   C15741229   6.575   7.232   0.907  0.2222 -0.0008  0.0447
  137MOL   C15841230   6.489   7.183   0.806  0.6230 -0.3014  0.5472
  137MOL   N15941231   6.367   7.226   0.785 -0.2192 -0.5425  0.3839
  137MOL   H16041232   6.049   7.181   0.821 -0.4857 -0.1653 -0.6698
  137MOL   H16141233   6.108   7.220   0.990  1.4579  0.3016 -0.9280
  137MOL   H16241234   6.162   7.445   0.902  2.1593  1.6237 -1.0096
  137MOL   H16341235   6.367   7.463   1.031 -0.4246 -1.4709  1.3716
  137MOL   H16441236   6.590   7.344   1.080 -1.3135 -1.8584  1.4539
  137MOL   H16541237   6.666   7.176   0.919  0.2098 -0.0284  0.0109
  137MOL   H16641238   6.515   7.097   0.746 -1.8268 -0.4337 -0.3723
  137MOL   C16741239   6.132   7.404   0.690 -0.2416  0.8563  0.1912
  137MOL   C16841240   6.152   7.548   0.660 -0.4124  0.2296 -0.2923
  137MOL   C16941241   6.305   7.593   0.700 -0.3708  0.0102  0.1592
  137MOL   C17041242   6.329   7.680   0.812  0.2409  0.4184  0.1561
  137MOL   C17141243   6.462   7.723   0.841  0.2124  0.9149  0.0203
  137MOL   C17241244   6.564   7.680   0.752 -0.5961 -0.0894  0.0355
  137MOL   C17341245   6.536   7.596   0.644 -0.4288 -0.3343 -0.2047
  137MOL   N17441246   6.412   7.557   0.624 -0.7881 -0.5951 -0.7011
  137MOL   H17541247   6.031   7.373   0.662 -0.9420 -0.6772  4.1261
  137MOL   H17641248   6.185   7.337   0.623  0.0903 -0.5715  1.8522
  137MOL   H17741249   6.082   7.609   0.715 -0.1751  1.7005 -1.5644
  137MOL   H17841250   6.248   7.716   0.872 -0.4149  0.7182 -0.8994
  137MOL   H17941251   6.476   7.784   0.929 -0.6742 -0.6293  1.2645
  137MOL   H18041252   6.665   7.716   0.765 -0.7916  1.2063 -1.7501
  137MOL   H18141253   6.611   7.567   0.573  2.5433  0.8268  2.3433
  137MOL   C18241254   6.133   7.595   0.512 -0.2284  0.2817 -0.0736
  137MOL   C18341255   5.995   7.571   0.446 -0.5272 -0.2669 -0.0910
  137MOL   C18441256   5.880   7.594   0.540  0.7054 -0.1849  0.0088
  137MOL   C18541257   5.794   7.495   0.595  0.1308  0.1127 -0.7327
  137MOL   C18641258   5.687   7.537   0.677 -0.5333 -0.6557 -0.2410
  137MOL   C18741259   5.672   7.675   0.708 -0.1600 -0.0159  0.1236
  137MOL   C18841260   5.761   7.765   0.650  0.0176 -0.5550  0.2251
  137MOL   N18941261   5.861   7.728   0.569 -0.7933  0.2154 -0.0624
  137MOL   H19041262   6.212   7.563   0.445  0.9458 -0.0608  1.4499
  137MOL   H19141263   6.141   7.704   0.513 -0.2599  0.2915 -0.7430
  137MOL   H19241264   5.992   7.463   0.437 -0.9234 -0.2915  0.3188
  137MOL   H19341265   5.808   7.389   0.575 -0.5933  0.1163 -1.3008
  137MOL   H19441266   5.614   7.463   0.708 -0.8531 -0.9541 -1.7010
  137MOL   H19541267   5.588   7.713   0.764 -0.9518  0.6054 -1.4824
  137MOL   H19641268   5.753   7.871   0.669 -0.0893  0.0138 -2.6795
  137MOL   C19741269   5.990   7.639   0.305  0.3649 -0.0823 -0.3062
  137MOL   C19841270   5.854   7.632   0.233 -0.2097 -0.6498 -0.3390
  137MOL   C19941271   5.847   7.741   0.133 -0.0270 -0.0714  0.3404
  137MOL   C20041272   5.738   7.832   0.131 -0.0183  0.7432  0.1208
  137MOL   C20141273   5.747   7.945   0.051 -0.0145  0.0866  0.3161
  137MOL   C20241274   5.866   7.968   8.132 -0.1760  0.4834  0.0207
  137MOL   C20341275   5.958   7.862   8.126  0.4403 -0.5105  0.3513
  137MOL   N20441276   5.949   7.753   0.046  0.0566  0.5262  0.4977
  137MOL   H20541277   6.066   7.603   0.236  0.0036 -0.0796 -0.7125
  137MOL   H20641278   6.016   7.743   0.327  0.2416 -0.6191  2.6128
  137MOL   H20741279   5.778   7.652   0.308 -0.1477 -1.2798 -0.1039
  137MOL   H20841280   5.657   7.830   0.202 -1.8330  0.3442 -1.9090
  137MOL   H20941281   5.674   8.024   0.055  0.8834  1.1101 -2.1863
  137MOL   H21041282   5.877   8.057   8.072 -1.5961  0.5850 -0.0948
  137MOL   H21141283   6.047   7.883   8.068  0.7957 -1.0704  0.6890
  137MOL   C21241284   5.842   7.488   0.167 -0.0919  0.2462 -0.2728
  137MOL   C21341285   5.695   7.443   0.129  0.3930 -0.3935 -0.6852
  137MOL   C21441286   5.696   7.319   0.041  0.3574 -0.0591  0.1627
  137MOL   C21541287   5.667   7.327   8.055 -0.0341  0.2272 -0.0889
  137MOL   C21641288   5.680   7.210   7.973  0.6960 -1.0953 -0.9238
  137MOL   C21741289   5.710   7.091   8.039  0.3385 -0.4137  0.2775
  137MOL   C21841290   5.730   7.098   0.025 -0.0721 -0.6775  0.3391
  137MOL   N21941291   5.735   7.208   0.100 -0.0221 -0.7141 -0.9804
  137MOL   H22041292   5.871   7.413   0.241 -0.1944  0.6218  0.1504
  137MOL   H22141293   5.912   7.485   0.083 -1.3634  2.7269 -1.4905
  137MOL   H22241294   5.660   7.520   0.060 -1.2698  0.9787  1.5704
  137MOL   H22341295   5.641   7.423   8.012 -0.3120  0.5273  0.7213
  137MOL   H22441296   5.661   7.205   7.866  2.7778  1.0353 -1.4501
  137MOL   H22541297   5.728   6.996   7.991 -2.7211 -0.7489 -0.3312
  137MOL   H22641298   5.761   7.014   0.087 -0.8111 -0.8814  0.4301
  137MOL   C22741299   5.594   7.447   0.253 -0.0178 -0.2905  0.5413
  137MOL   C22841300   5.441   7.440   0.213 -0.5633  0.2673  0.4408
  137MOL   C22941301   5.369   7.410   0.344 -0.0150  0.0100 -0.6348
  137MOL   C23041302   5.304   7.287   0.375  0.1325  0.2800  0.2146
  137MOL   C23141303   5.251   7.246   0.502  0.1137  0.1054 -0.1567
  137MOL   C23241304   5.252   7.353   0.598 -0.9157  0.5911 -0.2920
  137MOL   C23341305   5.316   7.476   0.560  0.3029 -0.2304  0.0290
  137MOL   N23441306   5.364   7.504   0.440  0.2695  0.4240 -0.7956
  137MOL   H23541307   5.617   7.527   0.324 -1.3008 -1.3038  2.1522
  137MOL   H23641308   5.620   7.360   0.313  1.2501  0.5046  1.1802
  137MOL   H23741309   5.427   7.352   0.149 -0.0059 -0.8244  1.7808
  137MOL   H23841310   5.306   7.211   0.298  1.2996 -1.7311  2.1524
  137MOL   H23941311   5.199   7.155   0.528 -4.1188  2.4273 -0.1151
  137MOL   H24041312   5.207   7.337   0.695  1.2314 -1.1296  0.4495
  137MOL   H24141313   5.314   7.557   0.631 -0.2911  0.2200 -0.4936
  137MOL   C24241314   5.393   7.564   0.130  0.1747  0.1160 -0.9123
  137MOL   C24341315   5.252   7.622   0.158  0.1808 -0.0518  0.4850
  137MOL   C24441316   5.235   7.760   0.094 -0.2573 -0.0150 -0.5895
  137MOL   C24541317   5.215   7.874   0.170  0.2639 -0.0270  0.0493
  137MOL   C24641318   5.214   7.997   0.108 -0.8474  0.0530 -0.1785
  137MOL   C24741319   5.242   8.006   8.121 -0.2079 -0.7168 -0.0670
  137MOL   C24841320   5.268   7.886   8.054  0.0527 -0.4424 -0.1632
  137MOL   N24941321   5.252   7.764   8.109  0.0693 -0.4719  0.5011
  137MOL   H25041322   5.411   7.543   0.025  0.6246  0.2286 -0.8591
  137MOL   H25141323   5.455   7.651   0.151  0.2951 -0.1864 -0.0119
  137MOL   H25241324   5.242   7.650   0.262  1.7154 -0.8692  0.8639
  137MOL   H25341325   5.193   7.868   0.275  0.2285  2.0268  0.1689
  137MOL   H25441326   5.196   8.087   0.164  1.5049 -0.3626  1.3033
  137MOL   H25541327   5.231   8.097   8.065 -0.2156  0.2164  1.4027
  137MOL   H25641328   5.287   7.887   7.948  0.6292  2.3023 -0.0563
  137MOL   C25741329   5.137   7.518   0.127  0.4393 -0.2144 -0.1694
  137MOL   C25841330   5.004   7.538   0.201 -0.3530 -0.3235  0.0794
  137MOL   C25941331   4.905   7.447   0.140  1.0879 -0.2549 -0.2574
  137MOL   C26041332   4.921   7.309   0.140  0.1619  0.0263  0.1034
  137MOL   C26141333   4.809   7.233   0.093 -0.2047 -0.4096 -0.4357
  137MOL   C26241334   4.704   7.298   0.026  0.8104 -0.6810 -0.6602
  137MOL   C26341335   4.703   7.436   0.019 -0.0813  0.3349  0.0826
  137MOL   N26441336   4.801   7.509   0.083  0.0797 -0.3946  0.0911
  137MOL   H26541337   5.170   7.414   0.141 -1.6360 -0.7843  0.6291
  137MOL   H26641338   5.111   7.527   0.022 -1.3982 -0.5489  0.2414
  137MOL   H26741339   4.980   7.642   0.178  2.8259  0.5086  0.2962
  137MOL   H26841340   5.004   7.253   0.181  0.1500  1.1078  1.6827
  137MOL   H26941341   4.809   7.125   0.086 -0.6747 -0.3798 -0.8706
  137MOL   H27041342   4.623   7.242   8.133  0.5276 -1.8135  1.1633
  137MOL   H27141343   4.620   7.480   8.119  0.2860 -0.6944 -1.4002
  137MOL   C27241344   5.024   7.511   0.359 -0.6135 -0.2269  0.7546
  137MOL   C27341345   4.887   7.502   0.439  0.6383 -0.2325 -0.0467
  137MOL   C27441346   4.913   7.477   0.583 -0.4487  0.5324  0.4909
  137MOL   C27541347   4.898   7.351   0.642  0.0890  0.4787  1.0881
  137MOL   C27641348   4.945   7.331   0.770  0.5849 -0.4616  0.2385
  137MOL   C27741349   5.011   7.443   0.832 -0.0807 -0.2336 -0.1483
  137MOL   C27841350   5.017   7.566   0.766  0.2733 -1.4712 -0.3462
  137MOL   N27941351   4.972   7.581   0.640  0.5532  0.0879  0.0200
  137MOL   H28041352   5.081   7.595   0.398 -0.6302  1.1759 -2.0798
  137MOL   H28141353   5.083   7.420   0.365  0.3574  0.1568 -2.0368
  137MOL   H28241354   4.845   7.406   0.411  0.6191 -1.0279  2.6113
  137MOL   H28341355   4.852   7.270   0.587  0.8089 -0.1126  1.3367
  137MOL   H28441356   4.934   7.238   0.824  0.9093 -0.1340  0.8739
  137MOL   H28541357   5.047   7.437   0.934  0.1253 -0.3537 -0.2289
  137MOL   H28641358   5.061   7.658   0.801 -1.1917 -0.3678 -1.3663
  137MOL   C28741359   4.782   7.614   0.423  0.2794 -0.1745  0.1103
  137MOL   C28841360   4.654   7.582   0.499  0.0000 -0.4527 -0.1289
  137MOL   C28941361   4.555   7.696   0.491  0.2837  0.2309 -0.4166
  137MOL   C29041362   4.485   7.739   0.605 -0.2685 -0.0195 -0.0652
  137MOL   C29141363   4.381   7.834   0.591 -0.1017 -0.6525 -0.1728
  137MOL   C29241364   4.358   7.887   0.464 -0.0180  0.2023  0.3849
  137MOL   C29341365   4.442   7.845   0.354 -0.2374 -0.0528 -0.3210
  137MOL   N29441366   4.536   7.752   0.371  0.5934  0.6509  0.0130
  137MOL   H29541367   4.767   7.638   0.318 -0.7117  0.8749  0.4836
  137MOL   H29641368   4.833   7.705   0.453  1.6424 -0.8600 -0.0788
  137MOL   H29741369   4.667   7.562   0.606 -2.1515  0.5446  0.3518
  137MOL   H29841370   4.498   7.692   0.702 -0.9055  2.8487  1.4946
  137MOL   H29941371   4.321   7.847   0.680  0.4379  0.0492  0.0944
  137MOL   H30041372   4.272   7.948   0.441 -0.0662  0.2772  0.7488
  137MOL   H30141373   4.429   7.876   0.251 -2.1168 -2.8149 -0.9761
  137MOL   H30241374   4.602   7.496   0.455 -0.2068 -1.0622  1.2703
  138MOL     C141375   5.695   4.231   3.009 -0.3623 -0.9660 -0.7412
  138MOL     C241376   5.726   4.358   3.089 -0.2697  0.6244 -1.4797
  138MOL     C341377   5.870   4.401   3.046  0.1312 -0.2995 -0.1355
  138MOL     C441378   5.911   4.418   2.914 -0.5123 -0.4545 -0.3028
  138MOL     C541379   6.040   4.471   2.890  0.0966  0.6214 -0.4374
  138MOL     C641380   6.115   4.507   2.998  0.0189 -0.5130  0.2043
  138MOL     C741381   6.071   4.487   3.125  0.3446  0.3790 -0.4187
  138MOL     N841382   5.950   4.438   3.151 -0.4423  0.5284  0.2216
  138MOL     H941383   5.594   4.199   3.034 -0.3737 -1.4763 -1.4439
  138MOL    H1041384   5.698   4.230   2.900  2.4053 -2.9854 -0.6935
  138MOL    H1141385   5.729   4.326   3.193  0.1356 -0.7744 -1.9107
  138MOL    H1241386   5.848   4.385   2.833 -0.5045 -1.0727 -0.0643
  138MOL    H1341387   6.085   4.480   2.793 -0.2307  1.3903 -0.5227
  138MOL    H1441388   6.214   4.542   2.974 -0.6812  1.3348 -0.0923
  138MOL    H1541389   6.134   4.518   3.207 -0.2236  3.0599 -0.9549
  138MOL    H1641390   5.751   4.146   3.049  0.6445 -0.9559 -2.1135
  138MOL    C1741391   5.616   4.473   3.085  0.4635 -0.0213  0.3754
  138MOL    C1841392   5.585   4.559   2.963 -0.5243 -0.0191 -0.7438
  138MOL    C1941393   5.553   4.479   2.837 -0.8877 -0.5722 -0.0736
  138MOL    C2041394   5.645   4.481   2.730 -0.3331  0.0239 -0.7012
  138MOL    C2141395   5.609   4.399   2.621 -0.7039  0.2310  0.4925
  138MOL    C2241396   5.489   4.324   2.623 -1.1489  0.6495 -0.4053
  138MOL    C2341397   5.404   4.336   2.734  0.9694 -0.5401  0.5751
  138MOL    N2441398   5.442   4.409   2.838 -0.1155 -0.1804  0.3352
  138MOL    H2541399   5.627   4.541   3.170  1.8958  2.2461 -1.5788
  138MOL    H2641400   5.521   4.423   3.107 -0.2432  1.2073  0.1155
  138MOL    H2741401   5.680   4.606   2.938  0.2046 -0.0364  1.7914
  138MOL    H2841402   5.738   4.537   2.731  0.4944 -1.3218  1.1612
  138MOL    H2941403   5.671   4.381   2.535 -1.8874  1.5813 -0.6800
  138MOL    H3041404   5.456   4.271   2.535 -1.2059  3.3016 -2.0293
  138MOL    H3141405   5.312   4.280   2.736  1.0340 -0.6333  1.0800
  138MOL    C3241406   5.481   4.670   2.986 -0.0597 -0.8995  0.5022
  138MOL    C3341407   5.513   4.783   3.088 -0.1721 -0.3193 -1.1836
  138MOL    C3441408   5.653   4.834   3.069  0.0662 -0.2134  0.2506
  138MOL    C3541409   5.753   4.809   3.165  0.7279  0.6666  0.1855
  138MOL    C3641410   5.887   4.839   3.135  0.8031  0.4821 -0.4251
  138MOL    C3741411   5.919   4.885   3.003 -0.8013  0.4269 -0.0316
  138MOL    C3841412   5.810   4.905   2.914  0.3580 -0.5240  0.9835
  138MOL    N3941413   5.683   4.891   2.947  0.9216  0.3081  0.1082
  138MOL    H4041414   5.389   4.618   3.017 -2.5349  2.3734 -1.0867
  138MOL    H4141415   5.464   4.724   2.893  0.9840 -2.6786 -0.7585
  138MOL    H4241416   5.501   4.734   3.185 -1.7036 -0.7255 -1.5636
  138MOL    H4341417   5.725   4.769   3.262 -1.7110  0.2965 -0.6376
  138MOL    H4441418   5.964   4.848   3.210  0.0791  2.0225  0.1460
  138MOL    H4541419   6.006   4.937   2.967 -0.2019 -0.7861 -0.3894
  138MOL    H4641420   5.830   4.958   2.822 -0.6364 -0.8533  0.5641
  138MOL    C4741421   5.411   4.900   3.086  0.3686 -0.8387 -0.5130
  138MOL    C4841422   5.432   5.013   3.190  0.6483  0.1047 -0.1122
  138MOL    C4941423   5.395   5.148   3.129  0.3338 -0.0520  0.1403
  138MOL    C5041424   5.268   5.211   3.148 -0.0920 -0.0066 -0.5926
  138MOL    C5141425   5.237   5.328   3.071  0.4735  0.2432  0.5248
  138MOL    C5241426   5.329   5.369   2.976  0.0423 -0.6072  0.0301
  138MOL    C5341427   5.444   5.293   2.957 -0.5276  0.6898 -0.0223
  138MOL    N5441428   5.482   5.194   3.044 -0.5112  0.6689  0.0653
  138MOL    H5541429   5.307   4.867   3.084  0.8842 -2.6955  1.6016
  138MOL    H5641430   5.419   4.942   2.986  1.0133 -0.2091 -0.2042
  138MOL    H5741431   5.539   5.025   3.205  0.9606  0.0266 -2.1695
  138MOL    H5841432   5.205   5.171   3.226  1.8770  3.1129  2.7584
  138MOL    H5941433   5.147   5.388   3.068  1.1576  1.2102 -2.1882
  138MOL    H6041434   5.310   5.456   2.915 -0.2350 -0.0787  0.8607
  138MOL    H6141435   5.512   5.316   2.876 -1.9611  0.0524 -1.4079
  138MOL    C6241436   5.376   4.985   3.335  0.2169  0.5540  0.3455
  138MOL    C6341437   5.443   5.055   3.460  0.2468 -0.6254 -0.1639
  138MOL    C6441438   5.378   5.192   3.481  0.7648 -0.1134 -0.3618
  138MOL    C6541439   5.443   5.312   3.457  0.7229  0.2696  0.4170
  138MOL    C6641440   5.367   5.434   3.473 -0.2517 -0.1520  0.0417
  138MOL    C6741441   5.230   5.420   3.517 -1.0919  0.3260 -0.1649
  138MOL    C6841442   5.181   5.290   3.542  0.1701 -0.5269 -0.0033
  138MOL    N6941443   5.249   5.182   3.515  0.2908 -0.4324 -0.0272
  138MOL    H7041444   5.398   4.881   3.358 -0.9553  0.8107  2.8023
  138MOL    H7141445   5.268   4.988   3.343  0.1379 -0.8940 -0.0916
  138MOL    H7241446   5.547   5.080   3.439 -0.0404  1.2086  0.5262
  138MOL    H7341447   5.532   5.324   3.396 -0.4830  3.9217 -0.7329
  138MOL    H7441448   5.401   5.531   3.440  0.4123 -1.3210 -2.8648
  138MOL    H7541449   5.174   5.512   3.519  0.3950  1.2209  0.5984
  138MOL    H7641450   5.083   5.267   3.582  0.9710 -3.0615  0.6066
  138MOL    C7741451   5.435   4.964   3.585  0.1797  0.4565  0.7336
  138MOL    C7841452   5.467   5.021   3.723  1.2602 -0.1898 -0.5928
  138MOL    C7941453   5.397   4.928   3.827 -0.3731  0.4930  0.4543
  138MOL    C8041454   5.296   4.967   3.915 -0.1632  0.0095  0.0452
  138MOL    C8141455   5.240   4.876   3.999  0.0512  0.2778  0.1848
  138MOL    C8241456   5.289   4.747   3.999  0.0731 -0.4823  0.6156
  138MOL    C8341457   5.390   4.708   3.907  0.0743  0.2080  0.5543
  138MOL    N8441458   5.446   4.798   3.824 -0.6561 -0.0481 -0.0034
  138MOL    H8541459   5.488   4.870   3.568 -1.9117 -0.8534  1.2743
  138MOL    H8641460   5.328   4.943   3.588  0.2865  0.1081  2.7889
  138MOL    H8741461   5.418   5.116   3.743  3.6037  0.6224  1.6175
  138MOL    H8841462   5.260   5.067   3.932 -0.7159 -0.5800  2.5118
  138MOL    H8941463   5.161   4.898   4.069  1.4407 -1.9571  2.5533
  138MOL    H9041464   5.235   4.669   4.051 -1.1241 -0.5698 -0.7230
  138MOL    H9141465   5.438   4.611   3.912  0.3278  0.1311 -2.6578
  138MOL    C9241466   5.617   5.031   3.759  0.0916 -0.1611 -0.2564
  138MOL    C9341467   5.650   5.131   3.871 -0.0360  0.5555  0.0368
  138MOL    C9441468   5.628   5.279   3.832  0.7248 -0.1564 -0.3457
  138MOL    C9541469   5.506   5.347   3.847 -0.0002  0.3372 -0.4140
  138MOL    C9641470   5.508   5.487   3.836  0.5150  0.2229  0.0236
  138MOL    C9741471   5.630   5.552   3.805 -0.0721 -0.1578  0.1231
  138MOL    C9841472   5.743   5.472   3.779 -1.1883 -0.1869  0.1103
  138MOL    N9941473   5.740   5.336   3.800 -0.3204  0.5919  0.0853
  138MOL   H10041474   5.669   5.066   3.670 -1.2504  2.1109 -0.1942
  138MOL   H10141475   5.646   4.934   3.797  1.3344  0.8050  1.3021
  138MOL   H10241476   5.756   5.115   3.892  0.3616  0.2021 -2.1793
  138MOL   H10341477   5.412   5.301   3.874  1.2530 -2.4415 -0.7340
  138MOL   H10441478   5.417   5.544   3.846  0.5753  1.0203 -3.1705
  138MOL   H10541479   5.634   5.660   3.816 -1.3854 -0.0515 -0.3371
  138MOL   H10641480   5.833   5.524   3.750 -0.5536  0.5651  3.1611
  138MOL   C10741481   5.591   5.110   4.006 -0.1455  0.3135 -0.9969
  138MOL   C10841482   5.625   4.979   4.084  0.7332 -0.1782 -0.5714
  138MOL   C10941483   5.773   4.945   4.081 -0.2333  1.0409 -0.2802
  138MOL   C11041484   5.813   4.829   4.010 -0.2211  0.5228 -0.4342
  138MOL   C11141485   5.941   4.793   4.022  0.2274 -0.3845  0.3159
  138MOL   C11241486   6.029   4.857   4.104 -0.2293  0.5415 -0.6286
  138MOL   C11341487   5.984   4.968   4.163  0.7089  0.0552  0.5479
  138MOL   N11441488   5.860   5.023   4.146 -0.0182 -0.2492 -0.0149
  138MOL   H11541489   5.485   5.134   4.004 -0.2582 -0.1856 -1.2705
  138MOL   H11641490   5.633   5.186   4.072 -0.2372 -0.9179  0.5202
  138MOL   H11741491   5.575   4.906   4.020 -1.2242 -1.3305  2.1701
  138MOL   H11841492   5.749   4.761   3.955  0.5655  3.3366 -5.0461
  138MOL   H11941493   5.988   4.709   3.972  0.5160 -0.3917  0.5911
  138MOL   H12041494   6.125   4.811   4.121 -1.0422 -0.2501  2.2235
  138MOL   H12141495   6.054   5.025   4.221 -0.8464  1.2463  1.2775
  138MOL   C12241496   5.555   4.970   4.226 -0.5328 -0.2447 -0.1497
  138MOL   C12341497   5.512   4.831   4.274 -0.0689 -0.3668 -0.1260
  138MOL   C12441498   5.617   4.725   4.250 -0.4561  0.5498 -0.0307
  138MOL   C12541499   5.736   4.724   4.325 -0.6563  0.2963 -0.5098
  138MOL   C12641500   5.808   4.606   4.336  0.3285  1.0416 -0.3569
  138MOL   C12741501   5.773   4.494   4.264  0.0965  0.3490 -0.0568
  138MOL   C12841502   5.663   4.509   4.174 -1.0999  0.4006  0.2791
  138MOL   N12941503   5.585   4.623   4.170 -0.3306  0.8298 -0.2277
  138MOL   H13041504   5.463   5.026   4.213 -0.5991 -0.2639  0.2393
  138MOL   H13141505   5.600   5.028   4.307 -0.5126 -1.5567  0.7945
  138MOL   H13241506   5.439   4.809   4.195 -0.2447 -0.2875  0.0137
  138MOL   H13341507   5.768   4.814   4.376 -1.4712 -1.2877  2.9254
  138MOL   H13441508   5.900   4.607   4.394 -1.3273 -1.3812  2.4172
  138MOL   H13541509   5.821   4.398   4.276 -2.4736 -0.9837 -0.1457
  138MOL   H13641510   5.624   4.428   4.114 -2.2625  1.1638 -0.0306
  138MOL   C13741511   5.464   4.832   4.421  0.0104  0.2584 -0.3293
  138MOL   C13841512   5.407   4.698   4.472  0.0203  0.4447  0.1767
  138MOL   C13941513   5.375   4.681   4.626 -0.5228 -0.4045 -0.3512
  138MOL   C14041514   5.268   4.751   4.691  0.0689 -1.0358 -0.0280
  138MOL   C14141515   5.240   4.724   4.826 -0.1574 -0.3724  0.0006
  138MOL   C14241516   5.315   4.626   4.892  0.2604 -0.1157 -0.5545
  138MOL   C14341517   5.410   4.556   4.822 -0.0929  0.2161  0.1882
  138MOL   N14441518   5.442   4.585   4.694  0.2629 -0.1625 -0.8117
  138MOL   H14541519   5.391   4.913   4.427 -0.0976  0.2200 -1.0677
  138MOL   H14641520   5.540   4.863   4.492  0.7437 -0.1542 -0.9330
  138MOL   H14741521   5.488   4.626   4.457  0.0264  0.9647 -2.6118
  138MOL   H14841522   5.213   4.824   4.633 -1.1459 -1.3964  0.6549
  138MOL   H14941523   5.158   4.770   4.879 -0.8585  0.8456 -2.1202
  138MOL   H15041524   5.281   4.606   4.993  0.2277  0.7521 -0.3895
  138MOL   H15141525   5.468   4.483   4.875 -0.4841 -0.3659 -0.1769
  138MOL   C15241526   5.285   4.651   4.393  0.1106 -0.5066 -0.1981
  138MOL   C15341527   5.213   4.517   4.431  0.2208 -0.3002  0.2356
  138MOL   C15441528   5.072   4.512   4.375  0.5509 -0.2181 -0.2761
  138MOL   C15541529   4.960   4.510   4.461 -0.0674 -0.3230  0.1030
  138MOL   C15641530   4.830   4.532   4.409  1.6039 -0.8882  0.1819
  138MOL   C15741531   4.816   4.569   4.272  0.5982 -0.2271  0.9022
  138MOL   C15841532   4.932   4.575   4.190 -0.7863  0.2899 -0.3126
  138MOL   N15941533   5.055   4.534   4.240 -0.5794 -0.2744 -0.5206
  138MOL   H16041534   5.295   4.659   4.285  0.2781 -2.1788 -0.3120
  138MOL   H16141535   5.212   4.731   4.408 -0.7578 -1.7192  2.2994
  138MOL   H16241536   5.195   4.511   4.538  0.2356 -0.4645  0.2297
  138MOL   H16341537   4.975   4.470   4.560 -3.3803 -0.1744  0.7210
  138MOL   H16441538   4.749   4.515   4.479 -0.0902 -1.3844 -1.8723
  138MOL   H16541539   4.718   4.586   4.231  1.6113  2.6340 -0.5050
  138MOL   H16641540   4.919   4.584   4.084  0.2155  1.5280 -0.3380
  138MOL   C16741541   5.301   4.399   4.401 -0.0707 -0.1885 -0.0486
  138MOL   C16841542   5.281   4.264   4.479 -0.0542 -0.2593 -0.4976
  138MOL   C16941543   5.346   4.154   4.405 -0.5515  0.6845  0.0377
  138MOL   C17041544   5.274   4.035   4.372 -0.3016 -0.2359  0.9630
  138MOL   C17141545   5.341   3.931   4.306  0.1313  0.0988  0.3834
  138MOL   C17241546   5.483   3.936   4.288  0.1514 -0.1214  0.4462
  138MOL   C17341547   5.546   4.057   4.327  0.0346  0.1717 -0.1818
  138MOL   N17441548   5.477   4.162   4.380 -0.6918  0.5723  0.3332
  138MOL   H17541549   5.402   4.438   4.411 -1.2362  2.3242  2.4306
  138MOL   H17641550   5.294   4.385   4.293  0.0258  2.1697 -0.3723
  138MOL   H17741551   5.176   4.234   4.472 -0.2377  0.6774 -1.9043
  138MOL   H17841552   5.167   4.025   4.387 -0.2530 -1.0090  0.8095
  138MOL   H17941553   5.289   3.839   4.282 -0.9372  1.4967 -2.9397
  138MOL   H18041554   5.541   3.857   4.243 -0.0911  0.6084 -1.2101
  138MOL   H18141555   5.652   4.074   4.317  0.1695 -1.1081 -0.9919
  138MOL   C18241556   5.320   4.279   4.630 -0.6045 -0.6781 -0.0206
  138MOL   C18341557   5.268   4.156   4.713 -0.4820  0.2563  0.2350
  138MOL   C18441558   5.344   4.126   4.840 -0.2654 -0.0155  0.1931
  138MOL   C18541559   5.409   4.001   4.854 -1.0145 -0.1599  0.4219
  138MOL   C18641560   5.492   3.978   4.962 -0.1734  0.5098 -0.2239
  138MOL   C18741561   5.498   4.077   5.062  0.1560  0.6238  0.1012
  138MOL   C18841562   5.429   4.200   5.044  0.1548 -0.4359  0.6975
  138MOL   N18941563   5.353   4.223   4.934  0.4965 -0.5482  0.0087
  138MOL   H19041564   5.279   4.369   4.676  1.2384  0.9344 -1.4402
  138MOL   H19141565   5.428   4.282   4.638 -0.6512 -1.2122  0.9704
  138MOL   H19241566   5.276   4.069   4.648 -0.0960  0.2011  0.3505
  138MOL   H19341567   5.404   3.926   4.776 -0.8255 -0.8510  1.0614
  138MOL   H19441568   5.547   3.885   4.967  1.1291  1.2441 -0.4906
  138MOL   H19541569   5.566   4.056   5.143 -1.4767  0.9139  1.5920
  138MOL   H19641570   5.432   4.278   5.119  0.5610 -0.0021  0.2293
  138MOL   C19741571   5.116   4.161   4.747  0.0216  0.0033  0.6201
  138MOL   C19841572   5.036   4.048   4.814 -0.2509  0.3107 -0.5213
  138MOL   C19941573   5.007   3.930   4.722  0.0346 -0.7412 -0.6154
  138MOL   C20041574   5.107   3.836   4.673 -0.2063 -0.0540  0.5555
  138MOL   C20141575   5.068   3.739   4.589 -0.7213  0.8056 -0.0721
  138MOL   C20241576   4.932   3.726   4.562  0.6349  0.8677  0.1772
  138MOL   C20341577   4.839   3.820   4.604 -0.6657 -0.9081  0.4630
  138MOL   N20441578   4.875   3.913   4.691 -0.1960 -0.0497 -0.4110
  138MOL   H20541579   5.058   4.189   4.659 -0.3377  0.9107  1.1334
  138MOL   H20641580   5.108   4.247   4.814  2.7245  1.2883 -0.6169
  138MOL   H20741581   4.938   4.094   4.828 -0.3278 -0.2145  0.7014
  138MOL   H20841582   5.208   3.841   4.712 -0.1131  1.7689  0.1195
  138MOL   H20941583   5.134   3.663   4.550 -2.3092  0.0183 -1.2454
  138MOL   H21041584   4.891   3.658   4.488  1.4049  0.5461  0.0488
  138MOL   H21141585   4.734   3.822   4.581 -1.3378  1.0286  3.4466
  138MOL   C21241586   5.080   4.008   4.955  0.3049  0.2103 -0.4333
  138MOL   C21341587   4.978   3.938   5.047 -0.8426 -0.0751  0.1337
  138MOL   C21441588   5.048   3.896   5.175  0.4300  0.2591  0.7222
  138MOL   C21541589   5.054   3.763   5.225 -0.0381 -0.4532  0.0006
  138MOL   C21641590   5.115   3.745   5.351  0.2372 -0.2532 -0.9404
  138MOL   C21741591   5.170   3.857   5.415  0.5555  0.6073  0.5194
  138MOL   C21841592   5.157   3.982   5.358 -0.5164  0.1346  1.3779
  138MOL   N21941593   5.090   4.008   5.245 -0.3410  0.4465  0.4667
  138MOL   H22041594   5.117   4.097   5.006  0.8582 -0.0323 -0.4058
  138MOL   H22141595   5.160   3.934   4.953  0.8162  0.7007  1.0928
  138MOL   H22241596   4.962   3.847   4.990 -1.8610  1.9404 -2.9182
  138MOL   H22341597   5.024   3.678   5.165  0.1843 -0.6639  0.1888
  138MOL   H22441598   5.128   3.651   5.403  0.9334  0.1329 -0.4022
  138MOL   H22541599   5.228   3.836   5.504 -1.5011 -1.0916  1.4787
  138MOL   H22641600   5.194   4.067   5.413 -0.6488  1.0357  0.1039
  138MOL   C22741601   4.850   4.017   5.081 -0.3103  0.1265  0.7275
  138MOL   C22841602   4.743   3.950   5.177  0.7931  0.4953 -0.0441
  138MOL   C22941603   4.627   4.052   5.195  0.0349  0.3391 -0.0651
  138MOL   C23041604   4.582   4.108   5.320  0.1740  0.6086  0.2471
  138MOL   C23141605   4.457   4.176   5.323 -0.0558  0.0519 -0.5052
  138MOL   C23241606   4.384   4.192   5.205 -0.3678 -0.1065 -0.3945
  138MOL   C23341607   4.433   4.136   5.090  0.6165 -0.2115 -0.7750
  138MOL   N23441608   4.553   4.068   5.077 -0.1960  0.0295 -0.0396
  138MOL   H23541609   4.792   4.041   4.991  0.9536  0.2395 -0.0710
  138MOL   H23641610   4.874   4.120   5.105  0.7393 -0.0268  0.3867
  138MOL   H23741611   4.781   3.936   5.278  1.9112  3.9897  0.0979
  138MOL   H23841612   4.636   4.099   5.413 -1.7054 -3.0447  1.0923
  138MOL   H23941613   4.423   4.228   5.412  2.4940 -0.1215  0.6110
  138MOL   H24041614   4.290   4.247   5.208  0.0874  0.7302 -1.1445
  138MOL   H24141615   4.375   4.161   5.003 -0.4603  0.0157 -0.0021
  138MOL   C24241616   4.700   3.810   5.113  0.3171 -0.5583  0.2284
  138MOL   C24341617   4.621   3.721   5.214 -0.3117  0.6719 -0.2384
  138MOL   C24441618   4.546   3.613   5.134 -0.0722 -0.5266 -0.2266
  138MOL   C24541619   4.409   3.634   5.108 -0.3313  0.1538 -0.4638
  138MOL   C24641620   4.350   3.551   5.015 -0.0365  0.7555 -0.4547
  138MOL   C24741621   4.425   3.442   4.957  0.5397 -0.2286 -0.2742
  138MOL   C24841622   4.566   3.440   4.987  0.2923 -0.2502 -0.0802
  138MOL   N24941623   4.628   3.526   5.069  0.0624 -0.0073 -0.2700
  138MOL   H25041624   4.787   3.749   5.089  2.9528  3.8318 -1.9799
  138MOL   H25141625   4.649   3.828   5.018  1.1866 -2.4229 -0.6321
  138MOL   H25241626   4.549   3.781   5.270  1.4327  0.7670  1.9811
  138MOL   H25341627   4.360   3.710   5.166  1.1106 -0.4920  1.6570
  138MOL   H25441628   4.245   3.566   4.996 -0.3642 -1.6476 -0.7019
  138MOL   H25541629   4.379   3.371   4.889  0.7755  0.5977 -1.3126
  138MOL   H25641630   4.624   3.370   4.929 -0.0072 -1.2037  0.7579
  138MOL   C25741631   4.713   3.666   5.336 -0.2275  0.1981 -1.4834
  138MOL   C25841632   4.630   3.620   5.459  0.0796 -0.0420 -0.1566
  138MOL   C25941633   4.568   3.746   5.528  0.3728 -0.2066  0.2726
  138MOL   C26041634   4.430   3.761   5.535 -0.7443  0.7710  0.5821
  138MOL   C26141635   4.384   3.871   5.607 -0.5955  0.2908  0.5321
  138MOL   C26241636   4.475   3.960   5.663  0.0352 -0.2571  0.0722
  138MOL   C26341637   4.611   3.931   5.661 -0.3671  0.3997  1.0745
  138MOL   N26441638   4.658   3.828   5.588 -0.4049 -0.6070  0.2868
  138MOL   H26541639   4.792   3.733   5.371 -1.2244  0.1843  0.9091
  138MOL   H26641640   4.760   3.576   5.295  1.6919  1.0164 -1.1410
  138MOL   H26741641   4.706   3.589   5.531 -0.6454  1.1017  1.1267
  138MOL   H26841642   4.364   3.691   5.487 -1.5310  1.1873  1.0379
  138MOL   H26941643   4.279   3.890   5.594 -0.4985 -0.9184 -2.5015
  138MOL   H27041644   4.442   4.042   5.725 -0.3181  0.3197 -0.8655
  138MOL   H27141645   4.688   3.986   5.714 -1.4180  3.5134 -0.5214
  138MOL   C27241646   4.543   3.496   5.450  0.1156  0.4829  0.2468
  138MOL   C27341647   4.611   3.370   5.398  0.2940 -0.1995 -0.8823
  138MOL   C27441648   4.747   3.344   5.457  0.0119  0.3106 -0.2596
  138MOL   C27541649   4.853   3.308   5.370 -0.0302 -0.4582 -0.6450
  138MOL   C27641650   4.982   3.301   5.427  0.3042 -0.2086 -0.3968
  138MOL   C27741651   5.004   3.324   5.563  0.4322  0.4800  0.8206
  138MOL   C27841652   4.888   3.328   5.642 -0.2467 -0.2919  0.2872
  138MOL   N27941653   4.765   3.342   5.593 -0.0303 -0.3406 -0.2148
  138MOL   H28041654   4.468   3.521   5.375  0.7327 -1.7350 -1.1476
  138MOL   H28141655   4.494   3.485   5.546 -0.1006 -1.6232 -0.0718
  138MOL   H28241656   4.626   3.386   5.291  0.5106  0.6450 -0.7300
  138MOL   H28341657   4.851   3.304   5.262 -0.7681 -2.0377 -0.5884
  138MOL   H28441658   5.073   3.278   5.372  0.8542  1.0209 -0.0104
  138MOL   H28541659   5.102   3.316   5.607 -0.0824  0.2958  1.9663
  138MOL   H28641660   4.889   3.313   5.749 -2.9029 -0.5314  0.3209
  138MOL   C28741661   4.521   3.247   5.426  0.4972 -0.3091  0.2978
  138MOL   C28841662   4.571   3.103   5.377 -0.2732  0.0520 -0.0742
  138MOL   C28941663   4.571   3.084   5.228  0.2247 -0.0469  0.6986
  138MOL   C29041664   4.694   3.056   5.161 -0.6389 -0.3535  0.0277
  138MOL   C29141665   4.701   3.055   5.023  0.1822 -0.1089  0.4410
  138MOL   C29241666   4.586   3.101   4.953 -0.3515 -0.1017  0.7666
  138MOL   C29341667   4.466   3.122   5.024 -0.7342  0.1560  0.0823
  138MOL   N29441668   4.462   3.112   5.162 -0.3500 -0.7185  0.5548
  138MOL   H29541669   4.430   3.274   5.373 -0.2414 -1.3993  0.9928
  138MOL   H29641670   4.496   3.245   5.532  2.9178  3.0589  1.0218
  138MOL   H29741671   4.502   3.027   5.414 -0.3658 -0.8051 -1.9334
  138MOL   H29841672   4.785   3.042   5.218 -1.3645 -3.6474  0.5066
  138MOL   H29941673   4.795   3.033   4.973  0.1377 -2.6303  1.3699
  138MOL   H30041674   4.581   3.114   4.846 -1.8943 -0.9931  0.7278
  138MOL   H30141675   4.375   3.154   4.977 -0.3349 -0.6158 -1.2331
  138MOL   H30241676   4.667   3.080   5.422 -0.6228 -2.1133 -0.3336
  139MOL     C141677   1.626   6.118   1.451 -0.3212 -0.0380  0.0207
  139MOL     C241678   1.606   6.174   1.593 -0.4588  0.5116 -0.6240
  139MOL     C341679   1.582   6.073   1.703 -0.4427 -0.2656  0.6552
  139MOL     C441680   1.666   5.963   1.716  0.1508  0.2860 -0.1979
  139MOL     C541681   1.637   5.866   1.811  0.5420  0.6164  0.3558
  139MOL     C641682   1.516   5.870   1.883 -0.1603 -0.1690  0.1001
  139MOL     C741683   1.441   5.989   1.869 -0.3039 -0.1052 -0.1952
  139MOL     N841684   1.470   6.088   1.780 -0.0732 -0.0764 -0.5923
  139MOL     H941685   1.550   6.041   1.439  0.2064 -0.8693  1.8177
  139MOL    H1041686   1.636   6.192   1.372  1.4643 -2.1102 -1.7492
  139MOL    H1141687   1.515   6.235   1.590 -0.8921 -0.1600 -1.6933
  139MOL    H1241688   1.759   5.953   1.660  0.7124  2.6494  0.2603
  139MOL    H1341689   1.696   5.776   1.821 -0.9395 -0.3130  0.9249
  139MOL    H1441690   1.489   5.789   1.948 -3.3349  1.1062  0.4805
  139MOL    H1541691   1.346   5.993   1.920 -1.6869 -0.3005 -2.6927
  139MOL    H1641692   1.725   6.075   1.457 -0.5120 -0.6672 -1.2088
  139MOL    C1741693   1.725   6.264   1.640  0.4849 -0.0435  0.0234
  139MOL    C1841694   1.741   6.397   1.551  0.1389  0.0117  0.4757
  139MOL    C1941695   1.614   6.469   1.529 -0.1106  0.0065 -0.4328
  139MOL    C2041696   1.547   6.467   1.407  0.4498  0.1895  0.1745
  139MOL    C2141697   1.429   6.533   1.392  0.1125 -0.4768 -0.2893
  139MOL    C2241698   1.381   6.607   1.501 -0.5340 -0.2511  0.0163
  139MOL    C2341699   1.454   6.610   1.624 -0.2315 -0.3541  0.0926
  139MOL    N2441700   1.563   6.528   1.640 -0.2354  0.3262  0.2979
  139MOL    H2541701   1.818   6.208   1.641  0.7425  0.3730 -0.3539
  139MOL    H2641702   1.700   6.300   1.739 -1.4418  2.9419 -1.4638
  139MOL    H2741703   1.778   6.360   1.456  0.2697  1.0138  0.1277
  139MOL    H2841704   1.584   6.422   1.316 -0.5510 -0.6386  0.1669
  139MOL    H2941705   1.364   6.554   1.308 -1.8449 -1.3211  0.9759
  139MOL    H3041706   1.285   6.656   1.491 -0.5115 -0.5937 -2.1338
  139MOL    H3141707   1.414   6.667   1.707 -0.3544  0.8677 -0.7956
  139MOL    C3241708   1.840   6.491   1.625 -0.2025  0.2367 -0.1997
  139MOL    C3341709   1.990   6.457   1.597  0.1865  0.2009  0.0252
  139MOL    C3441710   2.016   6.499   1.452  0.1722 -0.3931  0.7394
  139MOL    C3541711   2.017   6.409   1.344  0.2024 -0.6656  0.6346
  139MOL    C3641712   2.049   6.465   1.215 -0.1165  0.0361 -0.5282
  139MOL    C3741713   2.069   6.606   1.198 -0.2687  0.7950 -0.3923
  139MOL    C3841714   2.063   6.687   1.315 -0.8688  0.0415  0.0596
  139MOL    N3941715   2.028   6.633   1.437 -0.3633  0.1979  0.2638
  139MOL    H4041716   1.827   6.490   1.733  1.3345 -1.6679  0.0028
  139MOL    H4141717   1.811   6.591   1.593  2.8135  0.7047 -1.5716
  139MOL    H4241718   2.005   6.349   1.602 -1.2687  0.0281  1.0096
  139MOL    H4341719   2.004   6.303   1.357  0.9393 -0.6779  1.3530
  139MOL    H4441720   2.055   6.400   1.128 -1.6467  0.5125 -1.0045
  139MOL    H4541721   2.089   6.652   1.103  2.7155  2.0677  0.7938
  139MOL    H4641722   2.074   6.793   1.296  0.3711 -0.1113 -0.1658
  139MOL    C4741723   2.097   6.508   1.701 -0.5592 -0.1715  0.6884
  139MOL    C4841724   2.099   6.437   1.840 -0.2440  0.4405  0.0503
  139MOL    C4941725   2.111   6.285   1.831  0.8067 -0.5696 -0.1430
  139MOL    C5041726   2.006   6.197   1.875  0.2446  0.1642 -0.3252
  139MOL    C5141727   2.034   6.060   1.868 -0.5423  0.0654  0.1695
  139MOL    C5241728   2.158   6.017   1.812 -0.3507  0.0664 -0.2419
  139MOL    C5341729   2.241   6.113   1.748 -0.4058 -0.2148 -0.0668
  139MOL    N5441730   2.223   6.245   1.770 -0.1882 -0.2597 -0.0142
  139MOL    H5541731   2.091   6.617   1.712  0.6969  0.2054 -1.8958
  139MOL    H5641732   2.193   6.485   1.656  0.8753  2.5651  2.1781
  139MOL    H5741733   2.006   6.461   1.891 -0.8107  2.6339 -1.9162
  139MOL    H5841734   1.918   6.244   1.917 -0.1138  0.0488 -0.9345
  139MOL    H5941735   1.962   5.983   1.893 -0.6498 -0.0415 -0.4641
  139MOL    H6041736   2.169   5.910   1.800  1.7313  0.2286 -0.0148
  139MOL    H6141737   2.331   6.092   1.692 -1.4740 -0.2088 -1.8262
  139MOL    C6241738   2.212   6.492   1.937  0.6568  0.0473  0.3638
  139MOL    C6341739   2.210   6.642   1.978  0.2358 -0.4607  0.2373
  139MOL    C6441740   2.073   6.678   2.048 -0.5432  0.5850  0.1055
  139MOL    C6541741   2.032   6.627   2.174 -0.3851  0.1851 -0.2587
  139MOL    C6641742   1.904   6.655   2.214  0.5534 -0.5577 -0.3924
  139MOL    C6741743   1.819   6.733   2.133 -0.2678  0.5529  0.3434
  139MOL    C6841744   1.873   6.792   2.017  0.1572 -0.0210 -0.2881
  139MOL    N6941745   1.989   6.756   1.972 -0.0999 -0.5002  0.1021
  139MOL    H7041746   2.301   6.452   1.889 -0.5698 -0.3468 -1.6186
  139MOL    H7141747   2.219   6.430   2.027  1.8294  1.1703  1.0743
  139MOL    H7241748   2.209   6.709   1.893 -2.3110  2.5041  2.4854
  139MOL    H7341749   2.099   6.562   2.228 -1.4961  1.7970  3.2102
  139MOL    H7441750   1.863   6.626   2.310  0.1957 -1.5535 -0.8435
  139MOL    H7541751   1.718   6.746   2.169  0.6067 -0.7655  3.4129
  139MOL    H7641752   1.807   6.846   1.950 -1.4332 -3.5741 -1.7341
  139MOL    C7741753   2.328   6.695   2.067  0.2146  0.4204  0.7742
  139MOL    C7841754   2.467   6.718   2.010  0.1208 -0.4310 -1.0626
  139MOL    C7941755   2.454   6.753   1.857 -0.2780 -0.4276  0.3066
  139MOL    C8041756   2.443   6.883   1.812 -0.1854 -0.3949  0.6729
  139MOL    C8141757   2.412   6.908   1.677 -0.6804  0.5140 -0.4931
  139MOL    C8241758   2.395   6.799   1.590 -0.3084  0.0956 -0.3921
  139MOL    C8341759   2.422   6.672   1.645 -0.0023 -0.8556  0.6343
  139MOL    N8441760   2.454   6.648   1.771 -0.1738 -0.1829 -0.3295
  139MOL    H8541761   2.327   6.633   2.157  0.2675 -2.2615 -1.0200
  139MOL    H8641762   2.301   6.795   2.100  0.7989  0.7667  0.2268
  139MOL    H8741763   2.521   6.623   2.020 -0.4829 -0.8822 -2.0140
  139MOL    H8841764   2.456   6.968   1.878  3.4487 -1.2626  1.1945
  139MOL    H8941765   2.391   7.008   1.643 -2.0959  0.4256  0.0721
  139MOL    H9041766   2.373   6.813   1.485  0.3065 -0.0325 -0.5388
  139MOL    H9141767   2.441   6.585   1.584  1.5838  0.0787 -0.2460
  139MOL    C9241768   2.557   6.816   2.090  0.4963 -0.3163 -0.0652
  139MOL    C9341769   2.704   6.835   2.035  0.6453 -0.3696  0.0427
  139MOL    C9441770   2.761   6.966   2.080  0.0505  0.8803  0.1454
  139MOL    C9541771   2.808   7.053   1.982 -0.1830 -0.2776 -1.0169
  139MOL    C9641772   2.879   7.162   2.021  0.0299 -0.7127 -0.0394
  139MOL    C9741773   2.900   7.187   2.157  0.3522  0.6133 -0.0416
  139MOL    C9841774   2.835   7.101   2.251 -0.2369  0.0054 -0.7170
  139MOL    N9941775   2.771   6.986   2.209  0.1540  0.6723  0.1355
  139MOL   H10041776   2.550   6.793   2.196  1.6145  2.6986  0.7258
  139MOL   H10141777   2.516   6.917   2.093  1.4062  0.0176  1.2796
  139MOL   H10241778   2.694   6.843   1.927 -2.6295  2.1038  0.4669
  139MOL   H10341779   2.807   7.025   1.877 -0.5775 -0.3971 -0.9850
  139MOL   H10441780   2.926   7.238   1.960 -0.7485 -1.0817 -1.1110
  139MOL   H10541781   2.946   7.277   2.196 -1.3848  1.3477  0.3648
  139MOL   H10641782   2.846   7.112   2.357  1.0710  1.5964 -0.9937
  139MOL   C10741783   2.796   6.711   2.062  0.2411 -0.4595  0.1144
  139MOL   C10841784   2.942   6.736   2.027 -0.4473  0.7242  0.0382
  139MOL   C10941785   3.032   6.748   2.151  0.8111  0.0807  0.1221
  139MOL   C11041786   3.113   6.860   2.185 -0.6310  0.1659 -0.5621
  139MOL   C11141787   3.209   6.856   2.287  0.3596 -1.1210  0.5811
  139MOL   C11241788   3.211   6.739   2.365 -0.0819 -0.5906  0.4966
  139MOL   C11341789   3.125   6.630   2.327  0.2107  0.2951  0.2678
  139MOL   N11441790   3.032   6.635   2.225 -0.7921 -0.6684 -0.3611
  139MOL   H11541791   2.744   6.630   2.011 -0.5105 -0.2242  0.4858
  139MOL   H11641792   2.793   6.686   2.168 -1.8816 -1.1251 -0.0786
  139MOL   H11741793   2.950   6.831   1.976  0.1429  0.9208  0.4925
  139MOL   H11841794   3.118   6.949   2.123  2.9251 -1.0291 -2.1159
  139MOL   H11941795   3.270   6.943   2.308 -1.5549  0.4606 -0.2172
  139MOL   H12041796   3.278   6.720   2.448  0.7872  1.6261  0.3462
  139MOL   H12141797   3.121   6.534   2.376  1.6191 -1.6828 -3.2604
  139MOL   C12241798   3.003   6.631   1.932  0.0314 -0.0496  0.9200
  139MOL   C12341799   2.925   6.599   1.792 -0.1897  0.3455  0.2066
  139MOL   C12441800   2.914   6.719   1.704  0.5327 -0.1519  0.1827
  139MOL   C12541801   2.801   6.744   1.628 -0.4384  0.1647  0.0974
  139MOL   C12641802   2.786   6.850   1.543 -0.1266 -0.5690 -0.0890
  139MOL   C12741803   2.891   6.942   1.537 -0.2670 -0.3107 -0.1112
  139MOL   C12841804   3.014   6.902   1.607  0.9037  0.5449 -0.0164
  139MOL   N12941805   3.026   6.796   1.690 -0.1394  0.2383 -0.2845
  139MOL   H13041806   3.006   6.535   1.983 -0.5866  0.1410  1.3176
  139MOL   H13141807   3.107   6.663   1.921  0.2651 -0.7363  1.0952
  139MOL   H13241808   2.828   6.557   1.819 -0.1051  1.6041  2.5540
  139MOL   H13341809   2.714   6.682   1.640 -0.2211 -0.2270 -0.2931
  139MOL   H13441810   2.704   6.858   1.474  0.1553 -0.8242 -0.4579
  139MOL   H13541811   2.892   7.020   1.462 -1.9863  0.2757  0.4385
  139MOL   H13641812   3.107   6.955   1.593  1.1573  0.2027  0.3584
  139MOL   C13741813   2.981   6.486   1.697 -1.1002  0.3647  0.3733
  139MOL   C13841814   2.990   6.344   1.757 -0.6878 -0.3292  0.2310
  139MOL   C13941815   2.886   6.303   1.860  0.1148 -0.2071  0.5222
  139MOL   C14041816   2.920   6.250   1.985 -1.0730 -0.3340  0.2419
  139MOL   C14141817   2.819   6.211   2.076 -0.9387  0.0475 -0.4459
  139MOL   C14241818   2.687   6.214   2.031 -0.1360  0.5609  0.0243
  139MOL   C14341819   2.660   6.258   1.894  0.3037 -0.3578  0.0333
  139MOL   N14441820   2.758   6.301   1.816 -0.0161 -0.0816 -0.5248
  139MOL   H14541821   3.075   6.514   1.650 -1.6974  0.5433 -0.7114
  139MOL   H14641822   2.917   6.480   1.609 -3.2796 -1.9968  2.0037
  139MOL   H14741823   3.088   6.358   1.801 -0.2871  1.9221 -1.2875
  139MOL   H14841824   3.024   6.238   2.015 -0.4098 -1.2996 -2.3501
  139MOL   H14941825   2.851   6.176   2.173  2.5407  0.4648 -1.3840
  139MOL   H15041826   2.608   6.185   2.099 -0.2696 -0.3033 -0.4888
  139MOL   H15141827   2.563   6.250   1.848 -1.0085 -0.6820  2.7342
  139MOL   C15241828   3.008   6.235   1.651  0.0503 -0.6196 -0.0037
  139MOL   C15341829   2.962   6.251   1.504 -0.4758 -0.8345 -0.2991
  139MOL   C15441830   3.025   6.145   1.415 -0.2121  0.0978 -0.2698
  139MOL   C15541831   3.144   6.166   1.344  0.1634 -0.0800  0.2621
  139MOL   C15641832   3.197   6.059   1.271 -0.1348 -0.2258 -0.2044
  139MOL   C15741833   3.136   5.932   1.281 -0.3665  0.6503 -0.6430
  139MOL   C15841834   3.016   5.925   1.349 -0.5690 -0.4103 -0.4080
  139MOL   N15941835   2.969   6.024   1.429  0.3239  0.1746  0.6005
  139MOL   H16041836   2.993   6.136   1.693 -2.4174  0.8744  2.8779
  139MOL   H16141837   3.117   6.229   1.645  0.3042  1.1224  2.1198
  139MOL   H16241838   3.007   6.346   1.473 -2.0899  0.9086  2.4861
  139MOL   H16341839   3.183   6.267   1.340 -2.9439  1.0882 -3.0624
  139MOL   H16441840   3.283   6.067   1.207 -0.2907  2.7291 -0.0882
  139MOL   H16541841   3.169   5.847   1.223  0.0762 -0.3148  0.9978
  139MOL   H16641842   2.967   5.828   1.347 -3.6400  1.0791 -0.4171
  139MOL   C16741843   2.810   6.259   1.494 -0.7887  0.2221 -0.0806
  139MOL   C16841844   2.756   6.279   1.352 -0.4074 -0.5166 -0.2628
  139MOL   C16941845   2.612   6.239   1.347 -0.0932  0.4654  0.3632
  139MOL   C17041846   2.514   6.301   1.433 -0.1542 -0.3069 -0.3718
  139MOL   C17141847   2.390   6.243   1.435  0.2233  0.3637 -0.0313
  139MOL   C17241848   2.361   6.128   1.360 -0.1225  0.0824 -0.4131
  139MOL   C17341849   2.457   6.072   1.282 -0.5976 -0.0031  0.0745
  139MOL   N17441850   2.585   6.131   1.271 -0.1123 -0.3323 -0.1386
  139MOL   H17541851   2.774   6.337   1.562 -0.5148 -1.9657  2.6588
  139MOL   H17641852   2.773   6.166   1.536 -0.2268  0.4687  0.9917
  139MOL   H17741853   2.805   6.204   1.290 -1.4466 -0.3133 -1.3418
  139MOL   H17841854   2.536   6.384   1.498 -1.4138 -0.6599  0.5277
  139MOL   H17941855   2.316   6.290   1.499  0.4663 -0.8714  1.1825
  139MOL   H18041856   2.266   6.076   1.368  0.2256 -1.0593 -3.0238
  139MOL   H18141857   2.430   5.988   1.220  3.0709 -1.0846 -0.1405
  139MOL   C18241858   2.781   6.429   1.310 -0.3909 -0.5250  0.5017
  139MOL   C18341859   2.742   6.458   1.164 -0.0430 -0.0232 -0.0713
  139MOL   C18441860   2.755   6.608   1.139  0.0434 -0.3545 -0.0858
  139MOL   C18541861   2.645   6.691   1.109  0.0785 -0.1450  0.0481
  139MOL   C18641862   2.654   6.832   1.123 -1.1678 -0.5452  0.2371
  139MOL   C18741863   2.777   6.878   1.178 -0.1614 -0.0811 -0.5525
  139MOL   C18841864   2.889   6.784   1.186  0.1341 -0.5145  0.2489
  139MOL   N18941865   2.877   6.650   1.172  0.8465  0.6711  0.2170
  139MOL   H19041866   2.889   6.447   1.318 -0.5027 -0.1788  1.2796
  139MOL   H19141867   2.737   6.492   1.387  4.2198  3.6280 -0.0051
  139MOL   H19241868   2.634   6.439   1.157 -0.0863 -1.7895  3.7752
  139MOL   H19341869   2.545   6.657   1.087 -0.1988  1.0143 -0.4925
  139MOL   H19441870   2.576   6.904   1.104 -1.0123 -0.0559  1.4235
  139MOL   H19541871   2.783   6.984   1.196 -0.4798 -0.1648  0.0605
  139MOL   H19641872   2.986   6.815   1.220  0.7478  1.3643 -3.0850
  139MOL   C19741873   2.807   6.369   1.057 -0.5984  0.0276 -0.2774
  139MOL   C19841874   2.783   6.393   0.911 -0.4988  0.5192  1.2663
  139MOL   C19941875   2.921   6.429   0.857 -0.0408 -0.4964 -0.9564
  139MOL   C20041876   2.964   6.563   0.847 -0.1157 -0.0254  0.1911
  139MOL   C20141877   3.097   6.593   0.824 -0.1736 -0.0336  0.1155
  139MOL   C20241878   3.190   6.488   0.805 -0.0443 -0.3573 -0.1412
  139MOL   C20341879   3.143   6.357   0.812  0.5967 -0.9154 -0.1400
  139MOL   N20441880   3.014   6.328   0.837  0.8551  0.0855  0.3306
  139MOL   H20541881   2.787   6.265   1.083  0.0428 -0.9228 -3.4132
  139MOL   H20641882   2.914   6.380   1.074 -1.1736  0.2742  3.5831
  139MOL   H20741883   2.725   6.485   0.898 -2.3685 -0.8892 -0.8805
  139MOL   H20841884   2.898   6.645   0.871 -1.1106 -0.4012 -1.2147
  139MOL   H20941885   3.128   6.696   0.834 -1.2289  0.0690  2.5768
  139MOL   H21041886   3.296   6.503   0.795  0.0269 -0.4992  0.3988
  139MOL   H21141887   3.210   6.272   0.809  0.4753 -0.9982 -0.5350
  139MOL   C21241888   2.729   6.268   0.830  0.5196  0.2754  0.3863
  139MOL   C21341889   2.585   6.222   0.873  0.5160 -0.7667 -0.3865
  139MOL   C21441890   2.493   6.338   0.892 -0.7792 -0.6499  0.1060
  139MOL   C21541891   2.434   6.350   1.018 -0.1628  0.2119 -0.3965
  139MOL   C21641892   2.346   6.459   1.039 -0.3741  0.4776  0.0798
  139MOL   C21741893   2.308   6.541   0.929 -0.0534  0.3765 -0.2774
  139MOL   C21841894   2.377   6.520   0.811 -0.4110 -0.3611 -1.1502
  139MOL   N21941895   2.476   6.423   0.791  0.0025 -0.3800 -0.0141
  139MOL   H22041896   2.794   6.184   0.855 -0.1405 -0.3081  0.1792
  139MOL   H22141897   2.735   6.276   0.721  0.9655 -1.6363  0.2340
  139MOL   H22241898   2.597   6.171   0.969  2.6013  1.6759  0.7114
  139MOL   H22341899   2.450   6.283   1.101 -1.9224  0.2811  0.0352
  139MOL   H22441900   2.311   6.485   1.138  0.4573  1.9497 -0.0034
  139MOL   H22541901   2.248   6.629   0.945  0.4256  0.5598  0.5610
  139MOL   H22641902   2.373   6.602   0.741  0.9736 -0.7011 -1.6526
  139MOL   C22741903   2.523   6.120   0.777  0.3601  0.9380  0.3490
  139MOL   C22841904   2.607   5.995   0.742 -0.1717  0.6663 -0.3209
  139MOL   C22941905   2.654   5.911   0.858 -0.2997 -0.4007  0.1842
  139MOL   C23041906   2.791   5.874   0.888 -0.6934 -0.0277  0.1035
  139MOL   C23141907   2.802   5.805   1.009 -0.0699 -0.0337  0.3666
  139MOL   C23241908   2.695   5.771   1.088  0.0850  0.1258 -0.4457
  139MOL   C23341909   2.570   5.803   1.041  0.2645 -0.4596 -0.3502
  139MOL   N23441910   2.544   5.869   0.923 -0.3429  1.0692  0.0924
  139MOL   H23541911   2.495   6.173   0.686 -1.3063 -0.9337 -0.2764
  139MOL   H23641912   2.428   6.088   0.821 -0.3876 -0.0370 -1.8924
  139MOL   H23741913   2.698   6.029   0.692 -0.1971  0.7407 -0.3162
  139MOL   H23841914   2.878   5.893   0.827 -0.5909  0.8620  0.5077
  139MOL   H23941915   2.895   5.767   1.050 -0.0276  0.0809  0.3796
  139MOL   H24041916   2.713   5.711   1.177  2.2655  0.3722 -0.7067
  139MOL   H24141917   2.482   5.766   1.091  0.2248  0.3855  0.2196
  139MOL   C24241918   2.546   5.905   0.632  0.8456 -1.1402 -0.0159
  139MOL   C24341919   2.633   5.795   0.566 -0.1335  0.2719  0.7515
  139MOL   C24441920   2.546   5.705   0.482  0.6065  0.0108  0.0467
  139MOL   C24541921   2.526   5.575   0.523 -0.5342 -0.3888  0.2408
  139MOL   C24641922   2.468   5.478   0.437 -0.4084  0.3120 -0.0127
  139MOL   C24741923   2.426   5.521   0.308  0.2207  0.2466 -0.2076
  139MOL   C24841924   2.439   5.658   0.283  0.1282 -0.2920  0.4164
  139MOL   N24941925   2.491   5.750   0.367 -0.2781  0.5971  0.1080
  139MOL   H25041926   2.504   5.969   0.555 -1.4486 -2.5870 -0.0198
  139MOL   H25141927   2.453   5.860   0.666 -1.3592  1.4003 -2.5279
  139MOL   H25241928   2.683   5.732   0.640 -0.5873  0.3461  1.1242
  139MOL   H25341929   2.577   5.538   0.612 -0.9544  2.5208  1.7433
  139MOL   H25441930   2.471   5.376   0.472  1.8502  0.2279 -0.3404
  139MOL   H25541931   2.394   5.454   0.230  0.3498  2.2341 -1.9959
  139MOL   H25641932   2.402   5.706   0.194  0.8524  2.6535  1.6446
  139MOL   C25741933   2.747   5.848   0.487  0.7569 -0.4929 -1.0918
  139MOL   C25841934   2.857   5.754   0.422 -0.1864  0.4022 -0.2179
  139MOL   C25941935   2.912   5.826   0.305  0.6126  0.2040 -0.5237
  139MOL   C26041936   2.884   5.787   0.179 -0.4958 -0.5903  0.4093
  139MOL   C26141937   2.933   5.858   0.070  0.2748  0.3062  0.0303
  139MOL   C26241938   3.004   5.980   0.098 -0.3499  0.0726  0.0382
  139MOL   C26341939   3.031   6.017   0.236  0.4611 -0.4853  0.8821
  139MOL   N26441940   2.989   5.936   0.331  0.0653  0.2632  0.2007
  139MOL   H26541941   2.800   5.919   0.552 -0.1764 -1.3065  0.5913
  139MOL   H26641942   2.715   5.917   0.409  3.1673  0.3816 -1.3612
  139MOL   H26741943   2.792   5.670   0.398 -0.5814  0.3862  0.8726
  139MOL   H26841944   2.842   5.688   0.167  0.5929 -1.0801  0.6012
  139MOL   H26941945   2.903   5.812   8.129 -0.3389  0.3916  0.1879
  139MOL   H27041946   3.043   6.051   0.026  0.9016 -2.2370 -1.6070
  139MOL   H27141947   3.096   6.099   0.263 -1.6189  1.7915 -0.8044
  139MOL   C27241948   2.971   5.712   0.517  0.2028 -0.5827  0.2702
  139MOL   C27341949   2.951   5.580   0.594  0.6370  0.6021  0.5401
  139MOL   C27441950   2.886   5.468   0.514  0.3973  0.1099 -0.3311
  139MOL   C27541951   2.781   5.393   0.575 -0.4523 -0.4015  0.2151
  139MOL   C27641952   2.730   5.286   0.501  0.0110  0.4502  0.1957
  139MOL   C27741953   2.778   5.267   0.372 -0.2267  0.6985 -0.1857
  139MOL   C27841954   2.881   5.342   0.324 -0.3322  0.4794  1.1327
  139MOL   N27941955   2.935   5.444   0.395 -0.3352  0.9098  0.4477
  139MOL   H28041956   3.020   5.796   0.566  1.1958 -0.5861 -0.6834
  139MOL   H28141957   3.051   5.679   0.451 -0.1279 -1.1843  0.1700
  139MOL   H28241958   2.883   5.599   0.677  1.3110  0.3490  1.1532
  139MOL   H28341959   2.753   5.417   0.676 -2.2899 -0.9324 -0.1590
  139MOL   H28441960   2.664   5.213   0.546 -0.2054  0.2130 -0.5033
  139MOL   H28541961   2.743   5.186   0.310  1.5559 -1.1860  1.1939
  139MOL   H28641962   2.910   5.340   0.220  0.1152 -1.4522  1.2759
  139MOL   C28741963   3.082   5.535   0.660  0.2507  0.5470  0.3783
  139MOL   C28841964   3.114   5.629   0.776  0.3325 -0.0825 -0.0631
  139MOL   C28941965   3.177   5.560   0.894  0.0747  0.0239  0.0565
  139MOL   C29041966   3.272   5.459   0.883 -0.8563 -0.3513  0.3823
  139MOL   C29141967   3.334   5.418   0.995 -0.8240 -0.4882 -0.1948
  139MOL   C29241968   3.290   5.467   1.121  0.3684 -0.2677 -0.4401
  139MOL   C29341969   3.183   5.558   1.123 -0.0342 -0.6941  0.1022
  139MOL   N29441970   3.127   5.602   1.012 -1.2605  0.4596  0.1750
  139MOL   H29541971   3.167   5.531   0.593 -0.8978 -1.4701 -1.0047
  139MOL   H29641972   3.082   5.433   0.698  0.7500  1.0415  1.7462
  139MOL   H29741973   3.028   5.688   0.807  0.7664 -0.3900  1.7804
  139MOL   H29841974   3.312   5.429   0.788  0.5988  0.4643  0.7220
  139MOL   H29941975   3.407   5.340   0.984 -0.7788 -0.3564 -0.8177
  139MOL   H30041976   3.329   5.439   1.218  2.1079 -0.2194 -1.1092
  139MOL   H30141977   3.146   5.592   1.219 -3.3121 -1.8452 -0.7055
  139MOL   H30241978   3.191   5.693   0.733  0.3277 -0.3765 -0.5125
  140MOL     C141979   5.455   3.113   3.677 -0.2522  0.3054  0.0719
  140MOL     C241980   5.430   3.004   3.570  0.0721 -0.3550 -0.1934
  140MOL     C341981   5.384   3.074   3.441 -0.0533  0.0689 -0.2587
  140MOL     C441982   5.246   3.099   3.414  0.4899  0.2069 -0.2939
  140MOL     C541983   5.221   3.167   3.296 -0.0719 -0.0720 -0.4592
  140MOL     C641984   5.324   3.205   3.210  0.6871  0.1373 -0.1114
  140MOL     C741985   5.455   3.182   3.253 -0.2203 -0.0202  0.9767
  140MOL     N841986   5.489   3.118   3.365  0.4687  0.3677  0.7482
  140MOL     H941987   5.529   3.190   3.652 -0.0298  0.9870  2.5933
  140MOL    H1041988   5.365   3.167   3.704 -1.3131 -2.0676  1.4398
  140MOL    H1141989   5.341   2.948   3.599  0.1192 -1.0447 -1.3438
  140MOL    H1241990   5.166   3.064   3.478  0.2785  0.9282 -0.1645
  140MOL    H1341991   5.121   3.197   3.271  0.0726  0.9479  0.1552
  140MOL    H1441992   5.307   3.266   3.122  0.9805  0.5547  0.1187
  140MOL    H1541993   5.538   3.225   3.200 -2.0583  0.1445 -1.8636
  140MOL    H1641994   5.483   3.067   3.772 -0.4090  0.3666  0.1468
  140MOL    C1741995   5.557   2.917   3.543  0.3955 -0.5428  0.8090
  140MOL    C1841996   5.595   2.815   3.658 -0.2028  0.2503  0.9715
  140MOL    C1941997   5.481   2.715   3.674  0.2046 -0.4116 -0.0735
  140MOL    C2041998   5.410   2.694   3.796  0.1565 -0.0113 -0.3215
  140MOL    C2141999   5.306   2.603   3.802 -0.4364  0.2236  0.1412
  140MOL    C2242000   5.277   2.525   3.688 -0.4876 -0.2602 -0.8098
  140MOL    C2342001   5.343   2.557   3.567  0.1331  0.7146 -0.6420
  140MOL    N2442002   5.436   2.651   3.559  0.2384  0.5010 -0.5382
  140MOL    H2542003   5.645   2.977   3.522  0.0611  1.1180  3.9449
  140MOL    H2642004   5.540   2.863   3.449  0.5607  0.7450  0.0246
  140MOL    H2742005   5.610   2.865   3.754 -0.7575  0.5696  0.8943
  140MOL    H2842006   5.423   2.750   3.887  2.1483  1.1256 -1.2666
  140MOL    H2942007   5.254   2.582   3.894 -2.2489 -1.3055 -1.1796
  140MOL    H3042008   5.197   2.452   3.691 -0.9314  0.1217 -2.5858
  140MOL    H3142009   5.327   2.504   3.475  3.3411  2.0454 -2.0598
  140MOL    C3242010   5.724   2.726   3.636  0.1009 -0.3167 -0.1104
  140MOL    C3342011   5.858   2.806   3.608 -0.5356 -0.6333 -0.3799
  140MOL    C3442012   5.898   2.904   3.720 -0.1236  0.0200 -0.0423
  140MOL    C3542013   5.887   3.040   3.703 -0.4893  0.7447  0.3156
  140MOL    C3642014   5.934   3.120   3.806  0.4891 -0.1844 -0.5948
  140MOL    C3742015   5.971   3.063   3.933 -0.5736  0.7718 -0.2460
  140MOL    C3842016   5.970   2.922   3.945 -0.3677 -0.4021  0.4860
  140MOL    N3942017   5.932   2.845   3.838  0.5235  0.6204  0.0543
  140MOL    H4042018   5.700   2.657   3.555 -0.1205  0.4912 -0.7347
  140MOL    H4142019   5.735   2.656   3.720 -0.4725 -1.6539 -1.1248
  140MOL    H4242020   5.839   2.859   3.514 -1.5617 -2.1426 -1.0411
  140MOL    H4342021   5.846   3.084   3.613 -0.4275 -1.2945 -0.7213
  140MOL    H4442022   5.941   3.226   3.787  1.4287 -0.5022 -2.0789
  140MOL    H4542023   5.999   3.118   4.022  1.4526 -3.2766  1.7939
  140MOL    H4642024   5.994   2.872   4.037  0.2972 -0.8237  0.0828
  140MOL    C4742025   5.969   2.714   3.570  0.4134  0.4739  0.1807
  140MOL    C4842026   6.094   2.769   3.493  0.0513 -0.2765 -0.7161
  140MOL    C4942027   6.192   2.854   3.578 -0.2394  0.2715  0.2639
  140MOL    C5042028   6.219   2.989   3.546  0.4195  0.0727 -0.0389
  140MOL    C5142029   6.316   3.056   3.624 -0.5160  0.4835  0.2794
  140MOL    C5242030   6.376   2.988   3.731  0.2769 -0.1824 -0.1218
  140MOL    C5342031   6.342   2.855   3.754 -0.4018 -0.4795 -0.6532
  140MOL    N5442032   6.254   2.789   3.682 -0.0391 -0.0944 -0.2509
  140MOL    H5542033   5.928   2.639   3.503  0.7095  1.8030 -1.5112
  140MOL    H5642034   6.011   2.660   3.656 -0.3591 -0.0250  0.2439
  140MOL    H5742035   6.050   2.836   3.419  0.6440  1.5574  0.5660
  140MOL    H5842036   6.174   3.034   3.459 -0.8977 -2.7559 -0.8675
  140MOL    H5942037   6.341   3.160   3.608 -1.2400  0.7181  0.6480
  140MOL    H6042038   6.433   3.041   3.807  0.6242 -0.6908 -0.0277
  140MOL    H6142039   6.381   2.810   3.844 -1.4483 -1.0022 -0.4444
  140MOL    C6242040   6.175   2.659   3.422  0.3180  0.0665 -0.2729
  140MOL    C6342041   6.290   2.695   3.335  0.2023 -0.2546 -0.0170
  140MOL    C6442042   6.400   2.587   3.356 -0.7343 -0.0054 -0.1539
  140MOL    C6542043   6.490   2.603   3.463  0.4566  0.1898  0.3852
  140MOL    C6642044   6.580   2.496   3.497 -0.1676  0.4538 -0.2274
  140MOL    C6742045   6.562   2.372   3.433 -0.1316  0.4766 -0.6403
  140MOL    C6842046   6.468   2.368   3.331  0.9394  0.0930  0.4489
  140MOL    N6942047   6.390   2.469   3.287 -0.0552 -0.9556 -0.8064
  140MOL    H7042048   6.103   2.608   3.357 -1.6893  2.3733  0.0900
  140MOL    H7142049   6.206   2.588   3.498  0.4741  1.0122  0.5529
  140MOL    H7242050   6.338   2.786   3.371 -1.0015  0.7975 -1.0289
  140MOL    H7342051   6.489   2.695   3.519 -0.5719 -0.2443  1.0988
  140MOL    H7442052   6.645   2.503   3.584 -1.5928 -1.1591  0.9905
  140MOL    H7542053   6.618   2.286   3.465 -2.8594 -0.8255  0.8366
  140MOL    H7642054   6.467   2.284   3.264 -0.1754  0.6804 -0.2944
  140MOL    C7742055   6.258   2.700   3.186  0.3616  0.0406 -0.0106
  140MOL    C7842056   6.176   2.822   3.135 -0.0436  0.0365  0.1168
  140MOL    C7942057   6.261   2.948   3.144  0.0282  0.7014 -0.0662
  140MOL    C8042058   6.208   3.070   3.200 -0.6228  0.1675  0.1209
  140MOL    C8142059   6.289   3.182   3.200 -0.3366  0.4359 -0.4668
  140MOL    C8242060   6.422   3.177   3.147  0.3918  0.5116  0.1038
  140MOL    C8342061   6.462   3.052   3.102  0.5322  0.2382 -0.6292
  140MOL    N8442062   6.383   2.946   3.085 -0.2632  0.7446 -0.8193
  140MOL    H8542063   6.201   2.611   3.159 -1.1531  0.9419  0.1545
  140MOL    H8642064   6.349   2.696   3.126  2.0546 -0.2417  2.5147
  140MOL    H8742065   6.088   2.824   3.199 -2.4001 -1.6227 -2.9451
  140MOL    H8842066   6.107   3.076   3.237 -0.3615  1.3521  0.6998
  140MOL    H8942067   6.259   3.273   3.251 -0.0799  0.3816 -0.2151
  140MOL    H9042068   6.494   3.257   3.142 -0.3691  1.3141  1.5959
  140MOL    H9142069   6.565   3.036   3.072  1.1572  1.0218  1.0579
  140MOL    C9242070   6.126   2.808   2.985  0.0254  0.5927 -0.4466
  140MOL    C9342071   6.008   2.707   2.965  0.0712 -0.2916  0.2299
  140MOL    C9442072   5.894   2.755   3.053  0.1599 -0.6928  0.1687
  140MOL    C9542073   5.859   2.692   3.177  0.0821 -0.5193 -0.4710
  140MOL    C9642074   5.761   2.756   3.258 -0.5967  0.4348  0.4915
  140MOL    C9742075   5.694   2.872   3.219 -0.2736 -0.6632  0.1155
  140MOL    C9842076   5.739   2.929   3.097 -0.1715  0.2123 -0.1555
  140MOL    N9942077   5.833   2.872   3.015 -0.2135  0.7434  0.2895
  140MOL   H10042078   6.205   2.777   2.916 -1.8786 -5.4457 -0.2771
  140MOL   H10142079   6.088   2.905   2.954 -0.0512  0.5303 -0.5509
  140MOL   H10242080   6.036   2.610   3.006 -0.2003 -0.8941 -0.9868
  140MOL   H10342081   5.913   2.603   3.207  1.3107  0.3283 -0.0893
  140MOL   H10442082   5.739   2.717   3.356  0.4137 -1.4976 -0.0382
  140MOL   H10542083   5.612   2.914   3.275  0.0773 -0.5999  0.5928
  140MOL   H10642084   5.709   3.026   3.059  3.1710  0.7773 -1.5047
  140MOL   C10742085   5.964   2.672   2.818  0.2018 -0.2270  0.0622
  140MOL   C10842086   6.077   2.624   2.730 -0.1507 -0.1371  0.4136
  140MOL   C10942087   6.161   2.509   2.787 -0.4856 -0.2747  0.0523
  140MOL   C11042088   6.106   2.399   2.856  0.5672  0.6304  0.1069
  140MOL   C11142089   6.181   2.291   2.905 -0.3713 -0.6021 -0.2668
  140MOL   C11242090   6.316   2.306   2.896 -0.4531  0.6611 -0.3239
  140MOL   C11342091   6.373   2.422   2.841  0.6644  0.3893 -0.0782
  140MOL   N11442092   6.297   2.524   2.781  0.0822  0.9566  0.5449
  140MOL   H11542093   5.915   2.752   2.761 -1.0144 -0.3476  0.9170
  140MOL   H11642094   5.894   2.590   2.835 -0.4438 -0.1336 -2.0399
  140MOL   H11742095   6.135   2.716   2.729  0.5395 -0.5472  1.7441
  140MOL   H11842096   5.999   2.398   2.872  0.1755 -0.6994 -2.4274
  140MOL   H11942097   6.134   2.211   2.960 -0.2019  0.1211  0.9554
  140MOL   H12042098   6.394   2.245   2.940  0.0006  1.4883  0.0332
  140MOL   H12142099   6.480   2.431   2.845  0.5321  1.5063  2.2210
  140MOL   C12242100   6.037   2.608   2.580  0.9841  0.1265  0.4840
  140MOL   C12342101   5.977   2.474   2.534  0.2430 -0.3621 -0.0043
  140MOL   C12442102   5.859   2.434   2.612  0.2340  0.0324  0.3630
  140MOL   C12542103   5.845   2.303   2.666 -0.5716  0.2347  0.6246
  140MOL   C12642104   5.726   2.270   2.737 -0.2868  0.1051 -0.0897
  140MOL   C12742105   5.630   2.368   2.763  0.5686  0.2937 -0.3217
  140MOL   C12842106   5.642   2.490   2.694 -0.4544 -0.5964 -0.5295
  140MOL   N12942107   5.756   2.527   2.626 -0.2072 -0.2695  0.1931
  140MOL   H13042108   6.134   2.608   2.532  2.5298 -0.6584  3.4856
  140MOL   H13142109   5.970   2.689   2.551 -0.8723 -1.5983 -0.1646
  140MOL   H13242110   6.052   2.395   2.532  0.7601  0.1582 -1.8975
  140MOL   H13342111   5.918   2.225   2.647  0.5374  1.0953  1.3221
  140MOL   H13442112   5.712   2.166   2.761 -0.5219 -0.0094 -0.6981
  140MOL   H13542113   5.539   2.336   2.811 -0.2805 -1.0302 -2.6808
  140MOL   H13642114   5.565   2.565   2.695  0.6173  0.5375  0.9208
  140MOL   C13742115   5.939   2.495   2.382 -0.3904 -0.6696  0.5961
  140MOL   C13842116   6.054   2.529   2.280  0.5452  0.4034  0.1547
  140MOL   C13942117   6.172   2.439   2.298  0.3637 -0.4836 -0.2577
  140MOL   C14042118   6.305   2.480   2.321  0.3826  0.0245 -0.5415
  140MOL   C14142119   6.405   2.376   2.321  0.5112 -0.5694  0.5291
  140MOL   C14242120   6.365   2.239   2.307 -0.1014  0.1170  0.1871
  140MOL   C14342121   6.231   2.216   2.274  0.3222  0.0838 -0.2400
  140MOL   N14442122   6.138   2.315   2.275 -0.7351  0.3991 -0.2740
  140MOL   H14542123   5.864   2.574   2.372  1.8024  1.0421 -3.4826
  140MOL   H14642124   5.902   2.405   2.331  1.5612  0.0372 -2.1284
  140MOL   H14742125   6.099   2.624   2.307  2.0664 -0.3319  0.2494
  140MOL   H14842126   6.322   2.586   2.332  0.9665 -0.2458  1.2859
  140MOL   H14942127   6.506   2.414   2.326 -0.0977  1.8869 -3.5389
  140MOL   H15042128   6.444   2.165   2.319 -0.3437  0.1434  2.0694
  140MOL   H15142129   6.193   2.117   2.252 -0.2580  0.2276  0.1143
  140MOL   C15242130   6.020   2.526   2.125  0.6911 -0.5554 -0.6969
  140MOL   C15342131   6.136   2.585   2.033  0.4927 -0.1930 -0.7096
  140MOL   C15442132   6.165   2.487   1.916 -0.0410 -0.6378  0.5165
  140MOL   C15542133   6.135   2.516   1.780  0.2259  0.0006  0.0405
  140MOL   C15642134   6.174   2.421   1.686 -0.4184  0.6121  0.4872
  140MOL   C15742135   6.239   2.303   1.721 -0.2834  0.1569 -0.1259
  140MOL   C15842136   6.258   2.280   1.856  0.5548 -0.2108 -0.9058
  140MOL   N15942137   6.231   2.367   1.952 -0.0674 -0.2947 -0.6955
  140MOL   H16042138   5.925   2.576   2.107  0.5459 -0.2878  0.7221
  140MOL   H16142139   5.997   2.424   2.096  1.5731 -0.8606 -0.3389
  140MOL   H16242140   6.226   2.589   2.094  1.0948 -0.8607 -1.5438
  140MOL   H16342141   6.076   2.601   1.752  0.2085 -0.2121 -0.5689
  140MOL   H16442142   6.163   2.446   1.582 -0.8094  1.4566  0.7292
  140MOL   H16542143   6.269   2.221   1.657 -2.3465 -1.0759  0.4695
  140MOL   H16642144   6.313   2.193   1.888  3.2887  1.6703 -0.3550
  140MOL   C16742145   6.107   2.730   1.985 -0.1492  0.2664 -0.0363
  140MOL   C16842146   6.131   2.840   2.093 -0.0990  0.0925  0.0426
  140MOL   C16942147   6.189   2.964   2.015 -0.7279 -0.0015 -0.3001
  140MOL   C17042148   6.325   2.989   2.040 -0.2370 -0.1726 -0.1321
  140MOL   C17142149   6.360   3.120   1.988  0.1056 -0.2773 -0.3430
  140MOL   C17242150   6.267   3.198   1.920 -0.7029 -0.0775  0.1062
  140MOL   C17342151   6.140   3.149   1.885 -0.9847 -0.3572  0.6229
  140MOL   N17442152   6.102   3.031   1.935  0.2754  0.0833 -0.6150
  140MOL   H17542153   6.013   2.732   1.931  0.9111 -2.5886 -2.1763
  140MOL   H17642154   6.178   2.745   1.903 -0.0374  1.1105  0.2100
  140MOL   H17742155   6.200   2.802   2.168  1.1486  2.9425  0.4058
  140MOL   H17842156   6.394   2.926   2.093 -0.3540 -0.9317 -0.8628
  140MOL   H17942157   6.458   3.160   2.006 -0.2340 -0.2257  1.4149
  140MOL   H18042158   6.293   3.296   1.883  2.2770 -1.2824 -1.1349
  140MOL   H18142159   6.063   3.192   1.823 -0.9512 -2.3213 -0.7987
  140MOL   C18242160   5.995   2.873   2.161  0.1949  0.6893 -0.4673
  140MOL   C18342161   6.009   2.990   2.261  0.3415  0.0383  1.0341
  140MOL   C18442162   5.878   3.007   2.347 -0.2723 -0.4802  0.7546
  140MOL   C18542163   5.810   3.128   2.351  0.2366  0.0273  0.3805
  140MOL   C18642164   5.678   3.132   2.406 -0.0354  0.4536  0.0787
  140MOL   C18742165   5.631   3.017   2.470 -0.0646  0.4484  0.2520
  140MOL   C18842166   5.717   2.906   2.469 -0.0936 -0.0409 -0.2066
  140MOL   N18942167   5.839   2.897   2.414  0.3976 -0.3413 -0.1206
  140MOL   H19042168   5.960   2.780   2.204  3.1796 -0.3977 -0.2899
  140MOL   H19142169   5.924   2.896   2.081 -0.4794  0.5723  0.0989
  140MOL   H19242170   6.022   3.078   2.198 -0.3371 -0.1730  0.5940
  140MOL   H19342171   5.852   3.215   2.304 -0.8993  0.9687  1.0967
  140MOL   H19442172   5.614   3.218   2.410  0.0719  0.5584 -0.4237
  140MOL   H19542173   5.534   3.014   2.516  0.4897 -1.1941  1.3728
  140MOL   H19642174   5.695   2.814   2.520  0.9347  0.3970  1.0615
  140MOL   C19742175   6.125   2.979   2.363 -0.2799  0.7179 -0.2328
  140MOL   C19842176   6.168   3.113   2.429 -0.5091  0.3813 -0.1360
  140MOL   C19942177   6.282   3.084   2.520 -0.2600 -0.1843 -0.0552
  140MOL   C20042178   6.281   3.103   2.663 -0.3810  0.1133 -0.3214
  140MOL   C20142179   6.388   3.046   2.742  0.4581  0.5265  0.1022
  140MOL   C20242180   6.489   2.985   2.672 -0.1610 -0.1919  0.7928
  140MOL   C20342181   6.486   2.979   2.533 -0.4640 -0.6165  0.2145
  140MOL   N20442182   6.388   3.032   2.460  0.0870  0.8912 -0.3878
  140MOL   H20542183   6.205   2.938   2.301 -3.0601 -1.6119 -2.3952
  140MOL   H20642184   6.108   2.897   2.432 -0.4314  0.2611 -0.8124
  140MOL   H20742185   6.089   3.145   2.497  0.9223 -0.1237  1.8325
  140MOL   H20842186   6.200   3.149   2.718 -2.4845 -0.3233 -2.9533
  140MOL   H20942187   6.391   3.052   2.850  2.3134  1.2825  0.0253
  140MOL   H21042188   6.575   2.943   2.724 -0.3528 -0.4529  0.9002
  140MOL   H21142189   6.563   2.937   2.470  1.0872  1.2898  0.7774
  140MOL   C21242190   6.200   3.221   2.327 -0.8429 -0.2041  0.0992
  140MOL   C21342191   6.280   3.343   2.372 -0.4651  0.1275 -0.3693
  140MOL   C21442192   6.337   3.417   2.246 -0.6484  0.1357  0.3947
  140MOL   C21542193   6.472   3.407   2.209 -0.3273 -0.2600 -0.3341
  140MOL   C21642194   6.514   3.461   2.090  0.3772  0.5003  0.0996
  140MOL   C21742195   6.420   3.533   2.019 -0.0570  0.2703  0.4944
  140MOL   C21842196   6.290   3.544   2.055  0.1253  0.5483  0.3602
  140MOL   N21942197   6.245   3.476   2.168 -0.1118 -0.1134  0.0588
  140MOL   H22042198   6.105   3.251   2.282  0.4338  0.4752 -2.2039
  140MOL   H22142199   6.256   3.164   2.253 -0.9788 -0.2328  0.0180
  140MOL   H22242200   6.365   3.298   2.423  0.3834  0.4235 -1.5118
  140MOL   H22342201   6.547   3.348   2.260  0.9307  1.9145  0.4006
  140MOL   H22442202   6.620   3.458   2.068  0.3903  1.2014  0.0336
  140MOL   H22542203   6.464   3.585   1.935  0.1525 -1.4632 -0.5040
  140MOL   H22642204   6.221   3.610   2.005  2.7659  2.0758 -1.4152
  140MOL   C22742205   6.197   3.423   2.471  0.5490 -0.3387 -0.5923
  140MOL   C22842206   6.263   3.552   2.530  0.2999  0.8610 -0.6635
  140MOL   C22942207   6.261   3.676   2.440  0.2569  0.3135 -0.3254
  140MOL   C23042208   6.380   3.723   2.379 -0.3843 -0.2687  0.2106
  140MOL   C23142209   6.388   3.852   2.313  0.6050 -0.5306  0.4440
  140MOL   C23242210   6.271   3.924   2.312 -0.5374  0.1144  0.1262
  140MOL   C23342211   6.160   3.865   2.379  0.3637  0.6154 -0.5155
  140MOL   N23442212   6.146   3.748   2.441 -0.3006  0.1866  0.8439
  140MOL   H23542213   6.160   3.366   2.556 -0.9048 -1.9597 -2.2594
  140MOL   H23642214   6.100   3.452   2.430  0.5977  0.7279  0.0130
  140MOL   H23742215   6.368   3.525   2.536  0.1596  0.6019  0.9684
  140MOL   H23842216   6.470   3.669   2.404 -0.4718 -0.3333  0.3883
  140MOL   H23942217   6.479   3.896   2.274  0.1288  1.3333  1.3673
  140MOL   H24042218   6.251   4.018   2.264  0.6502  1.4147  2.1034
  140MOL   H24142219   6.073   3.929   2.381 -1.7312 -2.0208 -1.9699
  140MOL   C24242220   6.209   3.581   2.676 -0.3253  0.2281  0.6967
  140MOL   C24342221   6.259   3.705   2.748 -0.7967  0.8294  0.1657
  140MOL   C24442222   6.181   3.720   2.879  0.1729  0.3490 -0.3024
  140MOL   C24542223   6.065   3.800   2.880  0.9045  0.6656 -0.0724
  140MOL   C24642224   5.985   3.797   3.000 -0.3151  0.4739  0.5960
  140MOL   C24742225   6.022   3.712   3.109  0.4227 -0.2722  0.2635
  140MOL   C24842226   6.141   3.640   3.094  0.5402  0.0120  0.0116
  140MOL   N24942227   6.223   3.639   2.987  0.4272 -0.0153  0.0471
  140MOL   H25042228   6.231   3.498   2.743 -0.5359 -1.8956 -1.7609
  140MOL   H25142229   6.100   3.592   2.671 -0.1668  0.8714 -2.8027
  140MOL   H25242230   6.234   3.788   2.680 -0.3860  0.9898  0.2121
  140MOL   H25342231   6.035   3.861   2.796 -0.4108  0.2161  0.0610
  140MOL   H25442232   5.896   3.858   2.994  1.8345  3.6470 -0.1515
  140MOL   H25542233   5.955   3.712   3.194  0.5202  1.2860  0.3551
  140MOL   H25642234   6.172   3.576   3.175  0.3603 -0.2529 -0.1270
  140MOL   C25742235   6.416   3.712   2.759 -0.3510  0.1711  0.1829
  140MOL   C25842236   6.470   3.856   2.799  0.1559 -0.5017  0.0415
  140MOL   C25942237   6.609   3.860   2.863 -0.2614 -0.1121  0.3198
  140MOL   C26042238   6.634   3.943   2.973  0.5089 -0.3974 -0.2076
  140MOL   C26142239   6.762   3.947   3.029 -0.2015 -0.4406  0.5040
  140MOL   C26242240   6.856   3.857   2.979 -0.4932 -0.7377  0.3168
  140MOL   C26342241   6.820   3.764   2.881 -0.2502 -0.4466  0.0729
  140MOL   N26442242   6.701   3.772   2.822 -1.4085  0.2529  0.5399
  140MOL   H26542243   6.462   3.691   2.662  0.0460  1.4352  0.0853
  140MOL   H26642244   6.453   3.639   2.831 -3.6232 -1.2390  0.5540
  140MOL   H26742245   6.411   3.903   2.877  2.4360 -0.1599  1.6312
  140MOL   H26842246   6.561   4.020   2.997 -0.6665 -1.7709  0.6893
  140MOL   H26942247   6.778   4.021   3.106  1.8901 -1.3099  0.9310
  140MOL   H27042248   6.947   3.852   3.038 -1.7512  0.3494  2.4056
  140MOL   H27142249   6.887   3.688   2.842  1.4015  1.3949 -0.7922
  140MOL   C27242250   6.465   3.964   2.687  0.2849  0.3690  0.1363
  140MOL   C27342251   6.344   4.056   2.657 -0.1299  0.2284 -0.2226
  140MOL   C27442252   6.251   4.083   2.773 -0.5828  0.0799 -0.6604
  140MOL   C27542253   6.112   4.080   2.758 -0.1081 -0.1983  0.3568
  140MOL   C27642254   6.024   4.110   2.872 -0.3751 -1.0881 -0.3734
  140MOL   C27742255   6.089   4.153   2.989 -0.3118  0.3884 -0.7214
  140MOL   C27842256   6.225   4.167   2.992 -0.9513 -0.2726  0.1157
  140MOL   N27942257   6.302   4.129   2.888  0.3583 -0.2783 -0.2790
  140MOL   H28042258   6.486   3.914   2.593 -2.8539  0.0136 -0.4417
  140MOL   H28142259   6.555   4.024   2.701  2.1305 -2.3867  0.3329
  140MOL   H28242260   6.283   3.991   2.596  0.2151  1.2708 -1.6947
  140MOL   H28342261   6.063   4.045   2.668  1.4545 -0.2541 -0.4853
  140MOL   H28442262   5.918   4.090   2.862 -0.2937 -0.3210 -3.3149
  140MOL   H28542263   6.025   4.167   3.075  2.2271 -1.5924  1.5556
  140MOL   H28642264   6.285   4.211   3.070  2.4478 -0.4518 -2.2976
  140MOL   C28742265   6.388   4.189   2.597 -0.1726 -0.3839  0.2412
  140MOL   C28842266   6.275   4.277   2.542  0.2872 -0.2180  0.1850
  140MOL   C28942267   6.328   4.408   2.485  0.1654 -0.0898  0.2602
  140MOL   C29042268   6.421   4.413   2.383 -0.3520 -0.7909  0.2342
  140MOL   C29142269   6.457   4.540   2.326 -0.4925 -0.3364  0.1631
  140MOL   C29242270   6.406   4.656   2.389  0.0985 -0.2499  0.2264
  140MOL   C29342271   6.319   4.645   2.495 -0.3646 -0.4544  0.4173
  140MOL   N29442272   6.278   4.523   2.537  0.6564 -0.4592  0.1312
  140MOL   H29542273   6.457   4.163   2.517  2.9577  0.1767  2.6480
  140MOL   H29642274   6.441   4.244   2.674  0.3330  0.4571 -0.6888
  140MOL   H29742275   6.196   4.292   2.616  0.4743 -3.0427  0.9920
  140MOL   H29842276   6.462   4.323   2.340 -3.5848 -2.5056  0.5715
  140MOL   H29942277   6.526   4.543   2.244  0.0516 -0.8529  0.6023
  140MOL   H30042278   6.444   4.749   2.349  1.1181 -1.2901 -1.2586
  140MOL   H30142279   6.289   4.723   2.563 -1.6390  0.5418 -1.2625
  140MOL   H30242280   6.229   4.218   2.462  1.7300 -0.2450 -0.6477
  141MOL     C142281   5.689   1.721   4.375 -0.1098  0.3040 -0.7357
  141MOL     C242282   5.770   1.607   4.444 -0.3715  1.0428 -0.8877
  141MOL     C342283   5.706   1.465   4.436 -0.0489 -0.4120  0.1437
  141MOL     C442284   5.646   1.400   4.545  0.3754 -0.0334 -0.6864
  141MOL     C542285   5.606   1.266   4.538  0.0719 -0.4953  0.1883
  141MOL     C642286   5.629   1.206   4.418  0.3232 -0.0873  0.0994
  141MOL     C742287   5.686   1.273   4.310 -0.1631 -0.0829 -0.4873
  141MOL     N842288   5.721   1.401   4.318 -0.0898  0.0541 -0.2692
  141MOL     H942289   5.582   1.712   4.396 -0.2376 -0.4287 -1.6518
  141MOL    H1042290   5.730   1.818   4.404  0.9480 -0.4429  0.2939
  141MOL    H1142291   5.749   1.615   4.551 -0.1218 -2.0597 -0.5833
  141MOL    H1242292   5.641   1.447   4.642  3.6555 -0.2508 -0.3254
  141MOL    H1342293   5.552   1.217   4.618  0.2181  0.7862  1.0901
  141MOL    H1442294   5.591   1.107   4.393 -1.0742  0.0253  1.6725
  141MOL    H1542295   5.707   1.218   4.219  2.2363 -1.7755  1.0442
  141MOL    H1642296   5.693   1.706   4.267  1.3926 -1.1989 -0.4849
  141MOL    C1742297   5.917   1.607   4.389  0.2478  0.0524  0.7353
  141MOL    C1842298   6.030   1.533   4.457 -0.1261  0.0669  0.5741
  141MOL    C1942299   6.156   1.558   4.373 -0.7708 -0.0571 -0.4105
  141MOL    C2042300   6.220   1.453   4.307 -0.2680 -0.2263 -0.2909
  141MOL    C2142301   6.336   1.487   4.227  0.3777  0.4198  0.5534
  141MOL    C2242302   6.380   1.620   4.223 -0.1587  0.9905  0.6540
  141MOL    C2342303   6.312   1.720   4.297  0.3054  0.2447  0.0885
  141MOL    N2442304   6.197   1.690   4.362 -0.2633  0.3708 -0.2398
  141MOL    H2542305   5.950   1.709   4.370 -0.7178  0.3734  0.7231
  141MOL    H2642306   5.912   1.575   4.285 -1.6314 -1.7146  1.3382
  141MOL    H2742307   6.010   1.428   4.438  2.1797 -0.1435 -1.0105
  141MOL    H2842308   6.188   1.351   4.317 -0.0619 -0.1706  0.9404
  141MOL    H2942309   6.394   1.416   4.170 -0.2174 -0.0409  0.5100
  141MOL    H3042310   6.471   1.648   4.171  0.1394 -0.0551  0.6016
  141MOL    H3142311   6.334   1.826   4.291  1.0717  0.1599  1.2440
  141MOL    C3242312   6.055   1.570   4.600 -0.1862 -0.2460  0.6730
  141MOL    C3342313   5.987   1.476   4.700 -0.1245  0.0027  0.4078
  141MOL    C3442314   6.020   1.327   4.687 -0.1150 -0.0176  0.0098
  141MOL    C3542315   5.922   1.227   4.692 -0.3684  0.1593  0.0194
  141MOL    C3642316   5.963   1.087   4.692 -0.0128 -0.4890 -0.3157
  141MOL    C3742317   6.098   1.062   4.668  0.1839  0.1914 -0.5290
  141MOL    C3842318   6.185   1.167   4.663 -0.2019  0.1309 -0.4399
  141MOL    N3942319   6.153   1.293   4.679  0.8243 -0.1548  0.4805
  141MOL    H4042320   6.020   1.672   4.613 -0.1675 -0.1472 -0.0161
  141MOL    H4142321   6.163   1.574   4.616 -0.2449  0.5915  0.8795
  141MOL    H4242322   5.881   1.487   4.678  0.2549 -0.6912 -1.8589
  141MOL    H4342323   5.824   1.253   4.731  0.6508  1.5071  1.7381
  141MOL    H4442324   5.899   1.000   4.685  0.4084 -0.8066 -0.2539
  141MOL    H4542325   6.129   0.959   4.656 -0.2016  0.0920 -0.6879
  141MOL    H4642326   6.289   1.143   4.651  0.0774  0.6552  0.9707
  141MOL    C4742327   6.020   1.526   4.847  0.0260  0.2255 -0.7858
  141MOL    C4842328   5.994   1.674   4.885  0.0002 -0.0858  0.1022
  141MOL    C4942329   5.846   1.716   4.868 -0.2038 -0.1339 -0.5151
  141MOL    C5042330   5.817   1.823   4.780 -0.1267  0.7823  0.5622
  141MOL    C5142331   5.680   1.858   4.758  0.3929 -0.2638  0.3056
  141MOL    C5242332   5.582   1.794   4.836  0.1222  0.4955  0.2962
  141MOL    C5342333   5.623   1.702   4.932 -0.0106  0.2209  0.2892
  141MOL    N5442334   5.752   1.663   4.947  0.3093 -0.1922 -1.2031
  141MOL    H5542335   6.125   1.509   4.872 -0.0025  0.7596 -0.2750
  141MOL    H5642336   5.969   1.454   4.911 -1.9388 -0.3371 -2.9236
  141MOL    H5742337   6.052   1.737   4.818  0.1873 -0.3061  0.0529
  141MOL    H5842338   5.894   1.865   4.717  1.2331 -1.6887  0.5274
  141MOL    H5942339   5.646   1.946   4.705 -1.9415 -0.0827  2.0449
  141MOL    H6042340   5.480   1.826   4.828  0.8333  3.2315  1.6280
  141MOL    H6142341   5.557   1.652   5.002 -1.2351  1.9596  0.3969
  141MOL    C6242342   6.043   1.716   5.024  0.3757  0.6233  0.1803
  141MOL    C6342343   6.185   1.769   5.012 -0.5426  0.3098 -0.5844
  141MOL    C6442344   6.187   1.920   4.982  0.3912 -0.3186 -0.6766
  141MOL    C6542345   6.204   1.977   4.855 -0.6150  0.0416  0.0117
  141MOL    C6642346   6.207   2.116   4.847  0.6138 -0.8881 -0.1882
  141MOL    C6742347   6.183   2.194   4.960  0.0179 -0.2212  0.0640
  141MOL    C6842348   6.160   2.126   5.080  0.2437 -0.1722  0.1559
  141MOL    N6942349   6.162   1.993   5.092 -0.1091  0.2936  0.6930
  141MOL    H7042350   6.029   1.628   5.087 -0.5848 -0.6228 -1.7255
  141MOL    H7142351   5.994   1.800   5.073  2.0687  1.9741 -0.3703
  141MOL    H7242352   6.247   1.720   4.937  1.2390 -0.9760  1.6879
  141MOL    H7342353   6.233   1.915   4.772 -0.5275  0.1984 -0.0745
  141MOL    H7442354   6.242   2.160   4.755  2.3961  0.0499  0.9139
  141MOL    H7542355   6.189   2.301   4.959  0.7463 -0.1873  3.0011
  141MOL    H7642356   6.126   2.192   5.158  1.9351 -0.0044  0.7609
  141MOL    C7742357   6.279   1.747   5.133 -0.0063  0.5274  0.1360
  141MOL    C7842358   6.323   1.600   5.170 -0.4725 -0.3360  0.1686
  141MOL    C7942359   6.396   1.535   5.049 -0.2415  0.4630 -0.1373
  141MOL    C8042360   6.342   1.422   4.991 -0.0795  0.9498  0.1532
  141MOL    C8142361   6.415   1.355   4.888 -0.2242 -0.1673  0.3518
  141MOL    C8242362   6.524   1.424   4.835 -0.1080 -0.6234  0.1050
  141MOL    C8342363   6.572   1.543   4.891 -0.0670  0.7460  0.0620
  141MOL    N8442364   6.506   1.600   4.998  0.2188  0.0937 -0.1578
  141MOL    H8542365   6.211   1.768   5.216 -1.0242 -1.5719 -0.1212
  141MOL    H8642366   6.361   1.818   5.135  0.4413  0.0258 -0.2453
  141MOL    H8742367   6.235   1.539   5.190  0.5017 -1.8807 -0.1769
  141MOL    H8842368   6.248   1.376   5.020 -0.6063 -0.1545 -3.0680
  141MOL    H8942369   6.380   1.261   4.846  1.4622 -0.5353 -0.2931
  141MOL    H9042370   6.577   1.379   4.752  2.3823  1.5426  0.4491
  141MOL    H9142371   6.660   1.599   4.864  0.5921 -0.7356 -0.9014
  141MOL    C9242372   6.414   1.593   5.294  0.0283 -0.6267  0.2884
  141MOL    C9342373   6.352   1.639   5.427  0.1092  0.3067  0.1531
  141MOL    C9442374   6.232   1.551   5.461  0.4369  0.1361 -0.0526
  141MOL    C9542375   6.239   1.420   5.498 -0.3007 -0.5446  1.0463
  141MOL    C9642376   6.131   1.343   5.524 -0.1421 -0.1903  0.4665
  141MOL    C9742377   6.003   1.399   5.506  0.3971 -0.0571 -0.8954
  141MOL    C9842378   5.998   1.536   5.465  0.1308  0.4633  0.1859
  141MOL    N9942379   6.112   1.614   5.449 -0.2230 -0.4410  0.3369
  141MOL   H10042380   6.504   1.647   5.263 -0.0056 -1.8154 -1.9443
  141MOL   H10142381   6.446   1.490   5.311  0.3070 -0.8820 -1.6341
  141MOL   H10242382   6.317   1.738   5.398 -1.6870 -0.7553 -1.4402
  141MOL   H10342383   6.333   1.366   5.506  0.0684 -0.8320 -4.0069
  141MOL   H10442384   6.143   1.239   5.551  1.5810 -0.3615 -0.8438
  141MOL   H10542385   5.917   1.335   5.520  1.6091 -1.6362 -0.4076
  141MOL   H10642386   5.902   1.581   5.447  0.5264  0.6680 -1.5167
  141MOL   C10742387   6.446   1.654   5.552  0.3373  0.0795 -0.0789
  141MOL   C10842388   6.382   1.658   5.692  0.2928 -0.5554 -0.6789
  141MOL   C10942389   6.466   1.603   5.807 -0.0677  0.8478  0.2607
  141MOL   C11042390   6.508   1.681   5.919  0.3440 -0.1865  0.6640
  141MOL   C11142391   6.559   1.620   6.033 -0.1985  0.2965 -0.5821
  141MOL   C11242392   6.557   1.487   6.036 -0.3353  0.1931 -0.1585
  141MOL   C11342393   6.526   1.414   5.915 -0.2934 -0.3503 -0.1024
  141MOL   N11442394   6.474   1.467   5.804  0.3892 -0.0394 -0.5868
  141MOL   H11542395   6.513   1.739   5.542  0.4379  0.3359  2.4297
  141MOL   H11642396   6.514   1.570   5.552 -0.4269 -0.5511  0.6883
  141MOL   H11742397   6.307   1.578   5.696  0.3767 -0.6444 -0.8865
  141MOL   H11842398   6.492   1.787   5.925  0.7338  0.0223 -1.6333
  141MOL   H11942399   6.593   1.681   6.115  1.4767 -1.8500  0.3901
  141MOL   H12042400   6.606   1.434   6.116 -2.3495 -0.8088  0.4597
  141MOL   H12142401   6.529   1.306   5.912 -2.3980 -0.5058  1.5361
  141MOL   C12242402   6.312   1.790   5.710  0.0627 -0.3902  0.3298
  141MOL   C12342403   6.200   1.798   5.822  0.8219  0.1384  0.0471
  141MOL   C12442404   6.157   1.947   5.837  0.0567 -0.8650  0.2426
  141MOL   C12542405   6.026   1.994   5.821 -0.2981 -0.5401 -1.3215
  141MOL   C12642406   6.000   2.129   5.835 -0.4604 -0.5370 -0.8379
  141MOL   C12742407   6.106   2.218   5.865  1.0272  0.2272 -0.9019
  141MOL   C12842408   6.235   2.176   5.867  0.0203  0.3280  1.1855
  141MOL   N12942409   6.256   2.038   5.856 -0.2063 -0.7438 -0.0962
  141MOL   H13042410   6.272   1.821   5.613  0.4436  2.3182  1.0020
  141MOL   H13142411   6.387   1.867   5.727 -1.0905  1.4362 -2.4508
  141MOL   H13242412   6.246   1.770   5.917  1.3688 -2.9160 -1.0597
  141MOL   H13342413   5.939   1.932   5.810  0.4919 -1.9291  0.0618
  141MOL   H13442414   5.903   2.177   5.833 -0.2807 -0.1666 -0.5714
  141MOL   H13542415   6.085   2.323   5.878 -0.2859 -0.0720 -0.4656
  141MOL   H13642416   6.320   2.239   5.886  0.1638  0.0662  1.4226
  141MOL   C13742417   6.081   1.701   5.798  0.1500  0.1945  0.3677
  141MOL   C13842418   6.006   1.645   5.923 -0.2566 -0.1563 -0.7301
  141MOL   C13942419   5.858   1.607   5.890  0.1879 -0.3955  0.0988
  141MOL   C14042420   5.752   1.686   5.940  0.3570 -0.0488 -0.2781
  141MOL   C14142421   5.618   1.641   5.913  0.1607  0.4870 -0.4020
  141MOL   C14242422   5.599   1.529   5.830 -0.6391 -0.2577 -0.5064
  141MOL   C14342423   5.711   1.456   5.787  0.0472  0.6719 -0.3561
  141MOL   N14442424   5.839   1.499   5.808  0.0281  0.1300 -0.0755
  141MOL   H14542425   6.111   1.612   5.743 -1.2312 -1.0954  1.6777
  141MOL   H14642426   6.001   1.738   5.734  0.0469  0.7553  0.8143
  141MOL   H14742427   5.998   1.737   5.982  1.5952 -0.6991  0.4338
  141MOL   H14842428   5.774   1.781   5.987 -2.6386  0.7841 -0.4494
  141MOL   H14942429   5.533   1.692   5.955  1.3519  1.8103  0.4968
  141MOL   H15042430   5.499   1.491   5.817 -0.4076 -0.7347 -0.9260
  141MOL   H15142431   5.697   1.367   5.727  0.1462  0.7717 -0.5272
  141MOL   C15242432   6.083   1.531   5.990  0.7837 -0.2320 -0.7307
  141MOL   C15342433   6.046   1.495   6.139  0.9112  0.7218  0.3295
  141MOL   C15442434   6.109   1.361   6.179 -0.1491  0.0082  0.3850
  141MOL   C15542435   6.029   1.248   6.207  0.1270  0.1673  0.3408
  141MOL   C15642436   6.093   1.126   6.237  0.9671 -0.8195  0.7354
  141MOL   C15742437   6.237   1.119   6.236 -0.3382  0.2139 -0.8904
  141MOL   C15842438   6.308   1.239   6.211  0.2375 -0.6026 -0.1450
  141MOL   N15942439   6.247   1.353   6.174 -0.1358 -0.2661  0.7618
  141MOL   H16042440   6.190   1.552   5.994  0.8774 -0.8322  0.2964
  141MOL   H16142441   6.075   1.443   5.925  0.3432  0.6056 -1.8205
  141MOL   H16242442   5.938   1.483   6.134  0.8486  1.6659 -0.8587
  141MOL   H16342443   5.922   1.264   6.216 -0.5776 -2.9664 -1.4863
  141MOL   H16442444   6.024   1.046   6.259  0.6662 -0.9405 -0.6117
  141MOL   H16542445   6.297   1.033   6.264  1.3019  0.3283 -3.9520
  141MOL   H16642446   6.416   1.230   6.206  0.1899 -0.8279 -0.9739
  141MOL   C16742447   6.085   1.607   6.243  0.0410 -0.4612  0.1153
  141MOL   C16842448   6.023   1.606   6.385 -0.7002 -0.2130  0.4024
  141MOL   C16942449   5.870   1.630   6.366  0.3785  0.0985  0.0402
  141MOL   C17042450   5.832   1.764   6.370  0.1784 -0.3719  0.0426
  141MOL   C17142451   5.697   1.798   6.358  0.3032  1.0926 -0.0354
  141MOL   C17242452   5.610   1.692   6.325 -0.2290 -0.7486 -0.1738
  141MOL   C17342453   5.661   1.558   6.329  0.0716  0.2148  0.1427
  141MOL   N17442454   5.788   1.526   6.348  0.3470 -0.1440  0.3135
  141MOL   H17542455   6.058   1.699   6.192  2.1897 -0.0097 -0.2491
  141MOL   H17642456   6.194   1.616   6.240 -0.0575  1.5377  1.4586
  141MOL   H17742457   6.054   1.693   6.443 -0.5027 -0.0078 -0.0144
  141MOL   H17842458   5.908   1.839   6.385  0.0367 -0.2769  0.2850
  141MOL   H17942459   5.676   1.904   6.363  1.4968  1.3436 -0.1784
  141MOL   H18042460   5.506   1.716   6.309 -0.4329 -2.3606 -1.3963
  141MOL   H18142461   5.597   1.476   6.301  0.8666  0.1574 -1.5487
  141MOL   C18242462   6.048   1.480   6.476  0.2467 -0.3554  0.2927
  141MOL   C18342463   6.189   1.459   6.523 -0.0905  0.6694  0.5417
  141MOL   C18442464   6.241   1.551   6.628 -0.2840 -0.5670 -0.3252
  141MOL   C18542465   6.196   1.539   6.760 -0.9839 -0.2691 -0.0667
  141MOL   C18642466   6.245   1.636   6.854 -0.8673 -0.4058  0.1322
  141MOL   C18742467   6.340   1.730   6.821  0.4445 -0.1903  0.0011
  141MOL   C18842468   6.381   1.730   6.687  0.0233  0.5024 -0.0206
  141MOL   N18942469   6.330   1.641   6.595  0.4848  0.2674  0.3150
  141MOL   H19042470   6.012   1.388   6.429  1.5482  0.3340 -2.1554
  141MOL   H19142471   5.987   1.495   6.565  0.4658 -0.6508  0.4944
  141MOL   H19242472   6.244   1.480   6.431 -0.1915 -0.6431  0.1654
  141MOL   H19342473   6.115   1.478   6.797 -1.3515  0.0760 -0.2900
  141MOL   H19442474   6.214   1.632   6.957  0.1108 -1.6017  0.3952
  141MOL   H19542475   6.387   1.797   6.893 -0.9967  0.7413  0.0939
  141MOL   H19642476   6.460   1.795   6.656  2.4797 -0.9548  2.8928
  141MOL   C19742477   6.198   1.309   6.565 -0.3271  0.5379  0.8768
  141MOL   C19842478   6.328   1.269   6.642  0.2278 -0.2306  0.0425
  141MOL   C19942479   6.329   1.132   6.695  0.2841 -0.2024 -0.5016
  141MOL   C20042480   6.341   1.115   6.837 -0.1744 -0.4264 -0.1584
  141MOL   C20142481   6.347   0.983   6.890  0.4127 -0.4498  1.1865
  141MOL   C20242482   6.338   0.876   6.798 -0.1696  0.6715 -0.3680
  141MOL   C20342483   6.313   0.903   6.660 -0.7025  0.1777 -0.5053
  141MOL   N20442484   6.312   1.028   6.609 -0.0324 -0.1303  0.2513
  141MOL   H20542485   6.193   1.241   6.480 -1.1497  2.0893 -0.3466
  141MOL   H20642486   6.110   1.281   6.623  0.2539 -1.5987  0.7789
  141MOL   H20742487   6.347   1.339   6.723  1.7085 -0.5091 -0.0621
  141MOL   H20842488   6.359   1.206   6.892  0.7143  0.1112 -1.3127
  141MOL   H20942489   6.360   0.972   6.996  1.4257 -1.0533  1.0145
  141MOL   H21042490   6.333   0.774   6.835 -2.1106  1.2804  1.1559
  141MOL   H21142491   6.277   0.832   6.588 -0.5268 -0.2026 -0.2224
  141MOL   C21242492   6.448   1.292   6.556 -0.1739 -0.2296 -0.4173
  141MOL   C21342493   6.585   1.316   6.621  0.6953 -0.6896  0.6151
  141MOL   C21442494   6.692   1.324   6.515  0.4000 -0.3530  0.6539
  141MOL   C21542495   6.774   1.217   6.488 -0.7260 -0.1620 -0.3625
  141MOL   C21642496   6.858   1.231   6.376 -0.3759 -0.5541 -0.3830
  141MOL   C21742497   6.863   1.357   6.312 -0.6322  0.4424 -0.3574
  141MOL   C21842498   6.779   1.458   6.346  0.1943 -0.3458  0.8899
  141MOL   N21942499   6.694   1.442   6.447  0.3052  0.5237 -0.0384
  141MOL   H22042500   6.439   1.377   6.488 -1.3159 -1.7674 -2.2171
  141MOL   H22142501   6.463   1.210   6.486  0.3738 -0.2023 -0.3381
  141MOL   H22242502   6.606   1.231   6.686  0.1666  0.1433  1.9055
  141MOL   H22342503   6.771   1.124   6.543  1.3381  1.3193  2.3538
  141MOL   H22442504   6.925   1.151   6.347  1.9928  1.0340  0.5330
  141MOL   H22542505   6.930   1.379   6.230  0.9466 -0.9004  0.5262
  141MOL   H22642506   6.772   1.552   6.293  0.3552 -0.5343  0.5328
  141MOL   C22742507   6.580   1.444   6.722 -0.9232  0.4091 -0.2173
  141MOL   C22842508   6.721   1.478   6.782  0.1736 -0.2459  0.3730
  141MOL   C22942509   6.734   1.621   6.824  0.1097 -0.4229  0.2315
  141MOL   C23042510   6.820   1.703   6.758 -0.8115 -0.0298  0.7796
  141MOL   C23142511   6.843   1.831   6.803 -0.2906 -0.4420  0.4293
  141MOL   C23242512   6.791   1.875   6.922  0.3264 -0.1642  0.6087
  141MOL   C23342513   6.695   1.789   6.981 -0.1790 -0.2647 -0.5544
  141MOL   N23442514   6.666   1.667   6.936 -0.4858  0.0401 -0.1021
  141MOL   H23542515   6.507   1.438   6.802 -0.5092  0.8126  0.1911
  141MOL   H23642516   6.546   1.528   6.662 -0.7091 -0.3219 -1.3844
  141MOL   H23742517   6.781   1.465   6.692 -0.5960  0.0145 -0.1809
  141MOL   H23842518   6.872   1.666   6.671 -0.5376  0.9002  0.5413
  141MOL   H23942519   6.911   1.896   6.751 -0.6359 -0.1619  0.3288
  141MOL   H24042520   6.797   1.978   6.953  2.0188  0.4775 -1.7215
  141MOL   H24142521   6.643   1.807   7.073  4.0501 -1.8124  2.2871
  141MOL   C24242522   6.746   1.366   6.888  0.3587  0.3105  0.2764
  141MOL   C24342523   6.880   1.379   6.959 -0.3497  0.2614 -0.0965
  141MOL   C24442524   6.878   1.293   7.084  0.1740 -0.5100  0.0031
  141MOL   C24542525   6.923   1.358   7.202 -0.1671  0.1212 -0.0356
  141MOL   C24642526   6.943   1.281   7.315  0.0129  0.4695 -0.4096
  141MOL   C24742527   6.924   1.139   7.312  0.6005 -0.1958  0.2228
  141MOL   C24842528   6.878   1.089   7.191 -0.3385 -0.3779  0.3872
  141MOL   N24942529   6.861   1.159   7.078  0.3599  0.4584  0.5306
  141MOL   H25042530   6.740   1.267   6.842  1.9318  0.0469  0.6017
  141MOL   H25142531   6.660   1.371   6.956 -0.1203  0.3130 -0.3271
  141MOL   H25242532   6.873   1.482   6.994 -0.4640  0.9436 -2.0589
  141MOL   H25342533   6.941   1.464   7.207 -0.9866  0.2143  1.2184
  141MOL   H25442534   6.978   1.320   7.409 -0.2673  0.4119 -0.2838
  141MOL   H25542535   6.933   1.079   7.401 -3.6379 -1.1040  0.1547
  141MOL   H25642536   6.873   0.983   7.169  1.5506 -0.4883  0.3562
  141MOL   C25742537   7.009   1.349   6.876  0.1178  0.5475 -0.5382
  141MOL   C25842538   7.140   1.390   6.948 -0.6592  0.0289  0.4063
  141MOL   C25942539   7.261   1.336   6.872  0.2056 -0.0694  0.2660
  141MOL   C26042540   7.335   1.219   6.912  0.0366  0.4500  0.0855
  141MOL   C26142541   7.439   1.175   6.834  0.9430 -0.2796  0.1746
  141MOL   C26242542   7.467   1.236   6.716 -0.2733  0.1742  0.2989
  141MOL   C26342543   7.391   1.342   6.676  0.1999  0.0717  0.8539
  141MOL   N26442544   7.293   1.395   6.752  0.0775  0.8609 -0.2229
  141MOL   H26542545   7.001   1.394   6.777 -0.5417  2.4454  0.3479
  141MOL   H26642546   7.005   1.244   6.848  2.1287 -0.4661  2.6835
  141MOL   H26742547   7.148   1.333   7.040  0.9599  0.9771  0.8743
  141MOL   H26842548   7.316   1.166   7.004 -1.3263  1.9592  0.6990
  141MOL   H26942549   7.484   1.086   6.875  0.2341  0.2297  2.1022
  141MOL   H27042550   7.539   1.204   6.643 -0.1519 -0.3218  0.6402
  141MOL   H27142551   7.397   1.393   6.581 -0.8408 -1.1883  0.1010
  141MOL   C27242552   7.153   1.539   6.983  1.1442 -0.1027  0.4515
  141MOL   C27342553   7.289   1.588   7.039 -0.9009  0.1770 -0.2741
  141MOL   C27442554   7.291   1.744   7.039 -0.2661 -0.3571 -0.6257
  141MOL   C27542555   7.182   1.814   7.088 -0.8879 -0.0993  0.1246
  141MOL   C27642556   7.174   1.959   7.093 -0.2846  0.1129 -0.3049
  141MOL   C27742557   7.291   2.025   7.042  0.5104 -0.5231 -0.5286
  141MOL   C27842558   7.410   1.949   7.013  0.5702 -0.5191  0.9037
  141MOL   N27942559   7.409   1.810   7.002  0.0409 -0.8627  0.9032
  141MOL   H28042560   7.074   1.564   7.054 -1.9842 -0.2704 -2.8181
  141MOL   H28142561   7.135   1.598   6.892 -0.1281 -0.1770  0.6458
  141MOL   H28242562   7.364   1.558   6.965  0.8189  1.0753  1.0640
  141MOL   H28342563   7.092   1.758   7.105 -0.5752 -0.2662  1.2190
  141MOL   H28442564   7.091   2.014   7.135  0.0842  0.0552  0.5123
  141MOL   H28542565   7.298   2.131   7.060 -0.0451 -0.5466 -0.1464
  141MOL   H28642566   7.498   2.004   6.984 -1.0785  1.5871 -0.2561
  141MOL   C28742567   7.320   1.516   7.180  0.0337  0.2433 -0.1952
  141MOL   C28842568   7.256   1.586   7.296 -0.3488  0.4004 -0.3124
  141MOL   C28942569   7.285   1.518   7.431  0.1259 -0.2307  0.0832
  141MOL   C29042570   7.393   1.575   7.506 -0.7363  0.4683  0.0162
  141MOL   C29142571   7.444   1.494   7.607 -0.6329 -0.1218 -0.2785
  141MOL   C29242572   7.374   1.374   7.640  0.0503 -0.2910  0.6685
  141MOL   C29342573   7.264   1.338   7.564  0.0077 -0.1311 -0.0278
  141MOL   N29442574   7.226   1.402   7.456  0.4208 -0.2331 -0.1553
  141MOL   H29542575   7.429   1.528   7.184  0.0875 -0.3901  0.2934
  141MOL   H29642576   7.305   1.408   7.186  0.6520  0.1801  0.2157
  141MOL   H29742577   7.148   1.573   7.285 -0.8513  0.6204  3.5866
  141MOL   H29842578   7.448   1.665   7.482  1.7098 -1.9505 -3.9457
  141MOL   H29942579   7.531   1.513   7.668 -1.5593  0.2682  0.9283
  141MOL   H30042580   7.413   1.319   7.724  1.9399 -1.0064 -0.6352
  141MOL   H30142581   7.221   1.243   7.593 -0.3581  0.6260  2.0164
  141MOL   H30242582   7.260   1.695   7.302 -0.1053  0.3014  1.6795
  142MOL     C142583   6.346   0.173   4.290  0.1969 -0.3660  0.4075
  142MOL     C242584   6.406   0.028   4.301 -0.5864  0.4553 -0.2785
  142MOL     C342585   6.392   8.105   4.163 -0.7163  0.2869 -0.0168
  142MOL     C442586   6.303   7.997   4.152 -0.5132 -0.0480 -0.1346
  142MOL     C542587   6.291   7.942   4.024  0.5659 -0.6201 -0.1634
  142MOL     C642588   6.381   7.977   3.919 -0.0698  0.2553  0.4740
  142MOL     C742589   6.476   8.074   3.945 -0.3694 -0.6351 -0.2081
  142MOL     N842590   6.479   8.144   4.058 -0.0658  0.3559 -0.0974
  142MOL     H942591   6.412   0.234   4.229 -0.5096 -0.6651 -0.6554
  142MOL    H1042592   6.254   0.158   4.234  0.5890 -0.0858 -0.3125
  142MOL    H1142593   6.350   8.117   4.370  1.4105 -1.7669 -0.6265
  142MOL    H1242594   6.242   7.965   4.235 -0.1222  1.1406  0.6379
  142MOL    H1342595   6.208   7.875   4.008  1.3330 -1.4023 -0.9422
  142MOL    H1442596   6.381   7.935   3.820  3.1619  0.6361  0.2696
  142MOL    H1542597   6.541   8.110   3.867 -0.9048 -0.0654 -0.3921
  142MOL    H1642598   6.322   0.221   4.386  0.5722  0.0532  0.2918
  142MOL    C1742599   6.555   0.042   4.352 -0.0011  0.5529  0.0678
  142MOL    C1842600   6.621   8.062   4.394 -0.0019 -0.5380 -0.6319
  142MOL    C1942601   6.771   8.071   4.395 -0.0919 -0.3578  1.0592
  142MOL    C2042602   6.848   7.973   4.337 -0.0254  0.1118 -0.2748
  142MOL    C2142603   6.989   7.979   4.352 -0.2612  0.3943 -0.0612
  142MOL    C2242604   7.052   8.090   4.412 -0.2381  0.0528 -1.3434
  142MOL    C2342605   6.967   0.038   4.462 -0.3063 -0.1178  0.5374
  142MOL    N2442606   6.833   0.027   4.456  0.2311 -0.2174 -0.3340
  142MOL    H2542607   6.554   0.113   4.435 -0.1325  1.5317 -0.7608
  142MOL    H2642608   6.608   0.089   4.270  2.3563 -1.0423  0.6452
  142MOL    H2742609   6.595   7.983   4.323 -3.8476 -0.6771  0.8229
  142MOL    H2842610   6.814   7.884   4.287 -2.1807  1.0968 -0.6254
  142MOL    H2942611   7.058   7.907   4.310  1.1877  0.5395  2.0432
  142MOL    H3042612   7.159   8.102   4.416 -0.3542  1.2032 -1.5055
  142MOL    H3142613   7.010   0.131   4.496 -0.3700  0.5902 -1.2741
  142MOL    C3242614   6.571   8.015   4.530 -0.3450  0.5395 -0.2613
  142MOL    C3342615   6.623   7.876   4.575  0.3681  0.6929 -0.3899
  142MOL    C3442616   6.738   7.892   4.679 -0.4687  0.1035 -0.0849
  142MOL    C3542617   6.863   7.829   4.652  0.7429  0.1769  0.7347
  142MOL    C3642618   6.971   7.854   4.738 -0.3284  1.1482  0.2510
  142MOL    C3742619   6.951   7.937   4.847  0.6175 -0.7469  0.2687
  142MOL    C3842620   6.824   7.993   4.875 -0.6696  0.5355  0.0592
  142MOL    N3942621   6.717   7.970   4.790 -0.5548 -0.6053 -0.1409
  142MOL    H4042622   6.462   8.014   4.534 -0.2891  1.3693  1.7964
  142MOL    H4142623   6.604   8.097   4.594  2.5852 -0.6539 -0.1615
  142MOL    H4242624   6.654   7.820   4.487 -3.8498  0.0445 -1.5662
  142MOL    H4342625   6.876   7.765   4.566  1.8041  1.1221  0.1834
  142MOL    H4442626   7.071   7.821   4.714  0.2122  1.9878  1.3314
  142MOL    H4542627   7.029   7.965   4.917 -0.9792  0.9058  1.4465
  142MOL    H4642628   6.807   8.061   4.957 -2.6447 -0.7181  0.7284
  142MOL    C4742629   6.510   7.796   4.643 -0.3029  0.0519 -0.5829
  142MOL    C4842630   6.406   7.740   4.548 -0.7935  0.0040 -0.2325
  142MOL    C4942631   6.468   7.663   4.429 -1.5804 -0.3887  0.4614
  142MOL    C5042632   6.444   7.703   4.294 -0.7039 -0.1233  0.0464
  142MOL    C5142633   6.513   7.636   4.196  0.3655 -0.1875 -0.3991
  142MOL    C5242634   6.597   7.523   4.234 -0.3953  0.2234  0.0724
  142MOL    C5342635   6.592   7.477   4.366 -0.3504  0.2009  0.9308
  142MOL    N5442636   6.544   7.553   4.463 -1.1418 -0.4410  0.5711
  142MOL    H5542637   6.466   7.866   4.715  0.2196 -1.1279  0.9092
  142MOL    H5642638   6.551   7.724   4.714  0.7581 -0.6233 -1.8718
  142MOL    H5742639   6.360   7.826   4.500  0.3730  0.9122  0.2387
  142MOL    H5842640   6.378   7.783   4.264  0.9536  1.2354 -0.0856
  142MOL    H5942641   6.500   7.645   4.089  2.5822 -1.5165 -0.8203
  142MOL    H6042642   6.646   7.460   4.161  0.1275 -0.6544  1.1570
  142MOL    H6142643   6.638   7.384   4.395  0.6074  0.1313 -0.7514
  142MOL    C6242644   6.293   7.663   4.619 -0.1558  0.3297 -0.3923
  142MOL    C6342645   6.211   7.741   4.725 -0.1880 -0.5151 -0.0510
  142MOL    C6442646   6.138   7.853   4.656 -0.2293  1.0155 -0.0578
  142MOL    C6542647   6.032   7.821   4.570  0.3361  0.5817  0.2374
  142MOL    C6642648   5.990   7.922   4.476 -0.0329 -0.1462 -0.0806
  142MOL    C6742649   6.048   8.051   4.490 -0.5474  0.2972 -0.3762
  142MOL    C6842650   6.152   8.073   4.579  0.5082 -0.8345  0.1281
  142MOL    N6942651   6.193   7.973   4.660  0.2483  0.0731 -0.0018
  142MOL    H7042652   6.343   7.576   4.661 -0.3403  0.7101  0.6303
  142MOL    H7142653   6.216   7.633   4.548 -1.1594  2.9249 -0.4778
  142MOL    H7242654   6.275   7.788   4.800 -1.4387  1.0256  0.0766
  142MOL    H7342655   5.992   7.722   4.559 -2.1365  1.7996 -2.6915
  142MOL    H7442656   5.916   7.900   4.400 -1.2599  0.8412  0.7957
  142MOL    H7542657   6.022   8.129   4.420 -1.3623  0.5233  0.1704
  142MOL    H7642658   6.187   0.022   4.591 -0.4147 -0.4318 -0.5014
  142MOL    C7742659   6.108   7.659   4.809 -0.2013 -0.0805 -0.1340
  142MOL    C7842660   6.109   7.702   4.952 -0.2664  0.4771  0.3230
  142MOL    C7942661   5.971   7.689   5.021  0.1201  0.0405 -0.0136
  142MOL    C8042662   5.924   7.784   5.113  0.1188  0.0057  0.8419
  142MOL    C8142663   5.807   7.749   5.186  0.6179  0.4614 -0.4194
  142MOL    C8242664   5.740   7.627   5.173 -0.0999 -0.3343  0.6258
  142MOL    C8342665   5.791   7.539   5.071 -0.9102  0.4403  0.2388
  142MOL    N8442666   5.907   7.570   4.995  0.1124  0.1671  0.1095
  142MOL    H8542667   6.112   7.550   4.803  0.7472 -0.1097  0.9157
  142MOL    H8642668   6.007   7.686   4.777  0.4339  1.1834 -1.1191
  142MOL    H8742669   6.132   7.808   4.949 -1.0317  0.6459  0.1166
  142MOL    H8842670   5.971   7.880   5.128  0.2954  0.0678 -0.1002
  142MOL    H8942671   5.771   7.821   5.258 -1.4067  0.4079 -1.3507
  142MOL    H9042672   5.647   7.605   5.224 -0.6740  2.4172  0.8579
  142MOL    H9142673   5.747   7.444   5.045 -0.8265  0.1127  1.2810
  142MOL    C9242674   6.210   7.627   5.041  0.4420  0.6709  0.4061
  142MOL    C9342675   6.363   7.663   5.026 -0.6610 -0.1579 -0.4729
  142MOL    C9442676   6.381   7.805   5.070  0.9931 -0.6992 -0.3327
  142MOL    C9542677   6.482   7.879   5.011 -0.4760 -0.2956  0.0482
  142MOL    C9642678   6.509   8.008   5.066  0.2046  0.0442  0.1318
  142MOL    C9742679   6.432   8.056   5.175 -0.1252 -0.0520 -0.5103
  142MOL    C9842680   6.340   7.970   5.224 -0.5408 -0.6051 -0.2846
  142MOL    N9942681   6.314   7.846   5.183 -0.4414 -0.2169  0.2668
  142MOL   H10042682   6.206   7.522   5.011 -1.3743  0.8704 -0.1073
  142MOL   H10142683   6.180   7.624   5.146 -0.6611 -1.2899  0.0614
  142MOL   H10242684   6.391   7.653   4.921 -1.6079  0.5045 -0.8005
  142MOL   H10342685   6.541   7.850   4.925  0.2271  0.2825  0.3325
  142MOL   H10442686   6.590   8.075   5.037  1.2009 -0.8297  0.8499
  142MOL   H10542687   6.443   0.002   5.218  1.4011 -0.5353  0.2357
  142MOL   H10642688   6.283   8.005   5.309  1.4343 -2.5992  1.9422
  142MOL   C10742689   6.450   7.579   5.111 -0.4382  0.4263 -0.3052
  142MOL   C10842690   6.433   7.424   5.099 -0.0142 -0.0685  0.2596
  142MOL   C10942691   6.445   7.383   4.953 -0.6552 -0.2133 -0.7295
  142MOL   C11042692   6.554   7.431   4.879 -0.0985 -0.3666 -0.6291
  142MOL   C11142693   6.583   7.378   4.752 -0.1898 -0.5427 -0.1021
  142MOL   C11242694   6.489   7.289   4.694  0.0790 -0.2631  0.1094
  142MOL   C11342695   6.378   7.249   4.776 -0.2225  0.1847 -0.3679
  142MOL   N11442696   6.362   7.290   4.906 -0.0892 -0.3190  0.6048
  142MOL   H11542697   6.438   7.615   5.213 -0.8802 -2.5421  0.7485
  142MOL   H11642698   6.553   7.614   5.103  0.0850 -0.5010  1.9020
  142MOL   H11742699   6.334   7.401   5.137  0.1843 -1.0889  0.1938
  142MOL   H11842700   6.631   7.488   4.928  0.4642  0.6264 -2.6179
  142MOL   H11942701   6.676   7.402   4.703  0.6037 -2.1831  0.5600
  142MOL   H12042702   6.491   7.247   4.595 -1.4323 -0.9946  0.3740
  142MOL   H12142703   6.324   7.172   4.724 -0.0916 -1.3403  1.6974
  142MOL   C12242704   6.535   7.364   5.198 -0.0842 -0.3569  0.0018
  142MOL   C12342705   6.524   7.219   5.245  0.4926 -0.0162  0.3716
  142MOL   C12442706   6.664   7.167   5.261  0.2518  0.1278  0.2828
  142MOL   C12542707   6.714   7.062   5.178 -0.1879  0.1796  0.2919
  142MOL   C12642708   6.844   7.009   5.208 -0.4455 -0.2954 -0.1200
  142MOL   C12742709   6.916   7.065   5.310 -0.8741 -0.4480  0.2231
  142MOL   C12842710   6.858   7.171   5.384  0.6182  0.5177  0.9867
  142MOL   N12942711   6.735   7.226   5.360 -0.0259 -0.2543  0.2371
  142MOL   H13042712   6.532   7.428   5.286  0.3528 -0.4267  0.0691
  142MOL   H13142713   6.637   7.383   5.163 -0.4884  0.3260 -0.8243
  142MOL   H13242714   6.471   7.162   5.168 -0.9634  0.4644  1.0108
  142MOL   H13342715   6.653   7.002   5.112  1.4897 -0.1790 -1.0020
  142MOL   H13442716   6.878   6.924   5.151 -2.4782 -0.9207 -0.4450
  142MOL   H13542717   7.017   7.042   5.339 -0.7519 -0.4827 -0.2321
  142MOL   H13642718   6.916   7.235   5.448  1.4091  0.2475  0.5469
  142MOL   C13742719   6.442   7.198   5.383  0.3934 -0.2360  0.2331
  142MOL   C13842720   6.288   7.192   5.373  0.4197  0.3968 -0.2595
  142MOL   C13942721   6.226   7.086   5.277 -0.0688  0.3990 -0.2716
  142MOL   C14042722   6.143   7.127   5.168 -0.1950 -0.1830 -0.4066
  142MOL   C14142723   6.109   7.034   5.075  0.1900  0.1664  0.3705
  142MOL   C14242724   6.131   6.900   5.108  0.0324 -0.4024 -0.3791
  142MOL   C14342725   6.188   6.870   5.232  0.1033  0.2488 -0.9938
  142MOL   N14442726   6.244   6.960   5.310 -0.0382  0.2347 -0.8093
  142MOL   H14542727   6.477   7.274   5.453 -3.3068  0.5409  1.3549
  142MOL   H14642728   6.470   7.105   5.433  0.4136 -1.0289 -1.2148
  142MOL   H14742729   6.243   7.286   5.340 -0.5333 -0.4682 -1.4865
  142MOL   H14842730   6.119   7.231   5.158 -1.1923 -0.4149 -0.4312
  142MOL   H14942731   6.075   7.070   4.979  2.5019 -1.7843 -1.2566
  142MOL   H15042732   6.102   6.816   5.047  0.3741 -1.0508  0.3429
  142MOL   H15142733   6.200   6.765   5.253  1.7576  0.7898  0.8673
  142MOL   C15242734   6.230   7.163   5.517 -0.1354 -0.5306 -0.2832
  142MOL   C15342735   6.237   7.281   5.623 -0.5200  0.5489 -0.0050
  142MOL   C15442736   6.205   7.418   5.561  0.2958  0.1592 -1.0619
  142MOL   C15542737   6.304   7.519   5.570  0.0227 -0.7302  0.0522
  142MOL   C15642738   6.269   7.652   5.519 -0.8493 -0.0570 -0.1287
  142MOL   C15742739   6.132   7.673   5.476 -0.0734 -0.2543 -0.4046
  142MOL   C15842740   6.049   7.554   5.467 -0.1701 -1.2981 -0.1272
  142MOL   N15942741   6.083   7.432   5.512  0.5615 -0.3884 -0.6384
  142MOL   H16042742   6.270   7.076   5.567  0.4788  0.0053  0.1636
  142MOL   H16142743   6.125   7.139   5.501 -0.5152  1.8191 -1.6665
  142MOL   H16242744   6.340   7.285   5.658 -0.6378 -1.8204  0.6435
  142MOL   H16342745   6.399   7.507   5.620 -0.1436 -0.8848  0.3342
  142MOL   H16442746   6.342   7.732   5.528  1.7869 -2.4742  0.6165
  142MOL   H16542747   6.086   7.765   5.442 -0.0630 -0.0450  0.1386
  142MOL   H16642748   5.946   7.565   5.438  0.0540  1.3097 -0.0158
  142MOL   C16742749   6.144   7.245   5.738  0.0879 -0.2698  0.0547
  142MOL   C16842750   6.149   7.339   5.860 -0.1766 -0.1608 -0.7450
  142MOL   C16942751   6.012   7.338   5.935 -0.0383  0.0907 -0.3322
  142MOL   C17042752   5.934   7.455   5.944  0.1102 -0.1275  0.0742
  142MOL   C17142753   5.817   7.453   6.017  0.9178 -0.0244 -0.4606
  142MOL   C17242754   5.777   7.333   6.072  0.2875  0.4869  0.6094
  142MOL   C17342755   5.856   7.219   6.056  1.1716  0.1444 -0.4131
  142MOL   N17442756   5.970   7.218   5.989 -0.0093 -0.4212  0.0895
  142MOL   H17542757   6.145   7.140   5.770 -1.5038 -1.2617 -2.9757
  142MOL   H17642758   6.043   7.253   5.696 -0.2600 -2.4102  0.4059
  142MOL   H17742759   6.170   7.438   5.819 -1.4810  0.3086 -0.2996
  142MOL   H17842760   5.961   7.552   5.907 -1.1605 -0.2870 -1.3557
  142MOL   H17942761   5.752   7.539   6.026  2.8786  1.5351 -1.0021
  142MOL   H18042762   5.682   7.329   6.122  0.2653 -1.9495  0.4556
  142MOL   H18142763   5.818   7.131   6.106  3.9051 -0.3116  0.9168
  142MOL   C18242764   6.256   7.299   5.971 -0.4376  0.1640 -0.2998
  142MOL   C18342765   6.382   7.385   5.984  0.6844 -0.6592  0.0604
  142MOL   C18442766   6.352   7.532   5.957  0.1522 -0.6604 -0.0438
  142MOL   C18542767   6.258   7.602   6.030  0.3228  0.2625  0.1905
  142MOL   C18642768   6.240   7.740   6.007 -0.1848 -0.6569  0.1753
  142MOL   C18742769   6.318   7.806   5.910  0.0472 -0.1407 -0.2492
  142MOL   C18842770   6.403   7.726   5.836  0.1229  1.0505 -0.7474
  142MOL   N18942771   6.425   7.595   5.860 -0.8796  0.2458  0.0926
  142MOL   H19042772   6.296   7.201   5.945 -0.4573 -0.1225  0.7306
  142MOL   H19142773   6.207   7.309   6.068  0.7471  0.5242  0.2766
  142MOL   H19242774   6.452   7.353   5.907  1.9645  0.6889  0.6270
  142MOL   H19342775   6.190   7.555   6.100  1.0642 -2.6552 -0.9954
  142MOL   H19442776   6.168   7.789   6.071  1.9239  2.6237  0.1626
  142MOL   H19542777   6.313   7.911   5.887 -0.5124 -0.1444 -0.1689
  142MOL   H19642778   6.466   7.761   5.755  1.0196 -0.8307 -0.8922
  142MOL   C19742779   6.453   7.360   6.119  0.6382  0.1638  0.3218
  142MOL   C19842780   6.588   7.438   6.150 -0.2625  0.3384 -0.7369
  142MOL   C19942781   6.584   7.523   6.273 -0.2039  0.3784 -0.3616
  142MOL   C20042782   6.608   7.664   6.265  0.2137 -0.3390 -0.5037
  142MOL   C20142783   6.605   7.738   6.382  0.3328 -0.4683  0.2366
  142MOL   C20242784   6.596   7.664   6.504 -0.0041 -0.2389  0.0084
  142MOL   C20342785   6.583   7.525   6.498  0.7456  0.4186 -0.3207
  142MOL   N20442786   6.564   7.452   6.386 -0.3327  0.0576  0.1868
  142MOL   H20542787   6.457   7.252   6.135  0.3146  0.2795  1.1992
  142MOL   H20642788   6.373   7.388   6.188 -0.3346  0.9595 -1.1041
  142MOL   H20742789   6.589   7.516   6.074  0.0144 -0.6422 -1.7489
  142MOL   H20842790   6.627   7.714   6.171 -1.2400  0.5033 -0.3616
  142MOL   H20942791   6.624   7.844   6.375 -0.3647 -0.4971 -3.0879
  142MOL   H21042792   6.601   7.716   6.599  2.3090 -1.0305  0.3365
  142MOL   H21142793   6.564   7.466   6.585  0.3188  0.7343 -0.2020
  142MOL   C21242794   6.709   7.341   6.138 -0.0247 -0.3607 -0.1860
  142MOL   C21342795   6.749   7.297   5.993 -0.1043 -0.2812  0.5133
  142MOL   C21442796   6.828   7.410   5.931  0.3878 -0.0842 -0.0481
  142MOL   C21542797   6.772   7.505   5.845  0.5274 -0.0599 -0.6614
  142MOL   C21642798   6.844   7.617   5.796  0.6623  0.0055 -0.1536
  142MOL   C21742799   6.980   7.622   5.828 -0.1597 -0.5700 -0.1199
  142MOL   C21842800   7.032   7.532   5.924  0.0762  0.3378  0.2149
  142MOL   N21942801   6.958   7.434   5.970 -0.4167 -0.3923 -0.1894
  142MOL   H22042802   6.697   7.254   6.203  2.7337 -2.4016 -2.3101
  142MOL   H22142803   6.790   7.399   6.183  0.0299  0.0109 -0.7553
  142MOL   H22242804   6.662   7.281   5.930 -0.6983 -0.5409  1.3780
  142MOL   H22342805   6.667   7.510   5.820  0.3849 -0.8514 -0.2365
  142MOL   H22442806   6.795   7.699   5.746  0.2888  0.0464  0.2749
  142MOL   H22542807   7.038   7.704   5.787  0.6953 -0.4126  1.3647
  142MOL   H22642808   7.134   7.542   5.957 -0.0679  1.0111  0.4589
  142MOL   C22742809   6.818   7.158   5.979  0.2019 -0.2976 -0.1006
  142MOL   C22842810   6.744   7.037   6.035 -0.1517 -0.1642  0.4130
  142MOL   C22942811   6.608   7.014   5.975 -0.1145  0.3674 -0.1933
  142MOL   C23042812   6.584   7.030   5.837  0.4578 -0.0069 -0.1508
  142MOL   C23142813   6.459   6.998   5.781  0.0061  0.2284 -0.4095
  142MOL   C23242814   6.367   6.935   5.865 -0.2273 -0.1586 -0.9358
  142MOL   C23342815   6.396   6.946   6.010 -0.1115 -1.0474  0.1044
  142MOL   N23442816   6.514   6.978   6.058 -0.0424  0.3381 -0.4028
  142MOL   H23542817   6.907   7.166   6.041  0.1620  0.8929 -0.1975
  142MOL   H23642818   6.847   7.147   5.874 -0.0603 -1.1944 -0.0897
  142MOL   H23742819   6.736   7.052   6.142 -0.0505 -2.5253  0.7776
  142MOL   H23842820   6.655   7.060   5.761  2.2698 -0.0823  1.4762
  142MOL   H23942821   6.444   6.995   5.674  0.7439 -0.4078 -0.4981
  142MOL   H24042822   6.272   6.893   5.834  0.1364 -0.7765 -1.2236
  142MOL   H24142823   6.321   6.925   6.085 -0.3448  0.9632  0.4592
  142MOL   C24242824   6.832   6.903   6.020  0.3004  0.6081 -0.2234
  142MOL   C24342825   6.786   6.782   6.109  0.3529 -0.3812  0.4360
  142MOL   C24442826   6.814   6.658   6.025  0.2461 -0.3746 -0.2026
  142MOL   C24542827   6.705   6.574   5.991 -0.0102  0.6348 -0.2013
  142MOL   C24642828   6.722   6.456   5.922 -0.3852 -0.0529 -0.1551
  142MOL   C24742829   6.852   6.412   5.890 -0.6558 -0.5641 -0.0430
  142MOL   C24842830   6.953   6.500   5.932  0.2257  1.0186  0.0459
  142MOL   N24942831   6.942   6.616   5.998 -0.2957 -0.1473  0.6300
  142MOL   H25042832   6.934   6.939   6.034  0.8846  0.0095 -2.6467
  142MOL   H25142833   6.831   6.879   5.914 -0.9581 -1.6848  0.2867
  142MOL   H25242834   6.677   6.782   6.116  0.3966 -2.1760  1.4197
  142MOL   H25342835   6.602   6.599   6.014 -0.1674  0.0083 -0.2286
  142MOL   H25442836   6.651   6.391   5.873  0.1861  0.6368 -1.9248
  142MOL   H25542837   6.879   6.321   5.838 -1.1840 -0.5626 -0.3208
  142MOL   H25642838   7.057   6.470   5.921 -0.1985 -0.3984 -0.2564
  142MOL   C25742839   6.861   6.765   6.242 -0.2986 -0.3112 -0.1876
  142MOL   C25842840   6.776   6.820   6.354  0.0291 -0.5319 -0.3329
  142MOL   C25942841   6.634   6.754   6.365  0.1155  1.0177 -0.5411
  142MOL   C26042842   6.512   6.825   6.373 -0.3131 -0.1437 -0.9551
  142MOL   C26142843   6.387   6.759   6.398  0.0744 -0.0778  0.5741
  142MOL   C26242844   6.388   6.625   6.434 -0.0704 -0.3624  0.5707
  142MOL   C26342845   6.514   6.560   6.416 -0.5358 -0.1043  0.1544
  142MOL   N26442846   6.632   6.622   6.389  0.3219 -0.8283  0.2912
  142MOL   H26542847   6.951   6.826   6.232 -1.2305  1.3050  1.0403
  142MOL   H26642848   6.889   6.660   6.255 -1.0216 -0.6293 -1.1377
  142MOL   H26742849   6.761   6.925   6.330  1.4197 -0.0506  0.8113
  142MOL   H26842850   6.515   6.931   6.354  1.0354 -0.3315 -1.8526
  142MOL   H26942851   6.295   6.813   6.387  1.5502  2.4374  0.2305
  142MOL   H27042852   6.296   6.572   6.453 -0.0401 -0.8767 -0.6672
  142MOL   H27142853   6.512   6.452   6.421  0.3438 -0.2053 -1.3400
  142MOL   C27242854   6.853   6.812   6.488 -0.0231 -0.3347 -0.4784
  142MOL   C27342855   6.986   6.895   6.485  0.2124 -0.1286  0.7987
  142MOL   C27442856   6.953   7.036   6.464  0.3682 -0.0284 -0.5390
  142MOL   C27542857   6.877   7.100   6.559 -0.0630 -0.4297  0.6599
  142MOL   C27642858   6.839   7.232   6.529 -0.1727  0.1846  0.1901
  142MOL   C27742859   6.889   7.294   6.418 -0.3987  0.1885  0.2457
  142MOL   C27842860   6.959   7.220   6.328 -1.2085 -0.1590  0.3398
  142MOL   N27942861   6.987   7.091   6.346 -0.0663  0.5740  0.2218
  142MOL   H28042862   6.878   6.708   6.510  2.7259  0.4834  0.5165
  142MOL   H28142863   6.783   6.843   6.565 -0.3748  1.3099 -1.4439
  142MOL   H28242864   7.065   6.869   6.414 -0.7015 -0.3394 -0.1412
  142MOL   H28342865   6.842   7.054   6.650 -0.2957  0.3877  0.9830
  142MOL   H28442866   6.782   7.292   6.599 -0.4001  0.7495 -0.4676
  142MOL   H28542867   6.871   7.400   6.406  0.2382  0.3795  0.9326
  142MOL   H28642868   6.999   7.267   6.239 -1.4935 -0.6600 -0.0540
  142MOL   C28742869   7.068   6.854   6.608  1.1285  0.3196  0.1311
  142MOL   C28842870   7.207   6.919   6.634  0.3206  0.2172 -0.3181
  142MOL   C28942871   7.307   6.884   6.526  0.0875 -0.0146  0.4945
  142MOL   C29042872   7.357   6.757   6.493 -0.9090 -0.0847 -0.6556
  142MOL   C29142873   7.443   6.738   6.380  0.2740 -0.2659 -0.0596
  142MOL   C29242874   7.474   6.859   6.313 -0.3861 -0.3816 -0.7490
  142MOL   C29342875   7.425   6.986   6.357 -0.9485  0.8394 -0.6719
  142MOL   N29442876   7.343   6.996   6.462 -0.0706  0.4545 -0.0295
  142MOL   H29542877   7.083   6.746   6.607  1.2147  0.3341 -0.3077
  142MOL   H29642878   7.013   6.871   6.700 -0.6952 -2.8846 -0.3009
  142MOL   H29742879   7.243   6.880   6.729 -1.7899  0.0188  0.4318
  142MOL   H29842880   7.342   6.675   6.562 -2.3656  1.4065  0.8655
  142MOL   H29942881   7.478   6.641   6.346 -0.1841  0.0422 -1.4344
  142MOL   H30042882   7.532   6.858   6.222  1.4900 -2.1406  0.4386
  142MOL   H30142883   7.435   7.083   6.310  0.4443  0.6401 -0.7991
  142MOL   H30242884   7.189   7.026   6.644  1.5666  0.4511 -0.5511
  143MOL     C142885   0.214   0.488   6.062  0.1259  0.4710  0.3381
  143MOL     C242886   0.132   0.615   6.089 -0.5644  0.1248 -0.9286
  143MOL     C342887   0.131   0.651   6.238  0.4063 -0.8043 -0.2126
  143MOL     C442888   0.029   0.608   6.329  0.3945  0.9176 -0.3319
  143MOL     C542889   0.054   0.610   6.471  0.5807 -0.0843 -0.0489
  143MOL     C642890   0.179   0.664   6.510  0.3698 -0.2157 -0.2720
  143MOL     C742891   0.261   0.724   6.415 -0.3518 -0.1891  0.0902
  143MOL     N842892   0.246   0.711   6.283  0.2715  0.4044 -0.5861
  143MOL     H942893   0.320   0.506   6.074  0.7356 -2.0611 -0.9808
  143MOL    H1042894   0.174   0.410   6.126 -1.0476  1.3938  0.7464
  143MOL    H1142895   0.026   0.600   6.069 -0.7314  1.3491 -1.0063
  143MOL    H1242896   8.086   0.574   6.290 -0.2911  1.1776  1.0749
  143MOL    H1342897   8.129   0.575   6.538  1.0234 -1.5194 -0.2684
  143MOL    H1442898   0.197   0.672   6.617 -0.9316  0.5683 -0.1003
  143MOL    H1542899   0.352   0.770   6.452 -0.0653 -1.5882  1.1782
  143MOL    H1642900   0.192   0.459   5.959  0.9583  1.1225 -0.0265
  143MOL    C1742901   0.185   0.734   6.001  0.3288 -0.4797  0.2901
  143MOL    C1842902   0.121   0.877   6.034  0.2156  0.1879 -0.2086
  143MOL    C1942903   0.212   0.991   6.023 -0.5264 -0.2646 -0.2640
  143MOL    C2042904   0.231   1.087   6.126  0.1397  0.1368 -0.2097
  143MOL    C2142905   0.298   1.203   6.094  0.6550  0.7436 -0.4375
  143MOL    C2242906   0.358   1.221   5.972 -0.3650 -0.1786  0.3912
  143MOL    C2342907   0.340   1.122   5.874  0.4557 -0.0563 -0.2053
  143MOL    N2442908   0.260   1.015   5.893 -0.2540 -0.3203 -0.1910
  143MOL    H2542909   0.177   0.707   5.896  0.5870  1.8158 -0.3574
  143MOL    H2642910   0.293   0.751   6.009 -0.1152  2.4589  0.5680
  143MOL    H2742911   0.101   0.878   6.141 -0.1045  2.2334 -0.2704
  143MOL    H2842912   0.193   1.070   6.225  1.6390  0.5991  0.4551
  143MOL    H2942913   0.306   1.273   6.175  3.0048 -0.0326  0.0476
  143MOL    H3042914   0.421   1.308   5.957 -2.9294  1.5414 -0.7400
  143MOL    H3142915   0.381   1.142   5.776  1.5778  2.4409  0.7395
  143MOL    C3242916   8.142   0.898   5.953 -0.0939 -0.3349  0.7543
  143MOL    C3342917   8.022   0.802   5.955  0.4729 -0.5008  0.5805
  143MOL    C3442918   7.966   0.782   6.092  0.0431  0.1282 -0.1501
  143MOL    C3542919   7.978   0.877   6.191 -0.1362  0.0196  0.6346
  143MOL    C3642920   7.919   0.855   6.318 -0.1246 -0.7264 -0.1740
  143MOL    C3742921   7.854   0.738   6.340 -0.6387  1.0401 -0.0088
  143MOL    C3842922   7.832   0.651   6.230  0.7137  0.4081 -0.3660
  143MOL    N3942923   7.891   0.676   6.110 -0.1790  0.6427 -0.2665
  143MOL    H4042924   0.017   0.911   5.848  1.7515  1.0978  1.3851
  143MOL    H4142925   8.111   1.000   5.975  0.1283 -0.2225  0.5546
  143MOL    H4242926   8.052   0.700   5.930 -3.6054 -2.0150  1.4606
  143MOL    H4342927   8.034   0.967   6.171 -0.5223 -0.1446 -1.3136
  143MOL    H4442928   7.933   0.929   6.396 -0.4589 -1.0356  0.1768
  143MOL    H4542929   7.810   0.718   6.437 -0.9161 -0.6105 -0.4642
  143MOL    H4642930   7.773   0.561   6.245  0.5152  0.2893 -1.8206
  143MOL    C4742931   7.915   0.856   5.857  0.0483 -0.6559  0.0046
  143MOL    C4842932   7.924   0.823   5.705 -0.3174  0.0275 -0.5913
  143MOL    C4942933   7.951   0.679   5.682  0.2299  0.0385  0.2500
  143MOL    C5042934   7.895   0.579   5.758 -0.2660 -0.1325 -0.6362
  143MOL    C5142935   7.920   0.441   5.745  0.2429  0.3070  0.4834
  143MOL    C5242936   8.004   0.408   5.638  0.0632 -0.6945 -0.2927
  143MOL    C5342937   8.059   0.511   5.562  0.9125 -0.8246 -0.2251
  143MOL    N5442938   8.029   0.648   5.581 -0.0526 -0.0653  0.0303
  143MOL    H5542939   7.893   0.961   5.876  0.5906 -0.8329  1.6628
  143MOL    H5642940   7.815   0.821   5.880 -0.2195  0.9236  1.3496
  143MOL    H5742941   8.009   0.886   5.679  0.0132 -0.8265 -1.6196
  143MOL    H5842942   7.833   0.613   5.840  2.1078  2.1786  0.2699
  143MOL    H5942943   7.885   0.361   5.809 -0.1723  0.8385  0.9315
  143MOL    H6042944   8.017   0.306   5.606 -0.1615 -1.4639  2.0218
  143MOL    H6142945   8.120   0.496   5.474  0.9345  0.5242 -0.4536
  143MOL    C6242946   7.810   0.875   5.609  0.2720 -0.0441 -0.0766
  143MOL    C6342947   7.664   0.833   5.643  0.4115 -0.8256  0.1464
  143MOL    C6442948   7.599   0.916   5.751  0.2549 -0.7218 -0.2708
  143MOL    C6542949   7.490   0.857   5.821  0.5956  0.4713 -0.3180
  143MOL    C6642950   7.417   0.933   5.917 -0.7025 -0.3099  0.0553
  143MOL    C6742951   7.446   1.075   5.922 -0.5695  0.5010 -0.6327
  143MOL    C6842952   7.547   1.126   5.839 -0.0588  0.3222  0.1626
  143MOL    N6942953   7.622   1.046   5.758 -0.1962 -0.2828  0.4157
  143MOL    H7042954   7.830   0.831   5.511  0.0777 -0.4312  0.0566
  143MOL    H7142955   7.814   0.983   5.603  0.1048  0.1744  3.2288
  143MOL    H7242956   7.676   0.733   5.683  3.1496 -0.0740  1.2982
  143MOL    H7342957   7.466   0.753   5.804 -2.5136  1.2335 -1.0087
  143MOL    H7442958   7.338   0.891   5.978 -1.3669 -1.8284 -1.7936
  143MOL    H7542959   7.400   1.134   6.000 -1.1291  2.1612 -2.1865
  143MOL    H7642960   7.575   1.230   5.845 -1.4645  0.6595  0.9340
  143MOL    C7742961   7.574   0.833   5.518 -0.2918 -0.6041  0.5283
  143MOL    C7842962   7.589   0.726   5.414  0.8549  0.4645  0.5260
  143MOL    C7942963   7.558   0.593   5.475  0.0351  0.0561 -0.5838
  143MOL    C8042964   7.661   0.496   5.486  0.6116 -0.1678 -0.2864
  143MOL    C8142965   7.631   0.366   5.530  0.0576 -0.3578  0.2830
  143MOL    C8242966   7.500   0.341   5.574 -1.0814 -0.4999  0.2959
  143MOL    C8342967   7.408   0.446   5.569  0.7524 -0.8481 -0.8527
  143MOL    N8442968   7.430   0.574   5.526  0.0092  0.4533 -0.1376
  143MOL    H8542969   7.587   0.934   5.479 -0.2835  0.0730  2.2473
  143MOL    H8642970   7.469   0.829   5.548 -1.4571 -0.9869 -3.2668
  143MOL    H8742971   7.694   0.726   5.384  0.7233  0.0820  0.0396
  143MOL    H8842972   7.756   0.526   5.445  1.7962 -0.5820  2.0369
  143MOL    H8942973   7.704   0.287   5.520  0.2430 -0.0192 -1.2122
  143MOL    H9042974   7.466   0.246   5.611  2.6365 -2.3260 -0.6948
  143MOL    H9142975   7.305   0.429   5.599  0.4580  1.2805 -0.5884
  143MOL    C9242976   7.488   0.757   5.294  0.2981  0.1240  0.9290
  143MOL    C9342977   7.529   0.857   5.184  0.0086  0.2510  0.1307
  143MOL    C9442978   7.659   0.808   5.117  0.3520 -0.1026 -0.0710
  143MOL    C9542979   7.788   0.853   5.157 -0.5941 -0.7065 -0.0701
  143MOL    C9642980   7.903   0.790   5.109 -0.5120  0.5267 -0.5065
  143MOL    C9742981   7.879   0.674   5.035  0.7435  0.0540 -0.2601
  143MOL    C9842982   7.747   0.637   4.996 -0.7817  0.2990  0.1200
  143MOL    N9942983   7.643   0.710   5.033  0.1185 -0.3007 -0.3797
  143MOL   H10042984   7.397   0.793   5.343  0.9987  1.4133  1.3210
  143MOL   H10142985   7.466   0.663   5.245 -1.0926 -0.3349  2.3838
  143MOL   H10242986   7.547   0.953   5.232 -2.4442  0.4767  0.6912
  143MOL   H10342987   7.790   0.940   5.221 -1.0575 -0.9883  0.3371
  143MOL   H10442988   8.005   0.810   5.136 -0.0453 -1.8933 -0.3978
  143MOL   H10542989   7.956   0.602   5.012  1.3076  0.0861  1.4798
  143MOL   H10642990   7.738   0.548   4.935  0.8500  1.1305 -1.3755
  143MOL   C10742991   7.420   0.882   5.085 -0.3167  0.2324  0.0598
  143MOL   C10842992   7.284   0.944   5.134 -0.2363  0.0215 -0.8538
  143MOL   C10942993   7.287   1.088   5.182  0.3056 -0.1266 -0.2970
  143MOL   C11042994   7.262   1.127   5.319 -0.7630  0.5000 -0.0427
  143MOL   C11142995   7.263   1.269   5.345 -0.0852 -0.0640 -0.7185
  143MOL   C11242996   7.302   1.354   5.243 -0.1649 -0.1415 -0.4069
  143MOL   C11342997   7.339   1.307   5.120 -0.8296  0.5116  0.8001
  143MOL   N11442998   7.326   1.175   5.090  0.9202 -0.3724 -0.0266
  143MOL   H11542999   7.407   0.784   5.039  1.1623 -1.3207  2.7919
  143MOL   H11643000   7.448   0.949   5.003 -1.0814  1.4894  0.7982
  143MOL   H11743001   7.256   0.894   5.227  3.3404  2.6385  1.7648
  143MOL   H11843002   7.236   1.061   5.399 -0.5308 -0.0867 -0.4492
  143MOL   H11943003   7.248   1.294   5.449 -1.2134 -1.5520 -0.5129
  143MOL   H12043004   7.320   1.455   5.277  0.2345 -0.1062 -0.7130
  143MOL   H12143005   7.380   1.370   5.042 -1.1409  0.1384  0.3350
  143MOL   C12243006   7.169   0.908   5.035 -0.2389 -0.7045 -0.3932
  143MOL   C12343007   7.115   0.758   5.047 -0.0190 -0.1287 -0.2451
  143MOL   C12443008   7.059   0.736   5.187  0.0285 -0.1327 -0.7869
  143MOL   C12543009   7.124   0.660   5.282 -0.6621 -0.2605 -0.1975
  143MOL   C12643010   7.083   0.654   5.419 -0.2203  0.1112  0.3114
  143MOL   C12743011   6.967   0.729   5.450 -0.6442  0.1873  0.2689
  143MOL   C12843012   6.909   0.804   5.349 -0.3942  0.0393 -0.5858
  143MOL   N12943013   6.954   0.814   5.221  0.4773 -0.7832 -1.1424
  143MOL   H13043014   7.198   0.939   4.934  1.7403  3.7778  1.3655
  143MOL   H13143015   7.080   0.970   5.047  0.5485  0.9466 -2.6175
  143MOL   H13243016   7.194   0.685   5.028 -2.2154 -2.0106 -2.5200
  143MOL   H13343017   7.208   0.595   5.261 -0.9269 -1.1199  1.3556
  143MOL   H13443018   7.137   0.595   5.491  0.8721 -1.6047 -1.8644
  143MOL   H13543019   6.928   0.731   5.551  0.1366 -0.1559  0.5795
  143MOL   H13643020   6.819   0.859   5.375  0.0996  0.6346 -0.1443
  143MOL   C13743021   7.006   0.720   4.942  0.0177 -0.6337  0.2256
  143MOL   C13843022   7.060   0.727   4.796  0.3334  0.5218  0.0879
  143MOL   C13943023   7.204   0.689   4.771  0.0827 -0.3688  0.2996
  143MOL   C14043024   7.295   0.784   4.716  0.2088  0.4533  0.2312
  143MOL   C14143025   7.429   0.749   4.698 -0.4976  0.9319  0.4034
  143MOL   C14243026   7.467   0.619   4.730  0.4373  0.3329 -0.8415
  143MOL   C14343027   7.368   0.533   4.787  0.2285  0.0172 -0.2652
  143MOL   N14443028   7.239   0.566   4.798 -0.1188  0.2807 -0.4642
  143MOL   H14543029   6.911   0.770   4.963  0.0003 -1.1951  1.5148
  143MOL   H14643030   6.976   0.618   4.964 -1.2294  0.0484  1.7891
  143MOL   H14743031   7.056   0.836   4.789  1.0217  0.5459  0.0160
  143MOL   H14843032   7.263   0.886   4.700 -1.6790 -0.2910 -0.9526
  143MOL   H14943033   7.496   0.829   4.672  0.4578 -0.1014 -0.3819
  143MOL   H15043034   7.571   0.590   4.718  0.6007  0.7761 -0.5354
  143MOL   H15143035   7.397   0.434   4.818 -2.0449 -0.5832  0.0495
  143MOL   C15243036   6.964   0.667   4.685  0.2545 -0.3437  0.2482
  143MOL   C15343037   7.011   0.646   4.545  0.1574  0.3253 -0.6735
  143MOL   C15443038   6.911   0.557   4.470  0.5416 -0.2308  0.1290
  143MOL   C15543039   6.936   0.433   4.415  0.1114 -0.0757 -0.6123
  143MOL   C15643040   6.830   0.361   4.360  0.2687  0.4803 -0.5145
  143MOL   C15743041   6.701   0.410   4.367 -0.1532  0.5157 -0.1189
  143MOL   C15843042   6.688   0.541   4.426 -0.2898  0.1363 -0.2159
  143MOL   N15943043   6.789   0.611   4.475 -0.0919 -0.2953  1.0324
  143MOL   H16043044   6.872   0.724   4.703 -0.0276 -0.2878 -1.3532
  143MOL   H16143045   6.926   0.571   4.721  0.2232 -0.0525  1.0225
  143MOL   H16243046   7.101   0.585   4.548 -0.7069 -0.9510  0.2553
  143MOL   H16343047   7.031   0.381   4.417 -0.2144 -0.7165 -1.4781
  143MOL   H16443048   6.853   0.269   4.309  1.9631 -0.7988  2.4272
  143MOL   H16543049   6.615   0.355   4.333  1.0706 -1.4591 -0.0663
  143MOL   H16643050   6.588   0.581   4.433  0.5836  2.1769  0.9984
  143MOL   C16743051   7.053   0.771   4.469 -0.0016  0.6438  0.2847
  143MOL   C16843052   7.184   0.778   4.388 -0.5279  0.6496 -0.3964
  143MOL   C16943053   7.202   0.672   4.284 -0.2873 -0.0879  0.1486
  143MOL   C17043054   7.294   0.571   4.307  0.1063 -1.0581 -0.4317
  143MOL   C17143055   7.292   0.465   4.210 -0.2041  0.8510  0.3761
  143MOL   C17243056   7.218   0.473   4.096  0.2777  0.4484  0.4206
  143MOL   C17343057   7.132   0.583   4.081  0.4329 -0.1390 -0.1164
  143MOL   N17443058   7.111   0.670   4.184  0.3849  0.3524  0.8026
  143MOL   H17543059   7.075   0.848   4.542  3.2447  1.3341 -1.3268
  143MOL   H17643060   6.968   0.801   4.406  0.4159 -0.5533 -0.8800
  143MOL   H17743061   7.267   0.775   4.459  1.1108  3.4615 -2.1038
  143MOL   H17843062   7.359   0.558   4.392 -1.0055 -3.0157  0.1349
  143MOL   H17943063   7.356   0.378   4.221 -0.7281  0.3623 -0.4173
  143MOL   H18043064   7.230   0.397   4.020  0.1277 -0.6633  1.5096
  143MOL   H18143065   7.079   0.598   3.988  0.0669  1.9411  0.3889
  143MOL   C18243066   7.201   0.925   4.326 -0.3010  0.5882 -0.1656
  143MOL   C18343067   7.298   0.953   4.201  0.2331  0.3896  0.5342
  143MOL   C18443068   7.265   1.095   4.150  0.3828 -0.5390 -0.2490
  143MOL   C18543069   7.246   1.121   4.012 -0.2313  0.6109 -0.1480
  143MOL   C18643070   7.214   1.248   3.964 -0.4207 -0.0863 -0.0978
  143MOL   C18743071   7.188   1.345   4.063  0.5648 -0.1317 -0.4573
  143MOL   C18843072   7.211   1.316   4.197  0.2019 -0.3001 -0.5266
  143MOL   N18943073   7.244   1.196   4.242 -0.6195 -0.0911 -0.4776
  143MOL   H19043074   7.226   0.988   4.411  1.0584  0.4749 -0.4717
  143MOL   H19143075   7.108   0.949   4.273  0.3908  1.4750 -0.9987
  143MOL   H19243076   7.272   0.881   4.123  2.8310  0.4430 -0.4282
  143MOL   H19343077   7.254   1.032   3.951 -0.7546  0.0189  0.6283
  143MOL   H19443078   7.197   1.262   3.858 -1.0279 -0.9248 -0.1182
  143MOL   H19543079   7.152   1.444   4.038 -1.2663 -0.5062  0.6156
  143MOL   H19643080   7.189   1.395   4.267  1.0098 -0.2117 -0.3710
  143MOL   C19743081   7.450   0.924   4.232  0.3810  0.0555 -0.0614
  143MOL   C19843082   7.543   0.962   4.106  0.0494 -0.5919  0.2177
  143MOL   C19943083   7.615   1.097   4.135  0.7485  0.5119  0.7662
  143MOL   C20043084   7.605   1.203   4.045  0.1742  0.1594 -0.2808
  143MOL   C20143085   7.654   1.327   4.078 -0.7965 -0.4896 -0.0006
  143MOL   C20243086   7.737   1.336   4.191  0.0264 -0.7528 -1.2082
  143MOL   C20343087   7.756   1.219   4.268 -0.5462 -0.0724 -0.6512
  143MOL   N20443088   7.706   1.098   4.230 -0.3992  0.0290 -0.8437
  143MOL   H20543089   7.468   0.818   4.249  2.4560  0.2967 -0.6201
  143MOL   H20643090   7.480   0.977   4.323  0.3626  0.3061 -0.1999
  143MOL   H20743091   7.478   0.978   4.020 -0.2010  1.2210  0.7089
  143MOL   H20843092   7.539   1.200   3.960  0.3123  0.2950 -0.3927
  143MOL   H20943093   7.633   1.409   4.012 -0.9043  1.0019  1.8331
  143MOL   H21043094   7.789   1.420   4.233  1.6520 -1.0220 -2.6030
  143MOL   H21143095   7.816   1.239   4.355 -2.0424  1.2456  0.0982
  143MOL   C21243096   7.646   0.854   4.075 -0.4208 -0.1161  0.1286
  143MOL   C21343097   7.587   0.735   4.000 -0.4299  0.4871  0.4410
  143MOL   C21443098   7.517   0.762   3.869 -0.3453 -0.6993 -0.4029
  143MOL   C21543099   7.381   0.740   3.857 -0.1324  0.1818 -0.1099
  143MOL   C21643100   7.323   0.771   3.732  0.3470  0.4303  0.0725
  143MOL   C21743101   7.399   0.833   3.632  0.8848  0.5968  0.6201
  143MOL   C21843102   7.532   0.859   3.650 -0.3930  0.6175 -0.5002
  143MOL   N21943103   7.587   0.821   3.770 -0.4861 -0.2571  0.9579
  143MOL   H22043104   7.696   0.821   4.166  0.7411 -0.5270 -0.6524
  143MOL   H22143105   7.723   0.898   4.013 -0.6967 -2.2692 -1.8001
  143MOL   H22243106   7.506   0.702   4.064  0.7906  0.6543  2.1108
  143MOL   H22343107   7.316   0.689   3.927  2.8537 -3.0551  0.4535
  143MOL   H22443108   7.222   0.743   3.708  0.8164 -0.0059 -1.4434
  143MOL   H22543109   7.352   0.859   3.539  0.9505  1.6157  0.8604
  143MOL   H22643110   7.589   0.889   3.563 -0.8341 -2.8733 -2.0986
  143MOL   C22743111   7.702   0.629   3.988  0.5442  0.5054  0.4858
  143MOL   C22843112   7.678   0.518   3.878 -0.0143  0.2777 -0.2312
  143MOL   C22943113   7.803   0.439   3.855 -0.2522 -0.1765 -0.4752
  143MOL   C23043114   7.877   0.433   3.734 -0.0446 -0.3836 -0.3615
  143MOL   C23143115   7.979   0.339   3.730  0.3854  0.3269 -0.2833
  143MOL   C23243116   8.012   0.261   3.842 -0.0735 -0.4526 -0.3059
  143MOL   C23343117   7.947   0.291   3.960  0.1319 -0.6756  0.0870
  143MOL   N23443118   7.842   0.375   3.967  0.0709  0.4706  0.1967
  143MOL   H23543119   7.720   0.581   4.084 -0.4252  0.6976  0.7630
  143MOL   H23643120   7.788   0.680   3.944 -0.0295  0.1161 -1.0957
  143MOL   H23743121   7.662   0.562   3.780 -2.1161  0.7342  0.2866
  143MOL   H23843122   7.847   0.499   3.654  1.4663  1.1602  0.3129
  143MOL   H23943123   8.029   0.335   3.635 -0.4319  1.7328 -0.7973
  143MOL   H24043124   8.087   0.184   3.839  0.7196  0.3703 -2.2381
  143MOL   H24143125   7.987   0.263   4.056  1.1051 -2.0151 -0.6982
  143MOL   C24243126   7.547   0.430   3.905  0.4003  0.0916  0.2831
  143MOL   C24343127   7.519   0.313   3.801  0.8558  0.3003 -0.1133
  143MOL   C24443128   7.469   0.189   3.872 -0.4441  0.8093 -0.3141
  143MOL   C24543129   7.548   0.076   3.894  0.6248  0.5290  0.4319
  143MOL   C24643130   7.497   8.116   3.973 -0.0174 -0.1251  0.5434
  143MOL   C24743131   7.374   8.133   4.038  0.1720 -0.2365 -0.6874
  143MOL   C24843132   7.304   0.104   4.018  0.8125  0.7985 -0.1898
  143MOL   N24943133   7.349   0.206   3.938  0.2248 -0.2677 -0.5496
  143MOL   H25043134   7.456   0.488   3.921 -0.1738 -1.0643  1.3262
  143MOL   H25143135   7.568   0.379   3.999 -0.0337  1.3124  1.0479
  143MOL   H25243136   7.615   0.281   3.760  1.2203  0.8848  0.2838
  143MOL   H25343137   7.648   0.066   3.853  0.4656 -1.1495  0.4142
  143MOL   H25443138   7.553   8.025   3.988 -1.5568 -0.8039  2.4127
  143MOL   H25543139   7.340   8.050   4.098  0.9836 -1.6795 -2.2149
  143MOL   H25643140   7.215   0.114   4.079  0.1263 -3.2148 -0.3659
  143MOL   C25743141   7.429   0.354   3.678 -0.5712  0.0562  0.9696
  143MOL   C25843142   7.463   0.288   3.539 -0.2714  0.0010 -0.4877
  143MOL   C25943143   7.348   0.277   3.439 -0.1771 -0.0182 -0.0534
  143MOL   C26043144   7.322   0.163   3.360 -0.0449 -0.5247 -0.0332
  143MOL   C26143145   7.217   0.175   3.267  0.1076  0.1764  0.1003
  143MOL   C26243146   7.152   0.299   3.252  0.2819 -0.7195 -0.5642
  143MOL   C26343147   7.178   0.403   3.346  0.9840  0.2666 -0.4562
  143MOL   N26443148   7.280   0.397   3.430  0.0850 -0.5634 -1.2730
  143MOL   H26543149   7.440   0.462   3.670  2.4012 -0.2580  0.1061
  143MOL   H26643150   7.323   0.333   3.695 -0.8906  2.4050  2.0861
  143MOL   H26743151   7.507   0.191   3.564  0.6903  0.3322 -0.8885
  143MOL   H26843152   7.381   0.075   3.378  1.1755  0.0689 -1.0859
  143MOL   H26943153   7.192   0.094   3.201 -1.4004  0.4025  0.3726
  143MOL   H27043154   7.075   0.300   3.176 -1.0218  0.6884  0.7601
  143MOL   H27143155   7.123   0.495   3.361  2.0525  0.8814 -0.2462
  143MOL   C27243156   7.584   0.363   3.479  0.1485 -0.3747  0.3807
  143MOL   C27343157   7.654   0.304   3.352 -0.5162  0.1969 -0.2454
  143MOL   C27443158   7.639   0.393   3.231  0.0406 -0.2715 -0.5547
  143MOL   C27543159   7.555   0.355   3.124 -0.1046 -0.2142  0.3294
  143MOL   C27643160   7.543   0.445   3.018  0.0671  0.4454 -0.7213
  143MOL   C27743161   7.603   0.571   3.031  0.5375  0.3910 -0.3574
  143MOL   C27843162   7.684   0.602   3.136  0.2832  0.0245 -0.3662
  143MOL   N27943163   7.709   0.511   3.239  0.7189  0.2319  0.3354
  143MOL   H28043164   7.657   0.361   3.560  0.6069 -1.0701 -0.0411
  143MOL   H28143165   7.545   0.463   3.460 -2.0766 -1.3037 -0.0884
  143MOL   H28243166   7.601   0.212   3.331 -2.4237  1.7453 -2.3656
  143MOL   H28343167   7.515   0.255   3.124 -2.3465  0.6681 -0.6415
  143MOL   H28443168   7.469   0.432   2.941 -1.1156  0.1658  0.4573
  143MOL   H28543169   7.582   0.645   2.956  0.2480 -2.0153 -2.7452
  143MOL   H28643170   7.732   0.698   3.147  1.1820 -0.6937  2.4022
  143MOL   C28743171   7.800   0.261   3.369  0.0000 -0.6391  0.1237
  143MOL   C28843172   7.801   0.140   3.464 -0.3084 -0.1528  0.1204
  143MOL   C28943173   7.937   0.077   3.449  0.6830 -0.1002 -0.3750
  143MOL   C29043174   7.956   8.122   3.365  0.0141 -0.5945  0.2163
  143MOL   C29143175   8.078   8.065   3.341  0.5958 -0.6551  0.1638
  143MOL   C29243176   0.035   8.122   3.405 -0.0473 -0.5720 -0.1135
  143MOL   C29343177   0.012   0.082   3.487  0.5221  0.5453  0.1764
  143MOL   N29443178   8.043   0.134   3.507 -0.5556  0.1201  0.0684
  143MOL   H29543179   7.859   0.347   3.403 -0.4490  0.9333 -2.8958
  143MOL   H29643180   7.841   0.239   3.271 -0.5992 -2.3788  0.2597
  143MOL   H29743181   7.724   0.066   3.439 -0.4006 -0.2551  0.6886
  143MOL   H29843182   7.867   8.087   3.315 -0.7457  1.7007 -0.0959
  143MOL   H29943183   8.081   7.979   3.275  1.9816  0.2368 -0.9563
  143MOL   H30043184   0.137   8.102   3.373  0.1257  1.8037 -1.0835
  143MOL   H30143185   0.094   0.135   3.533  1.0412  0.3752 -0.5392
  143MOL   H30243186   7.782   0.161   3.569  0.3756  2.6712 -0.2904
  144MOL     C143187   4.289   7.879   5.350 -0.3301  0.1533 -0.0101
  144MOL     C243188   4.209   7.884   5.220 -0.1777 -0.1672 -0.2659
  144MOL     C343189   4.204   8.022   5.159 -0.4302  0.9767  0.3335
  144MOL     C443190   4.088   8.096   5.138 -0.4700  0.3263  0.0805
  144MOL     C543191   4.094   0.065   5.068 -0.4543  0.2848 -0.9008
  144MOL     C643192   4.216   0.116   5.026  0.4005  0.1706 -0.0784
  144MOL     C743193   4.325   0.037   5.056 -0.2748  0.2977  1.0156
  144MOL     N843194   4.324   8.067   5.118  0.0732  0.5198  0.3871
  144MOL     H943195   4.240   7.800   5.406  0.1600  1.3616  2.1460
  144MOL    H1043196   4.396   7.864   5.336  0.2428  3.9908 -0.4038
  144MOL    H1143197   4.105   7.867   5.248  0.1507  0.9924  1.7965
  144MOL    H1243198   3.998   8.053   5.177  0.2908 -0.7080  0.7078
  144MOL    H1343199   4.004   0.118   5.040 -0.1024  0.6570 -1.3174
  144MOL    H1443200   4.230   0.203   4.964  1.6781  0.3802  0.5035
  144MOL    H1543201   4.429   0.057   5.034 -0.0839  0.0232  1.6578
  144MOL    H1643202   4.275   7.969   5.409 -0.9873 -0.6257  1.0295
  144MOL    C1743203   4.239   7.779   5.112  0.0679  0.5304 -0.7243
  144MOL    C1843204   4.190   7.644   5.150 -0.4190 -0.2909 -0.0006
  144MOL    C1943205   4.046   7.628   5.129 -0.0992 -0.0687 -0.6114
  144MOL    C2043206   3.983   7.630   5.005 -0.2970 -0.6631 -0.0748
  144MOL    C2143207   3.846   7.610   5.000  0.7116 -0.3511 -0.1029
  144MOL    C2243208   3.771   7.598   5.117  0.0163  0.0416  0.0196
  144MOL    C2343209   3.840   7.601   5.239  0.2855  0.2290 -0.1561
  144MOL    N2443210   3.979   7.610   5.243  0.2982  0.6721 -1.3819
  144MOL    H2543211   4.346   7.781   5.092  0.1898 -1.1472 -0.2460
  144MOL    H2643212   4.190   7.802   5.017 -1.8869  0.1646  0.1711
  144MOL    H2743213   4.206   7.631   5.257  0.2334  4.3215  0.5559
  144MOL    H2843214   4.038   7.643   4.913  0.9544  0.2994  0.7902
  144MOL    H2943215   3.789   7.610   4.909  1.9711 -0.3429 -0.8952
  144MOL    H3043216   3.664   7.587   5.112 -0.1140  0.8595  0.8066
  144MOL    H3143217   3.794   7.601   5.337  1.2108 -0.5689  0.2896
  144MOL    C3243218   4.279   7.531   5.075  0.6035  0.2843 -0.3332
  144MOL    C3343219   4.258   7.386   5.122 -0.1941 -0.9637 -0.3967
  144MOL    C3443220   4.139   7.321   5.047 -0.1049  0.2477  0.1633
  144MOL    C3543221   4.022   7.283   5.119  0.5416  0.2511 -0.0638
  144MOL    C3643222   3.913   7.224   5.051  0.0240 -0.1835 -0.1433
  144MOL    C3743223   3.926   7.208   4.915 -0.4958  0.2740  0.2334
  144MOL    C3843224   4.044   7.252   4.851  0.2686 -0.5607 -0.1294
  144MOL    N3943225   4.150   7.305   4.915 -0.4892  0.9069 -0.5910
  144MOL    H4043226   4.383   7.551   5.101  0.1425  1.2263  0.8605
  144MOL    H4143227   4.268   7.534   4.966 -1.0240  1.9085 -0.1569
  144MOL    H4243228   4.239   7.379   5.229  0.0485 -0.5992 -0.3295
  144MOL    H4343229   4.014   7.303   5.224 -0.3983  1.1438 -0.3006
  144MOL    H4443230   3.829   7.177   5.101  0.7963  2.4179  3.8396
  144MOL    H4543231   3.845   7.162   4.860  0.7453 -0.4984 -0.9987
  144MOL    H4643232   4.047   7.252   4.743 -0.1999 -0.1230 -0.1439
  144MOL    C4743233   4.384   7.297   5.116 -0.1676 -0.3290  0.0120
  144MOL    C4843234   4.474   7.295   4.988  0.0363  0.4228 -0.0542
  144MOL    C4943235   4.581   7.398   4.995  0.3961 -0.2780  0.4656
  144MOL    C5043236   4.563   7.522   4.933 -0.8330  0.3509  0.0379
  144MOL    C5143237   4.656   7.624   4.962 -0.2174  0.6775  0.1334
  144MOL    C5243238   4.767   7.597   5.050 -0.1044  0.4132 -0.4737
  144MOL    C5343239   4.779   7.470   5.101  0.3514  0.4652  0.5878
  144MOL    N5443240   4.688   7.374   5.077 -0.5344  0.1971 -0.1717
  144MOL    H5543241   4.339   7.200   5.139 -1.3158  0.1928  0.0200
  144MOL    H5643242   4.445   7.319   5.204 -1.2771  1.3976  0.3791
  144MOL    H5743243   4.401   7.320   4.910 -1.5425  1.4306  1.7127
  144MOL    H5843244   4.476   7.546   4.873 -0.6072  0.9020 -0.0721
  144MOL    H5943245   4.640   7.722   4.920  0.9413 -0.4841 -3.2051
  144MOL    H6043246   4.823   7.687   5.072 -1.2832  0.9300  0.4920
  144MOL    H6143247   4.853   7.450   5.177 -0.5222  0.9850  1.5867
  144MOL    C6243248   4.527   7.150   4.967  0.1448  0.8512 -0.4088
  144MOL    C6343249   4.619   7.129   4.843  0.0874 -0.5963 -0.9016
  144MOL    C6443250   4.688   6.998   4.855 -0.0023 -0.3070 -0.4382
  144MOL    C6543251   4.821   6.992   4.898 -0.5071  0.5176 -0.0623
  144MOL    C6643252   4.869   6.865   4.935  0.1994  0.4862 -0.2895
  144MOL    C6743253   4.797   6.748   4.905  0.2119  0.0316  0.3141
  144MOL    C6843254   4.663   6.768   4.864 -0.2181 -0.3875  1.3999
  144MOL    N6943255   4.614   6.890   4.835  0.3218  0.7513  0.4037
  144MOL    H7043256   4.443   7.081   4.955 -0.3796  1.6223 -1.2115
  144MOL    H7143257   4.573   7.125   5.063 -2.2474 -0.7562  0.3787
  144MOL    H7243258   4.690   7.212   4.848 -1.6236  0.7847  2.5458
  144MOL    H7343259   4.865   7.087   4.924  0.9029  0.5193 -2.3511
  144MOL    H7443260   4.971   6.858   4.971  0.1330 -3.8766 -0.7522
  144MOL    H7543261   4.836   6.647   4.909 -2.1767 -0.9428 -0.0451
  144MOL    H7643262   4.592   6.687   4.855  0.9511 -1.1881 -1.3410
  144MOL    C7743263   4.544   7.153   4.709  0.1874  0.4323 -0.0583
  144MOL    C7843264   4.584   7.281   4.626 -0.1162  0.3451 -0.4804
  144MOL    C7943265   4.720   7.269   4.554  0.2267  0.0014  0.6681
  144MOL    C8043266   4.828   7.355   4.589  0.0782  0.0199 -0.1227
  144MOL    C8143267   4.946   7.352   4.516 -0.5835  0.6059  0.7926
  144MOL    C8243268   4.958   7.263   4.403 -0.1735  0.6218 -0.4731
  144MOL    C8343269   4.848   7.171   4.394  0.5234 -0.0840  0.0234
  144MOL    N8443270   4.733   7.182   4.458 -0.9895  0.4171  1.2795
  144MOL    H8543271   4.439   7.159   4.737  0.2418  1.7383 -0.0997
  144MOL    H8643272   4.553   7.059   4.654  0.2809  0.2743  0.2279
  144MOL    H8743273   4.604   7.349   4.710  2.3778 -1.7247  0.7008
  144MOL    H8843274   4.821   7.418   4.676 -0.1513  1.6005 -1.2794
  144MOL    H8943275   5.028   7.417   4.545  0.0258  0.2128 -0.0311
  144MOL    H9043276   5.050   7.253   4.347 -1.4843 -1.6210 -2.3259
  144MOL    H9143277   4.846   7.074   4.346 -1.2493 -1.2695  2.3818
  144MOL    C9243278   4.462   7.335   4.548 -0.3382 -0.2051  0.1240
  144MOL    C9343279   4.415   7.254   4.421  0.1002  0.3174 -0.0487
  144MOL    C9443280   4.344   7.130   4.474 -0.3413  0.3312  0.4916
  144MOL    C9543281   4.391   7.004   4.437  0.2710  0.8945  0.4831
  144MOL    C9643282   4.321   6.885   4.477 -0.5486 -0.8241 -0.2354
  144MOL    C9743283   4.205   6.897   4.554 -1.0168 -0.0493  0.0550
  144MOL    C9843284   4.169   7.033   4.578 -0.3072 -0.0923  1.0039
  144MOL    N9943285   4.231   7.140   4.543 -1.0138  0.0494 -0.4675
  144MOL   H10043286   4.487   7.433   4.506 -1.7806 -0.7230 -2.0329
  144MOL   H10143287   4.375   7.342   4.613 -0.2944 -1.9995  0.4003
  144MOL   H10243288   4.499   7.221   4.360 -0.6026 -0.6318 -0.5233
  144MOL   H10343289   4.483   6.987   4.382  2.2857 -0.6002  4.1366
  144MOL   H10443290   4.361   6.787   4.455 -1.6484 -1.3357  0.0031
  144MOL   H10543291   4.150   6.817   4.603 -1.0109 -0.5307 -0.7076
  144MOL   H10643292   4.080   7.047   4.637 -2.7138 -1.2668 -2.1833
  144MOL   C10743293   4.327   7.329   4.325 -0.3196  0.1359  0.7062
  144MOL   C10843294   4.383   7.459   4.261  0.0868  1.4735  0.3494
  144MOL   C10943295   4.491   7.433   4.157 -0.4717  0.3135 -0.3004
  144MOL   C11043296   4.627   7.467   4.186  0.6764 -0.1434 -0.0634
  144MOL   C11143297   4.722   7.424   4.089 -0.2232  0.1576  0.5034
  144MOL   C11243298   4.680   7.361   3.967 -0.6152 -0.1786  0.2898
  144MOL   C11343299   4.544   7.334   3.952  0.2091 -0.0324 -0.7362
  144MOL   N11443300   4.448   7.371   4.041 -0.3075 -0.5441 -0.1410
  144MOL   H11543301   4.235   7.355   4.377 -2.5121 -2.2995 -1.7577
  144MOL   H11643302   4.295   7.264   4.243 -0.1735  2.1233 -0.9799
  144MOL   H11743303   4.437   7.520   4.333 -2.3626  1.9625  1.8278
  144MOL   H11843304   4.652   7.514   4.280  1.2410 -0.8512  0.1485
  144MOL   H11943305   4.826   7.447   4.105 -0.3209  0.2605  1.0050
  144MOL   H12043306   4.752   7.323   3.897  1.6355  3.8526  0.2331
  144MOL   H12143307   4.511   7.277   3.867  0.9987 -0.5246 -0.7151
  144MOL   C12243308   4.273   7.559   4.201  0.8936 -0.0589  0.5017
  144MOL   C12343309   4.174   7.617   4.303  0.2191 -0.2267  0.2302
  144MOL   C12443310   4.244   7.689   4.415  0.4687 -0.1911  0.0054
  144MOL   C12543311   4.225   7.651   4.545 -0.0631 -0.5764 -0.3432
  144MOL   C12643312   4.272   7.724   4.658  0.3458 -0.1035 -0.5020
  144MOL   C12743313   4.351   7.836   4.627 -0.2163  0.1791 -0.2987
  144MOL   C12843314   4.379   7.860   4.487 -0.1812 -0.3949  0.1196
  144MOL   N12943315   4.325   7.787   4.384 -0.6700 -0.5513 -0.0418
  144MOL   H13043316   4.217   7.507   4.123 -0.6252  1.2981  0.6359
  144MOL   H13143317   4.319   7.637   4.140 -0.2036  1.1616  1.1955
  144MOL   H13243318   4.115   7.534   4.342  2.8585 -0.5729  3.7352
  144MOL   H13343319   4.143   7.581   4.560 -0.3950  0.0193  0.7037
  144MOL   H13443320   4.244   7.696   4.758 -0.1379 -1.9361 -1.1144
  144MOL   H13543321   4.401   7.896   4.702  1.1345 -0.2632 -0.8213
  144MOL   H13643322   4.439   7.945   4.458 -0.0892 -1.1902 -2.0433
  144MOL   C13743323   4.067   7.705   4.230 -0.1143 -0.1827 -0.0774
  144MOL   C13843324   3.969   7.765   4.333 -0.3226  0.4015 -0.0170
  144MOL   C13943325   3.878   7.865   4.272  0.3225 -0.2711 -0.1642
  144MOL   C14043326   3.900   8.005   4.288 -0.3722  0.7959 -0.2006
  144MOL   C14143327   3.812   8.096   4.237  0.2190 -0.4203 -0.8251
  144MOL   C14243328   3.702   8.050   4.164 -0.2420  0.5253  0.2110
  144MOL   C14343329   3.691   7.916   4.138  0.1865  0.1400  0.4542
  144MOL   N14443330   3.774   7.826   4.194  0.0952  0.5743 -0.0999
  144MOL   H14543331   4.007   7.645   4.161 -1.0766  1.6471 -0.8691
  144MOL   H14643332   4.117   7.784   4.174 -0.8054  0.2007 -0.1564
  144MOL   H14743333   4.022   7.822   4.410 -0.7546  2.1889 -1.0277
  144MOL   H14843334   3.977   8.046   4.351 -0.5327 -1.9942  1.8976
  144MOL   H14943335   3.836   0.049   4.249  1.3265 -0.7309 -0.2123
  144MOL   H15043336   3.644   8.113   4.098 -1.2687 -2.1239 -1.4923
  144MOL   H15143337   3.609   7.880   4.077  0.4821  0.4866 -0.1590
  144MOL   C15243338   3.882   7.659   4.408  0.4825  0.3677  0.8629
  144MOL   C15343339   3.750   7.701   4.486  0.5215  0.7029 -0.0985
  144MOL   C15443340   3.682   7.580   4.551 -0.4020  0.1094 -0.1499
  144MOL   C15543341   3.551   7.535   4.516  0.4868  0.2290 -0.4398
  144MOL   C15643342   3.500   7.411   4.568  0.1370  0.3439 -0.3881
  144MOL   C15743343   3.583   7.344   4.659 -0.3992  0.6570 -0.0666
  144MOL   C15843344   3.703   7.399   4.690 -0.2428  0.3326 -0.3291
  144MOL   N15943345   3.757   7.506   4.641  0.3508  0.0892  0.8679
  144MOL   H16043346   3.947   7.604   4.476 -2.0753 -3.3024  0.4909
  144MOL   H16143347   3.857   7.580   4.337  0.6852 -0.1340  1.3506
  144MOL   H16243348   3.682   7.749   4.416 -0.9077  1.1281  1.5647
  144MOL   H16343349   3.490   7.587   4.444  0.3285  3.5199  1.9841
  144MOL   H16443350   3.401   7.379   4.542  1.0959 -3.3358  0.1217
  144MOL   H16543351   3.546   7.253   4.704  0.2089  0.2356 -0.4111
  144MOL   H16643352   3.761   7.329   4.749 -0.0870 -0.1130 -0.9927
  144MOL   C16743353   3.791   7.816   4.591  0.9281  0.2530 -0.1824
  144MOL   C16843354   3.673   7.899   4.633 -0.2676 -0.4778 -0.5190
  144MOL   C16943355   3.679   7.938   4.779 -0.5518  0.2124 -0.0302
  144MOL   C17043356   3.575   7.896   4.871  0.7910 -0.5154 -0.5084
  144MOL   C17143357   3.603   7.926   5.009  0.0573 -0.5618  0.1752
  144MOL   C17243358   3.708   8.007   5.046 -0.0447  0.3546 -0.3760
  144MOL   C17343359   3.804   8.031   4.946 -0.1342  0.0560 -0.2235
  144MOL   N17443360   3.785   8.011   4.816 -0.0775 -0.1551 -0.0922
  144MOL   H17543361   3.863   7.872   4.532  1.1695  1.2174  1.0080
  144MOL   H17643362   3.844   7.767   4.673 -0.6163 -2.6609 -0.8353
  144MOL   H17743363   3.588   7.832   4.624 -2.0148  1.2675  2.3710
  144MOL   H17843364   3.490   7.834   4.848  1.0917 -0.1873 -2.6808
  144MOL   H17943365   3.531   7.898   5.084  1.0633  0.7516  1.6531
  144MOL   H18043366   3.727   8.030   5.149 -0.7222  1.5439 -0.4972
  144MOL   H18143367   3.894   8.088   4.966 -0.3836  0.8870 -1.4522
  144MOL   C18243368   3.647   8.019   4.535 -0.6845  0.4559  0.0185
  144MOL   C18343369   3.554   8.134   4.567  0.3381 -0.0416  0.5146
  144MOL   C18443370   3.601   0.121   4.529  0.5244 -0.0845 -0.4282
  144MOL   C18543371   3.674   0.193   4.626 -0.1524  0.1512 -0.7452
  144MOL   C18643372   3.731   0.318   4.589  0.1572 -0.2726  0.0050
  144MOL   C18743373   3.709   0.367   4.457  0.8158 -0.6518 -0.5321
  144MOL   C18843374   3.635   0.294   4.367 -0.7041  0.2026  0.7017
  144MOL   N18943375   3.583   0.177   4.405 -0.2372 -0.0968  0.1930
  144MOL   H19043376   3.624   7.989   4.432 -1.0019  2.4116 -0.5048
  144MOL   H19143377   3.745   8.065   4.546  0.9953 -3.2785  1.5147
  144MOL   H19243378   3.556   8.138   4.676  1.2895  1.7479  0.4403
  144MOL   H19343379   3.689   0.163   4.729 -3.0562 -0.7641 -0.5394
  144MOL   H19443380   3.796   0.375   4.653  0.3417  0.8537 -1.1692
  144MOL   H19543381   3.739   0.469   4.437 -3.6316  1.8928  4.4557
  144MOL   H19643382   3.606   0.330   4.269 -0.8975  1.7805  1.3301
  144MOL   C19743383   3.408   8.110   4.523 -0.3331 -0.4672 -0.2767
  144MOL   C19843384   3.293   0.043   4.592  0.0040 -0.5857  0.5700
  144MOL   C19943385   3.168   0.020   4.514 -0.5252  0.5450 -0.6648
  144MOL   C20043386   3.129   0.108   4.410 -0.3031  0.0992  0.2972
  144MOL   C20143387   3.020   0.082   4.337 -0.2582  0.4943  1.5796
  144MOL   C20243388   2.954   8.116   4.358  0.0833 -0.2424  0.1294
  144MOL   C20343389   3.004   8.021   4.450  0.6873 -0.2549  0.3619
  144MOL   N20443390   3.118   8.047   4.519  0.3480 -0.4789  0.1987
  144MOL   H20543391   3.389   8.004   4.540  0.1288 -0.5994 -0.5842
  144MOL   H20643392   3.397   8.136   4.418 -0.1295  0.4250 -0.0836
  144MOL   H20743393   3.323   0.147   4.572 -2.5308  0.0659  0.0447
  144MOL   H20843394   3.179   0.201   4.386 -1.0774  0.3554 -0.3224
  144MOL   H20943395   2.983   0.154   4.265  1.4050 -0.1930  0.0015
  144MOL   H21043396   2.865   8.102   4.298 -1.1487  1.7333  1.4226
  144MOL   H21143397   2.954   7.925   4.459 -0.7322  0.1855 -2.4900
  144MOL   C21243398   3.280   0.013   4.737  0.6533 -0.9868  0.3601
  144MOL   C21343399   3.351   0.118   4.831 -0.1025 -0.4399  0.7361
  144MOL   C21443400   3.291   0.255   4.820  0.4503 -0.2305  0.3038
  144MOL   C21543401   3.358   0.363   4.781  0.0015  0.5390 -0.3575
  144MOL   C21643402   3.306   0.489   4.802  0.2587  0.0725  0.0495
  144MOL   C21743403   3.172   0.500   4.848 -0.3460 -0.0216  0.1398
  144MOL   C21843404   3.102   0.380   4.874 -0.1342 -0.2191  0.0106
  144MOL   N21943405   3.162   0.257   4.863 -0.0369 -0.2521 -0.2708
  144MOL   H22043406   3.312   8.062   4.755  0.1775 -1.2162 -0.0980
  144MOL   H22143407   3.177   0.019   4.774  1.0876 -0.0298  1.4205
  144MOL   H22243408   3.450   0.126   4.788  0.8087 -2.9238  2.2699
  144MOL   H22343409   3.454   0.350   4.733 -0.2439 -0.1834 -0.6698
  144MOL   H22443410   3.356   0.584   4.787 -2.1175  1.2645 -0.5431
  144MOL   H22543411   3.121   0.595   4.855  0.8641  0.6104  0.4682
  144MOL   H22643412   3.000   0.379   4.911 -0.9762  1.7020 -2.1513
  144MOL   C22743413   3.370   0.055   4.969  0.3216 -0.8872  0.2192
  144MOL   C22843414   3.417   0.160   5.076 -0.7651  0.0937 -0.3519
  144MOL   C22943415   3.413   0.109   5.219 -0.1026 -0.5807  0.7861
  144MOL   C23043416   3.517   0.039   5.281 -0.1191  0.4147 -0.1609
  144MOL   C23143417   3.496   8.130   5.400 -0.3060  1.0007 -0.1865
  144MOL   C23243418   3.372   8.141   5.461  0.0059  0.0543  0.1602
  144MOL   C23343419   3.280   0.072   5.402  0.2887  0.0852 -0.3595
  144MOL   N23443420   3.300   0.138   5.285  0.2871 -0.5233 -0.1073
  144MOL   H23543421   3.440   8.123   4.969 -0.0311 -1.1860 -0.5535
  144MOL   H23643422   3.272   0.012   4.991  0.0999 -1.0038 -0.9625
  144MOL   H23743423   3.351   0.246   5.086  0.1490  0.5867  1.7011
  144MOL   H23843424   3.601   0.010   5.220  0.8669  3.2631 -0.2419
  144MOL   H23943425   3.573   8.072   5.447 -0.4601 -0.5504 -1.7885
  144MOL   H24043426   3.333   8.085   5.546 -2.6481 -0.4395 -1.3170
  144MOL   H24143427   3.177   0.082   5.433  0.4430  1.4863 -0.3016
  144MOL   C24243428   3.558   0.216   5.045  0.1819 -0.4453  0.1353
  144MOL   C24343429   3.611   0.325   5.137  0.0543  1.0456  0.4959
  144MOL   C24443430   3.762   0.351   5.105  0.7807 -0.2167 -0.1885
  144MOL   C24543431   3.859   0.357   5.205 -0.8922 -0.2087  0.4533
  144MOL   C24643432   3.993   0.381   5.167 -0.3836  0.3301 -0.2378
  144MOL   C24743433   4.021   0.397   5.032  0.0550  0.3700  0.2060
  144MOL   C24843434   3.917   0.387   4.940 -0.0492 -0.1821  0.3784
  144MOL   N24943435   3.787   0.379   4.971 -0.0283  0.1979  0.0075
  144MOL   H25043436   3.550   0.270   4.950 -0.8242  0.8425  0.9492
  144MOL   H25143437   3.640   0.146   5.027 -0.3024 -1.3548  1.4231
  144MOL   H25243438   3.593   0.291   5.239  0.4791  0.3947  0.3570
  144MOL   H25343439   3.837   0.355   5.310 -3.4534  0.7566 -0.0232
  144MOL   H25443440   4.075   0.391   5.237  0.7627 -2.2429 -1.1681
  144MOL   H25543441   4.115   0.438   4.999  0.6881 -1.7441 -0.7350
  144MOL   H25643442   3.937   0.407   4.836 -0.5751  0.5268  0.4120
  144MOL   C25743443   3.529   0.453   5.124  0.3144  0.4034 -0.4687
  144MOL   C25843444   3.578   0.571   5.215  0.3182 -0.6830  0.5339
  144MOL   C25943445   3.625   0.683   5.121 -0.6283  0.1191  0.1625
  144MOL   C26043446   3.762   0.718   5.124  1.0145 -0.0483 -0.1320
  144MOL   C26143447   3.799   0.827   5.049  0.4792 -0.0683  0.3674
  144MOL   C26243448   3.708   0.901   4.973 -0.0374  0.2387 -0.3756
  144MOL   C26343449   3.576   0.852   4.970 -1.4070  0.4634  0.4331
  144MOL   N26443450   3.535   0.754   5.047  0.5919  0.3369  0.3980
  144MOL   H26543451   3.423   0.444   5.144  0.4861  1.1393  0.8550
  144MOL   H26643452   3.530   0.488   5.021  1.6485  1.1618 -0.2143
  144MOL   H26743453   3.661   0.553   5.283  0.3326  3.5982  1.8377
  144MOL   H26843454   3.837   0.667   5.182 -0.0782  0.0496  1.4014
  144MOL   H26943455   3.904   0.847   5.061  1.0188 -3.0666  0.9187
  144MOL   H27043456   3.739   0.984   4.911  1.5971 -1.2829 -1.6647
  144MOL   H27143457   3.507   0.903   4.905 -0.6522  0.0438 -0.7105
  144MOL   C27243458   3.462   0.615   5.308  0.5739 -0.0088 -0.1542
  144MOL   C27343459   3.416   0.525   5.420 -0.1735 -0.1363  0.1960
  144MOL   C27443460   3.531   0.490   5.509 -0.0692 -0.5326 -0.3921
  144MOL   C27543461   3.561   0.352   5.537 -0.0551  0.3819  0.6101
  144MOL   C27643462   3.668   0.318   5.620  0.1827 -1.0147 -0.3047
  144MOL   C27743463   3.737   0.426   5.684  0.1455 -0.2823  0.4447
  144MOL   C27843464   3.702   0.554   5.651  0.1455 -0.0878  0.3862
  144MOL   N27943465   3.606   0.588   5.568 -0.0157 -0.6163  0.6079
  144MOL   H28043466   3.373   0.635   5.248  1.0450 -0.0190 -0.8720
  144MOL   H28143467   3.498   0.710   5.347  1.8780 -0.3716 -0.4559
  144MOL   H28243468   3.375   0.429   5.386 -3.4434  1.1753  0.2222
  144MOL   H28343469   3.508   0.271   5.489  0.9183 -0.3191  0.7010
  144MOL   H28443470   3.703   0.217   5.635 -1.0651 -1.5522 -0.9543
  144MOL   H28543471   3.823   0.413   5.749  0.7562 -0.1235 -0.3366
  144MOL   H28643472   3.760   0.643   5.672 -1.6729  0.5644  2.9097
  144MOL   C28743473   3.308   0.596   5.504 -0.3709  0.0616  0.2287
  144MOL   C28843474   3.219   0.507   5.589 -0.4107  0.7439  0.5559
  144MOL   C28943475   3.127   0.584   5.686 -0.8930 -0.0532  0.3137
  144MOL   C29043476   2.987   0.562   5.685  0.6144 -0.2647  0.3131
  144MOL   C29143477   2.912   0.630   5.782 -0.0184 -0.4762  0.5391
  144MOL   C29243478   2.973   0.717   5.863  0.2246 -0.0242  0.0079
  144MOL   C29343479   3.110   0.736   5.853 -0.6322 -0.4205 -0.7058
  144MOL   N29443480   3.188   0.671   5.765  0.5581  0.1258  0.3333
  144MOL   H29543481   3.253   0.659   5.434 -2.5709 -1.3928  0.6257
  144MOL   H29643482   3.358   0.674   5.561 -0.1492  0.0598  0.0402
  144MOL   H29743483   3.278   0.437   5.649 -2.9388 -2.2928 -0.4230
  144MOL   H29843484   2.935   0.491   5.622 -1.5685  0.9522  0.6642
  144MOL   H29943485   2.808   0.602   5.784  0.2112 -1.3428  1.0982
  144MOL   H30043486   2.915   0.768   5.938 -0.5572 -2.2417  0.9446
  144MOL   H30143487   3.156   0.810   5.918  0.2321 -1.5787  0.0229
  144MOL   H30243488   3.160   0.435   5.533  2.0461 -0.8262 -0.1164
  145MOL     C143489   8.078   7.648   3.795  0.1216 -0.7960  0.5113
  145MOL     C243490   8.126   7.505   3.785  0.0870  0.0410  0.0181
  145MOL     C343491   0.040   7.450   3.916  1.2173 -0.1739 -0.2412
  145MOL     C443492   8.114   7.396   4.019  0.3166 -1.1553  0.4599
  145MOL     C543493   0.022   7.360   4.145  1.3738 -0.3546  0.0301
  145MOL     C643494   0.160   7.373   4.153 -0.0185  0.1259 -0.3775
  145MOL     C743495   0.230   7.432   4.042  0.0020  0.7801 -0.2802
  145MOL     N843496   0.173   7.464   3.926  0.7809 -0.0436  0.0801
  145MOL     H943497   7.998   7.651   3.869 -1.3028  1.6288 -1.0607
  145MOL    H1043498   0.004   7.718   3.825 -0.2912 -0.0436 -0.1822
  145MOL    H1143499   0.061   7.512   3.719  1.0177 -2.4425  0.9201
  145MOL    H1243500   8.006   7.394   4.016  0.3202  0.5350 -2.6071
  145MOL    H1343501   8.118   7.324   4.229  0.8428 -1.2523 -0.6970
  145MOL    H1443502   0.213   7.338   4.240 -2.0534 -0.1632  0.7503
  145MOL    H1543503   0.336   7.452   4.052 -0.1680  0.8333  1.5690
  145MOL    H1643504   8.040   7.706   3.711 -0.0416  0.9906  1.7765
  145MOL    C1743505   8.018   7.402   3.739 -0.0429  0.3268 -0.0475
  145MOL    C1843506   7.969   7.428   3.598 -0.4130  0.1069  0.5209
  145MOL    C1943507   7.958   7.291   3.528 -0.0604  0.3017  0.2705
  145MOL    C2043508   8.078   7.223   3.490 -0.9974  0.3490 -0.2029
  145MOL    C2143509   8.069   7.086   3.456 -0.7105  0.2226 -0.1817
  145MOL    C2243510   7.942   7.019   3.458 -0.0433 -0.2720 -0.5340
  145MOL    C2343511   7.831   7.099   3.509 -0.3908  0.4763  0.5125
  145MOL    N2443512   7.841   7.232   3.539 -1.0230  0.2336  0.0632
  145MOL    H2543513   7.934   7.390   3.808 -0.6216 -0.8573 -0.9405
  145MOL    H2643514   8.070   7.306   3.742 -0.9098 -0.1215  1.9427
  145MOL    H2743515   8.042   7.488   3.544 -1.1412  0.5001 -0.0405
  145MOL    H2843516   0.022   7.270   3.504 -1.0197 -0.1222  1.6503
  145MOL    H2943517   0.013   7.041   3.440  0.1947  1.6675  1.0411
  145MOL    H3043518   7.919   6.914   3.452 -2.0323  0.2864 -5.1332
  145MOL    H3143519   7.729   7.068   3.529 -0.5205 -1.6235 -2.8935
  145MOL    C3243520   7.834   7.516   3.591  0.3370 -0.5002  0.6070
  145MOL    C3343521   7.778   7.547   3.447  0.2052  0.2473  0.1903
  145MOL    C3443522   7.640   7.613   3.453 -0.0543 -0.7079 -1.0625
  145MOL    C3543523   7.519   7.550   3.426  0.3722 -0.0172 -0.3880
  145MOL    C3643524   7.395   7.611   3.452 -0.3414  0.0993  0.0321
  145MOL    C3743525   7.397   7.738   3.512 -0.3023  0.1266 -0.1175
  145MOL    C3843526   7.521   7.794   3.544  0.8423  0.2476  0.5853
  145MOL    N3943527   7.639   7.736   3.515 -1.4339  0.4822 -0.0044
  145MOL    H4043528   7.864   7.610   3.638  1.2881 -0.4707 -0.0313
  145MOL    H4143529   7.754   7.487   3.658 -0.1510 -0.5940 -0.0075
  145MOL    H4243530   7.756   7.450   3.402 -0.7599  0.1859  0.7778
  145MOL    H4343531   7.507   7.449   3.391  0.7216 -0.3449  0.4443
  145MOL    H4443532   7.311   7.547   3.430  1.6367 -2.5596 -0.0523
  145MOL    H4543533   7.309   7.790   3.546 -1.2419 -2.8980  2.2979
  145MOL    H4643534   7.528   7.885   3.602  1.9807  0.1514  0.6059
  145MOL    C4743535   7.882   7.630   3.366  0.2377  0.5166 -0.2452
  145MOL    C4843536   7.831   7.675   3.222 -0.6202  0.2080  0.0364
  145MOL    C4943537   7.933   7.768   3.152 -0.0471  0.9947  1.1886
  145MOL    C5043538   8.068   7.724   3.128 -0.0816 -0.3567 -0.1097
  145MOL    C5143539   0.003   7.811   3.056 -0.0976  0.3688 -0.0332
  145MOL    C5243540   8.092   7.919   2.989 -0.1591  0.0928 -0.0487
  145MOL    C5343541   7.963   7.953   3.022 -0.5894 -0.1466 -0.5924
  145MOL    N5443542   7.878   7.881   3.096 -0.0420  0.0663 -0.0452
  145MOL    H5543543   7.975   7.576   3.350 -1.7026 -3.2914  0.9245
  145MOL    H5643544   7.908   7.723   3.418 -1.0174  1.7482 -1.7833
  145MOL    H5743545   7.743   7.738   3.233 -1.9660 -1.6366  0.1224
  145MOL    H5843546   8.111   7.633   3.168  1.0826 -1.1198 -2.9433
  145MOL    H5943547   0.107   7.785   3.046  0.3883  2.0859  0.4687
  145MOL    H6043548   8.143   7.999   2.939 -0.7309  0.6035  0.1750
  145MOL    H6143549   7.927   8.048   2.985  0.8784  0.2097 -1.1518
  145MOL    C6243550   7.806   7.550   3.132 -1.2308 -0.3992 -0.4860
  145MOL    C6343551   7.748   7.576   2.991  0.4292 -0.0329  0.2474
  145MOL    C6443552   7.769   7.453   2.905  0.8280 -0.0253  0.4765
  145MOL    C6543553   7.856   7.467   2.797 -0.2802  0.0770  0.0503
  145MOL    C6643554   7.871   7.352   2.713  0.1132  0.4139 -0.4935
  145MOL    C6743555   7.802   7.230   2.735 -0.7354  0.0904  0.0481
  145MOL    C6843556   7.722   7.230   2.846  0.0908  0.0115  0.4816
  145MOL    N6943557   7.705   7.335   2.928  0.3832 -0.7326 -0.2467
  145MOL    H7043558   7.747   7.477   3.187 -0.7341 -1.4375 -1.2974
  145MOL    H7143559   7.904   7.503   3.119 -1.2227 -0.5076 -0.0356
  145MOL    H7243560   7.809   7.653   2.944  2.1776 -1.8611 -0.5307
  145MOL    H7343561   7.909   7.560   2.786 -2.0328  1.0385 -0.4674
  145MOL    H7443562   7.947   7.346   2.636  0.3083 -4.8914 -0.0402
  145MOL    H7543563   7.811   7.140   2.675 -1.2328  0.7048 -0.9698
  145MOL    H7643564   7.668   7.139   2.869 -1.7006  0.3935 -2.0029
  145MOL    C7743565   7.600   7.623   3.003  0.0222 -0.5091  0.1514
  145MOL    C7843566   7.519   7.637   2.869  0.8383  0.2597 -0.8824
  145MOL    C7943567   7.401   7.538   2.875 -0.1641 -0.4520 -0.0567
  145MOL    C8043568   7.395   7.425   2.794 -0.0600  0.4067  0.0434
  145MOL    C8143569   7.286   7.340   2.793  0.0749 -0.1862  0.5375
  145MOL    C8243570   7.191   7.369   2.888  0.1880 -0.5571 -0.7898
  145MOL    C8343571   7.203   7.479   2.973  0.0170  0.5333  0.3640
  145MOL    N8443572   7.304   7.565   2.967 -0.7822 -0.2429  0.0024
  145MOL    H8543573   7.601   7.725   3.044  0.3141 -0.9663  1.3075
  145MOL    H8643574   7.546   7.559   3.072 -0.3106 -0.8413 -0.4198
  145MOL    H8743575   7.587   7.607   2.790  0.0515  0.0912 -1.5056
  145MOL    H8843576   7.482   7.397   2.738  2.0384  2.0217  2.3791
  145MOL    H8943577   7.268   7.256   2.727 -2.0369 -0.5469  1.5513
  145MOL    H9043578   7.100   7.311   2.892  0.6974 -1.2587  0.7022
  145MOL    H9143579   7.131   7.501   3.050  0.9555 -1.5600  1.8852
  145MOL    C9243580   7.469   7.783   2.830 -0.3651 -1.0130  0.3002
  145MOL    C9343581   7.570   7.896   2.790  0.0472 -0.3640  0.0502
  145MOL    C9443582   7.665   7.853   2.677 -0.4483 -0.3803 -0.5211
  145MOL    C9543583   7.801   7.896   2.675  0.2608 -0.6894  0.0289
  145MOL    C9643584   7.884   7.839   2.582  0.6172 -0.4112  0.2793
  145MOL    C9743585   7.836   7.754   2.485  0.2584 -0.9477 -0.6898
  145MOL    C9843586   7.699   7.729   2.485  0.5074 -0.5458 -0.3208
  145MOL    N9943587   7.614   7.771   2.582  0.1531 -0.5103 -0.2668
  145MOL   H10043588   7.404   7.816   2.912  3.2235  1.2644  2.4105
  145MOL   H10143589   7.406   7.767   2.743 -1.1228 -0.8674  0.8150
  145MOL   H10243590   7.619   7.919   2.884 -2.6626 -1.1917  1.7194
  145MOL   H10343591   7.847   7.968   2.741  0.6852 -2.4144  1.6556
  145MOL   H10443592   7.991   7.857   2.587  0.5296 -0.1579  1.2022
  145MOL   H10543593   7.880   7.716   2.394 -1.0952  0.1673 -1.8426
  145MOL   H10643594   7.659   7.674   2.401 -0.2013 -0.9714  0.2851
  145MOL   C10743595   7.509   8.025   2.741  0.5505  0.5482  0.0984
  145MOL   C10843596   7.424   8.114   2.846  0.5722 -1.4126 -0.0119
  145MOL   C10943597   7.483   8.095   2.985  0.1583 -0.1839 -1.0389
  145MOL   C11043598   7.415   8.025   3.086 -0.4265 -0.3980 -0.5259
  145MOL   C11143599   7.480   8.016   3.210 -0.3979 -1.1045 -0.0814
  145MOL   C11243600   7.615   8.063   3.226 -0.0517 -0.1720 -0.3851
  145MOL   C11343601   7.681   8.122   3.116 -0.1977  0.8914  1.0905
  145MOL   N11443602   7.614   8.136   2.994  1.1194 -0.2383 -0.1983
  145MOL   H11543603   7.445   8.014   2.654  1.1818 -1.0169 -0.1788
  145MOL   H11643604   7.594   8.090   2.717  2.1715 -1.3975  0.4652
  145MOL   H11743605   7.325   8.069   2.838 -0.1162  0.0730  0.0728
  145MOL   H11843606   7.316   7.984   3.073 -0.1710 -0.7450 -1.4449
  145MOL   H11943607   7.431   7.970   3.294 -0.7479 -0.7697 -0.1022
  145MOL   H12043608   7.672   8.046   3.317  0.3422  0.4760 -0.5059
  145MOL   H12143609   7.785   8.151   3.109 -0.3444  1.8953  2.8407
  145MOL   C12243610   7.412   0.115   2.803 -0.7266 -0.8023 -0.1094
  145MOL   C12343611   7.326   0.149   2.680  0.7246  0.0809  0.1692
  145MOL   C12443612   7.182   0.124   2.706 -0.0031 -0.3520  0.3225
  145MOL   C12543613   7.113   0.194   2.810 -0.1766 -0.1933 -0.4454
  145MOL   C12643614   6.984   0.149   2.843  0.1223 -0.7607  0.8991
  145MOL   C12743615   6.921   0.046   2.770 -0.1207  0.7119  0.4862
  145MOL   C12843616   7.007   8.130   2.682  0.0658 -0.7470  0.2322
  145MOL   N12943617   7.127   0.018   2.650  0.5296  0.0040  0.3081
  145MOL   H13043618   7.510   0.156   2.779 -1.7893  0.7147 -1.9069
  145MOL   H13143619   7.376   0.165   2.893  0.6113 -0.5250  0.2846
  145MOL   H13243620   7.359   0.078   2.605  0.1981  1.0065 -0.9575
  145MOL   H13343621   7.147   0.280   2.865 -0.7989 -0.3946  0.2645
  145MOL   H13443622   6.925   0.210   2.910 -0.1918  2.6303 -2.2840
  145MOL   H13543623   6.829   8.143   2.781  0.0853  0.5584  1.4601
  145MOL   H13643624   6.971   8.049   2.621  0.5004  0.0413 -1.1042
  145MOL   C13743625   7.345   0.287   2.612 -0.0373  0.2659  0.2293
  145MOL   C13843626   7.248   0.331   2.503 -0.3339 -1.0487 -0.2289
  145MOL   C13943627   7.289   0.467   2.454 -0.2270 -0.2302 -0.5510
  145MOL   C14043628   7.227   0.586   2.505 -0.6794  0.0326 -0.0257
  145MOL   C14143629   7.259   0.704   2.433 -0.2743  0.4447  0.1824
  145MOL   C14243630   7.354   0.705   2.326 -0.1096 -0.0611 -0.5235
  145MOL   C14343631   7.419   0.582   2.298  0.4067 -0.3941 -0.9174
  145MOL   N14443632   7.386   0.468   2.364 -0.3151  0.0609  0.2291
  145MOL   H14543633   7.447   0.311   2.580 -0.3149 -1.0652 -1.7570
  145MOL   H14643634   7.317   0.353   2.694  0.0712  0.5960  0.0031
  145MOL   H14743635   7.155   0.331   2.561 -1.1827  0.2295 -1.5588
  145MOL   H14843636   7.148   0.582   2.579 -0.7542  3.2579  0.1375
  145MOL   H14943637   7.195   0.787   2.456 -3.6072 -2.1284  0.6018
  145MOL   H15043638   7.368   0.798   2.273 -1.6321  0.3529 -0.2160
  145MOL   H15143639   7.496   0.582   2.222 -0.4332 -0.7176 -1.7744
  145MOL   C15243640   7.237   0.225   2.388 -0.4832 -0.1013  0.1554
  145MOL   C15343641   7.137   0.253   2.273  0.4737  0.8865 -0.0096
  145MOL   C15443642   7.188   0.174   2.150 -0.6921  0.2434  0.4021
  145MOL   C15543643   7.288   0.223   2.063  0.1528 -0.2651 -0.0561
  145MOL   C15643644   7.332   0.145   1.952  0.3383 -0.0606  0.3030
  145MOL   C15743645   7.275   0.022   1.941 -0.4546  0.5004 -0.1693
  145MOL   C15843646   7.194   8.126   2.040  0.1522 -0.1376 -0.2707
  145MOL   N15943647   7.143   0.050   2.137 -0.5434 -0.5162  0.8496
  145MOL   H16043648   7.213   0.130   2.436 -0.2352 -0.5791 -0.6586
  145MOL   H16143649   7.337   0.222   2.346 -0.7750  1.7715 -0.6977
  145MOL   H16243650   7.151   0.355   2.237  1.7029  0.3693 -1.0246
  145MOL   H16343651   7.326   0.324   2.069  0.7019 -0.5747  2.0035
  145MOL   H16443652   7.406   0.169   1.877  1.2399  0.8422  1.4646
  145MOL   H16543653   7.304   8.101   1.867 -0.2750  0.9775 -0.5736
  145MOL   H16643654   7.174   8.020   2.037  1.7987 -0.4481 -1.0673
  145MOL   C16743655   6.990   0.216   2.298  0.1525 -0.0961  0.7112
  145MOL   C16843656   6.902   0.312   2.373  0.4546  0.4333 -0.1789
  145MOL   C16943657   6.880   0.445   2.298  0.1933  0.0005  0.2211
  145MOL   C17043658   6.875   0.458   2.157 -0.0216  0.3370 -0.5579
  145MOL   C17143659   6.866   0.587   2.101  0.0943 -0.0432  0.3821
  145MOL   C17243660   6.872   0.697   2.185 -0.1914 -0.0154  1.2500
  145MOL   C17343661   6.896   0.677   2.317  0.1887 -0.0290 -0.6150
  145MOL   N17443662   6.895   0.554   2.372 -0.2151 -0.2142  0.2829
  145MOL   H17543663   6.994   0.121   2.350 -2.3722 -0.5363  0.1615
  145MOL   H17643664   6.936   0.189   2.207 -0.1117  0.9190  0.5601
  145MOL   H17743665   6.949   0.330   2.469  1.5057  1.0901 -0.8057
  145MOL   H17843666   6.874   0.371   2.092  2.8096  0.8718 -1.3923
  145MOL   H17943667   6.859   0.595   1.994 -1.4185  0.2384  0.4990
  145MOL   H18043668   6.876   0.795   2.138 -2.4322 -0.4345  0.0711
  145MOL   H18143669   6.911   0.751   2.394 -1.6276 -1.1440  0.8576
  145MOL   C18243670   6.769   0.251   2.402 -0.4631  0.4990  0.7018
  145MOL   C18343671   6.671   0.321   2.495 -0.4438 -0.4536  0.5274
  145MOL   C18443672   6.530   0.343   2.427 -0.2162  0.2832  0.4646
  145MOL   C18543673   6.517   0.442   2.334  0.0575 -0.6175 -0.6481
  145MOL   C18643674   6.398   0.464   2.259 -0.6696  0.5001  0.5759
  145MOL   C18743675   6.290   0.380   2.282 -0.7347  0.3576 -0.4461
  145MOL   C18843676   6.313   0.270   2.376  0.1118  0.9598  0.2828
  145MOL   N18943677   6.432   0.250   2.437  0.1499  0.0217 -0.0196
  145MOL   H19043678   6.781   0.156   2.455 -1.0645 -1.1139 -2.0059
  145MOL   H19143679   6.714   0.239   2.309 -0.5485  0.3612  0.7704
  145MOL   H19243680   6.710   0.419   2.522 -0.3593 -0.9397  2.1955
  145MOL   H19343681   6.610   0.494   2.316 -1.3619  0.6537 -5.0133
  145MOL   H19443682   6.406   0.536   2.179 -0.3655 -0.2305 -0.0527
  145MOL   H19543683   6.190   0.384   2.240 -1.3740  0.7139  1.0546
  145MOL   H19643684   6.245   0.186   2.382  0.4835  0.7559  1.9095
  145MOL   C19743685   6.659   0.250   2.639 -0.1892 -0.0138 -0.2309
  145MOL   C19843686   6.565   0.311   2.741  0.4548  0.2130 -1.0939
  145MOL   C19943687   6.567   0.224   2.869  0.0622 -0.2496  0.2407
  145MOL   C20043688   6.452   0.157   2.905  0.4095 -0.3206  0.2791
  145MOL   C20143689   6.453   0.075   3.022 -0.6200 -0.5136  0.6116
  145MOL   C20243690   6.581   0.059   3.088 -0.1099 -0.0625  0.7631
  145MOL   C20343691   6.688   0.138   3.039  0.5376 -0.4567  0.5004
  145MOL   N20443692   6.683   0.217   2.937  0.3841 -0.0640 -0.0057
  145MOL   H20543693   6.760   0.252   2.682 -0.1365  0.0860 -0.3547
  145MOL   H20643694   6.629   0.147   2.622 -0.4646  0.0204  0.0519
  145MOL   H20743695   6.467   0.303   2.695 -0.2583  3.0482 -0.1568
  145MOL   H20843696   6.365   0.164   2.841  0.2480 -1.7612  0.3262
  145MOL   H20943697   6.358   0.033   3.050 -1.4282 -0.2906 -1.7079
  145MOL   H21043698   6.585   0.005   3.181  1.1470 -1.0644  0.1345
  145MOL   H21143699   6.786   0.125   3.083  0.9315  1.1718  0.1165
  145MOL   C21243700   6.602   0.460   2.769  0.0002 -1.4587  0.4925
  145MOL   C21343701   6.552   0.535   2.889 -0.3079  0.7478 -0.3538
  145MOL   C21443702   6.600   0.682   2.889 -0.5858  0.3371  0.5615
  145MOL   C21543703   6.658   0.741   3.001  0.6988 -0.1486 -0.0798
  145MOL   C21643704   6.682   0.879   3.007  0.1178 -0.5777  0.3228
  145MOL   C21743705   6.636   0.962   2.905 -0.0722 -0.2313  0.1279
  145MOL   C21843706   6.574   0.893   2.794 -0.3385 -0.5440 -0.6067
  145MOL   N21943707   6.551   0.760   2.786 -0.3582  0.0553 -0.2037
  145MOL   H22043708   6.567   0.513   2.680 -1.9466 -1.4269  1.2641
  145MOL   H22143709   6.710   0.467   2.784  0.7426 -2.6869 -3.5097
  145MOL   H22243710   6.596   0.481   2.973  0.9978 -0.5603 -1.8285
  145MOL   H22343711   6.684   0.677   3.085 -4.3954 -1.1161  0.9629
  145MOL   H22443712   6.732   0.920   3.093  2.7247 -0.4325 -1.2216
  145MOL   H22543713   6.657   1.067   2.895 -1.5858 -0.0789 -1.7830
  145MOL   H22643714   6.539   0.949   2.708 -0.5717 -2.7114 -1.9669
  145MOL   C22743715   6.404   0.512   2.919 -0.6290 -0.4941  0.2305
  145MOL   C22843716   6.353   0.587   3.056 -0.3404  0.1021 -0.1840
  145MOL   C22943717   6.200   0.621   3.044  0.3547 -0.0819  0.7154
  145MOL   C23043718   6.156   0.755   3.037 -0.0657  0.0447  1.2044
  145MOL   C23143719   6.018   0.779   3.019 -0.7553 -0.2344 -0.1162
  145MOL   C23243720   5.924   0.675   3.024  0.0286  0.1177  0.1528
  145MOL   C23343721   5.971   0.543   3.035 -0.6669 -1.1025  0.5455
  145MOL   N23443722   6.109   0.520   3.032 -0.4142  0.5063  0.6416
  145MOL   H23543723   6.371   0.408   2.924  1.3292 -1.1138  0.5687
  145MOL   H23643724   6.349   0.552   2.834 -0.9954  3.5311  2.2071
  145MOL   H23743725   6.408   0.680   3.067  1.5613 -0.8693 -1.1989
  145MOL   H23843726   6.232   0.831   3.037  0.4757 -0.4268 -2.6289
  145MOL   H23943727   5.993   0.880   2.990 -0.2164 -0.3348 -0.9441
  145MOL   H24043728   5.819   0.699   3.015  0.2424  0.6663 -1.0487
  145MOL   H24143729   5.905   0.458   3.042 -1.7185 -0.3658 -0.2259
  145MOL   C24243730   6.389   0.503   3.186 -0.6851 -0.4703  0.1663
  145MOL   C24343731   6.423   0.589   3.306  0.2684 -0.5074 -0.6835
  145MOL   C24443732   6.312   0.694   3.352  0.2666 -0.3276  0.4403
  145MOL   C24543733   6.178   0.654   3.385  0.3199 -0.2740 -0.4139
  145MOL   C24643734   6.089   0.765   3.404 -0.2482 -0.5314  0.3107
  145MOL   C24743735   6.134   0.895   3.396 -0.0809 -0.3616 -0.0190
  145MOL   C24843736   6.266   0.920   3.384 -0.2677 -0.6075 -0.0461
  145MOL   N24943737   6.353   0.826   3.354  0.2884  0.5812  0.2756
  145MOL   H25043738   6.474   0.440   3.160 -0.9178 -0.7632  0.1260
  145MOL   H25143739   6.315   0.424   3.195 -0.5868 -0.4728  1.0032
  145MOL   H25243740   6.512   0.641   3.272 -0.3312  1.5564  0.7928
  145MOL   H25343741   6.153   0.549   3.386 -1.1524  0.0709 -0.1113
  145MOL   H25443742   5.985   0.745   3.423 -0.7826  2.4263  0.6275
  145MOL   H25543743   6.068   0.978   3.416 -1.0703 -0.8038 -1.3857
  145MOL   H25643744   6.311   1.018   3.376 -1.9650  0.1786 -0.4125
  145MOL   C25743745   6.473   0.505   3.425 -0.2606 -0.3433  0.2899
  145MOL   C25843746   6.595   0.411   3.406  0.3205 -0.2796 -0.3240
  145MOL   C25943747   6.721   0.481   3.343  0.6161  0.5415  0.1720
  145MOL   C26043748   6.757   0.456   3.206  0.1255  0.0243 -0.7327
  145MOL   C26143749   6.873   0.526   3.161  0.2785 -0.3804  0.5617
  145MOL   C26243750   6.932   0.618   3.242 -0.0666  0.6009  0.3826
  145MOL   C26343751   6.893   0.642   3.371  0.0527 -0.0932 -0.1286
  145MOL   N26443752   6.790   0.570   3.423 -0.5024 -0.4218 -0.3395
  145MOL   H26543753   6.390   0.444   3.460 -0.3949 -0.2283  0.1727
  145MOL   H26643754   6.512   0.579   3.495  2.6343 -1.8067  0.3050
  145MOL   H26743755   6.566   0.333   3.336  0.4849 -0.8628  0.2479
  145MOL   H26843756   6.707   0.386   3.140 -0.2140 -1.7266  1.3179
  145MOL   H26943757   6.897   0.517   3.056  0.5702 -1.3753  0.7106
  145MOL   H27043758   7.017   0.672   3.204  0.2171 -1.3624 -1.8592
  145MOL   H27143759   6.933   0.720   3.435 -3.0314 -0.6892  2.7030
  145MOL   C27243760   6.621   0.347   3.537 -0.0765  0.1097 -0.2156
  145MOL   C27343761   6.733   0.230   3.538  0.7346 -0.8340  0.2986
  145MOL   C27443762   6.811   0.219   3.663  0.6443 -0.5534  0.1079
  145MOL   C27543763   6.942   0.260   3.680  0.0888  0.1186 -0.1182
  145MOL   C27643764   7.011   0.251   3.802 -0.7949  0.4351  1.2158
  145MOL   C27743765   6.932   0.208   3.915 -0.2830  0.1387  0.4091
  145MOL   C27843766   6.799   0.156   3.896 -0.4906 -0.2648  0.9376
  145MOL   N27943767   6.746   0.162   3.768  0.0281  0.7480  0.2305
  145MOL   H28043768   6.530   0.300   3.575  0.6892 -2.1870 -1.0940
  145MOL   H28143769   6.651   0.420   3.611  0.4671 -1.4064  1.1045
  145MOL   H28243770   6.806   0.265   3.465  1.1518  0.4373  1.3081
  145MOL   H28343771   7.000   0.294   3.595 -1.7391  1.4163 -0.8898
  145MOL   H28443772   7.113   0.284   3.815 -0.8297  0.5048  1.3117
  145MOL   H28543773   6.964   0.210   4.018  1.4794  1.5179 -0.1441
  145MOL   H28643774   6.738   0.129   3.981 -4.2177  0.1439 -1.4906
  145MOL   C28743775   6.685   0.096   3.479 -0.3616 -0.4394 -0.1878
  145MOL   C28843776   6.575   0.013   3.552  0.0101  0.2105  0.2104
  145MOL   C28943777   6.483   8.084   3.459 -0.2994  0.2823 -0.3202
  145MOL   C29043778   6.523   7.961   3.414 -0.0268  0.2552  0.3902
  145MOL   C29143779   6.429   7.894   3.331  0.3937  0.7394  0.2700
  145MOL   C29243780   6.306   7.957   3.298 -0.7641 -0.3365  0.3852
  145MOL   C29343781   6.281   8.088   3.349  0.6988 -0.2073 -0.2100
  145MOL   N29443782   6.370   8.149   3.429 -0.2138  0.6824 -0.2118
  145MOL   H29543783   6.766   0.033   3.444  1.1690  1.9594 -1.1118
  145MOL   H29643784   6.642   0.129   3.384  1.7362  0.8615 -0.7148
  145MOL   H29743785   6.508   0.082   3.602  1.0731  1.4376 -0.0151
  145MOL   H29843786   6.613   7.921   3.458 -0.3163 -1.7513 -0.7750
  145MOL   H29943787   6.457   7.799   3.286  1.0562  0.6874  0.7795
  145MOL   H30043788   6.236   7.915   3.227  1.3241 -2.3572 -0.5637
  145MOL   H30143789   6.191   8.144   3.328  1.0512  0.3936 -0.1439
  145MOL   H30243790   6.632   8.100   3.619 -0.5566 -0.4261  0.0854
  146MOL     C143791   1.591   7.296   0.132 -0.2078  0.4954 -0.6220
  146MOL     C243792   1.730   7.301   0.066  0.2608 -0.1714  0.8459
  146MOL     C343793   1.833   7.295   0.174  0.0198  0.8050  0.2022
  146MOL     C443794   1.913   7.408   0.204  0.2988  0.0782 -0.3298
  146MOL     C543795   2.026   7.387   0.282  0.2283  0.7162 -0.0235
  146MOL     C643796   2.055   7.254   0.328 -0.4641  0.2619 -1.1959
  146MOL     C743797   1.950   7.162   0.312 -0.2862  0.2066  0.2501
  146MOL     N843798   1.845   7.177   0.231  0.2635  0.0852  0.1875
  146MOL     H943799   1.509   7.299   0.060 -0.3217 -0.4589 -0.5308
  146MOL    H1043800   1.578   7.204   0.188  1.4136  0.2904 -0.5707
  146MOL    H1143801   1.742   7.398   0.017  0.1611  0.0993  1.3521
  146MOL    H1243802   1.892   7.504   0.159 -0.5369  0.2206  0.3553
  146MOL    H1343803   2.103   7.458   0.312  0.3451 -0.3438  2.3331
  146MOL    H1443804   2.145   7.239   0.385 -1.0753  1.7988  0.2141
  146MOL    H1543805   1.965   7.058   0.337 -1.3212 -0.4406 -1.6956
  146MOL    H1643806   1.578   7.382   0.198 -0.4085  1.6234 -2.0839
  146MOL    C1743807   1.749   7.198   8.095  0.1551  0.3847  0.4015
  146MOL    C1843808   1.897   7.178   8.039 -0.2906 -0.2052  0.0988
  146MOL    C1943809   1.898   7.056   7.955  0.4275 -0.2673  0.6184
  146MOL    C2043810   1.956   6.935   7.998 -0.0166 -0.5714 -0.3931
  146MOL    C2143811   1.939   6.822   7.915 -0.4003 -0.1877 -0.0425
  146MOL    C2243812   1.863   6.820   7.796 -0.1347 -0.1887 -0.2327
  146MOL    C2343813   1.807   6.945   7.772  0.2441 -0.1800 -0.6976
  146MOL    N2443814   1.820   7.054   7.851  0.0354  0.0801  0.0841
  146MOL    H2543815   1.676   7.226   8.019  2.0032  3.3556 -0.3448
  146MOL    H2643816   1.707   7.104   8.130 -0.6281  0.3985 -0.4828
  146MOL    H2743817   1.968   7.162   8.120  1.2881 -0.6471 -1.3402
  146MOL    H2843818   1.999   6.937   8.097 -2.1956  1.5029  0.5579
  146MOL    H2943819   1.990   6.732   7.946 -1.0610 -0.0864  1.3731
  146MOL    H3043820   1.852   6.730   7.737 -4.2694 -0.1573  0.3632
  146MOL    H3143821   1.728   6.951   7.698  0.9572  1.0566 -1.3688
  146MOL    C3243822   1.963   7.303   7.966  0.1472  0.2218  0.0396
  146MOL    C3343823   2.099   7.277   7.900  0.5607  0.1236  0.4396
  146MOL    C3443824   2.096   7.266   7.749 -0.5244  0.0049  0.2753
  146MOL    C3543825   2.113   7.141   7.695 -0.8825  0.1998 -0.0967
  146MOL    C3643826   2.102   7.120   7.558 -0.0470 -0.4160 -0.0678
  146MOL    C3743827   2.068   7.228   7.479  0.0759 -0.3013  0.6475
  146MOL    C3843828   2.060   7.354   7.539  0.8429  0.1933  0.0913
  146MOL    N3943829   2.077   7.376   7.670  0.1027 -0.4024 -0.2141
  146MOL    H4043830   1.969   7.387   8.036  0.5547  0.7873 -0.6723
  146MOL    H4143831   1.896   7.345   7.892 -0.2260 -0.8227 -0.2245
  146MOL    H4243832   2.121   7.174   7.926  1.6446  0.8344  2.4778
  146MOL    H4343833   2.112   7.055   7.761  0.6971 -0.3529 -0.7720
  146MOL    H4443834   2.111   7.025   7.507  0.9621 -0.0878 -0.5299
  146MOL    H4543835   2.049   7.219   7.373 -1.0707 -1.1249  0.9077
  146MOL    H4643836   2.036   7.443   7.484  1.5141 -0.1297 -0.7426
  146MOL    C4743837   2.225   7.356   7.947  0.6369 -0.9485 -0.0702
  146MOL    C4843838   2.282   7.304   8.084  0.3031 -0.3165  0.6875
  146MOL    C4943839   2.323   7.160   8.094 -0.1515 -0.6536  0.0714
  146MOL    C5043840   2.261   7.057   0.023 -0.1793 -0.3589 -0.2517
  146MOL    C5143841   2.311   6.928   0.021 -0.0098  0.7145  0.5240
  146MOL    C5243842   2.422   6.900   8.092  1.0083  0.3254  0.2648
  146MOL    C5343843   2.477   7.003   8.006 -0.4783  0.8471 -0.7974
  146MOL    N5443844   2.426   7.127   8.013 -0.8020  0.0355  0.2336
  146MOL    H5543845   2.216   7.464   7.945  3.8696 -0.6235 -0.3956
  146MOL    H5643846   2.300   7.336   7.870 -0.4941  0.1903 -1.4827
  146MOL    H5743847   2.201   7.315   0.003 -0.8044  0.7915 -0.7121
  146MOL    H5843848   2.185   7.089   0.093 -0.6239 -0.2688 -0.7714
  146MOL    H5943849   2.291   6.848   0.091 -0.2914 -1.1183 -1.5830
  146MOL    H6043850   2.447   6.795   8.087  0.0159  0.0514  0.9114
  146MOL    H6143851   2.566   6.986   7.946  0.3005  0.6127  0.4026
  146MOL    C6243852   2.394   7.399   8.142 -0.1799  0.0999 -0.2390
  146MOL    C6343853   2.408   7.415   0.143  0.7969  0.4946 -0.0425
  146MOL    C6443854   2.464   7.291   0.207 -0.1991  0.2089  0.2680
  146MOL    C6543855   2.578   7.232   0.150 -1.2832  0.3632 -0.0473
  146MOL    C6643856   2.616   7.109   0.199 -1.0994 -0.1548 -0.1328
  146MOL    C6743857   2.554   7.057   0.312  0.3962  0.2160  0.0899
  146MOL    C6843858   2.437   7.125   0.354  0.2304  0.1600 -0.2629
  146MOL    N6943859   2.389   7.241   0.308  0.3052 -0.5409 -0.0071
  146MOL    H7043860   2.378   7.495   8.095 -0.2379 -1.6185 -3.8958
  146MOL    H7143861   2.491   7.375   8.099  0.2115  0.5239  0.4114
  146MOL    H7243862   2.307   7.423   0.182  0.5680  2.8253 -0.9898
  146MOL    H7343863   2.629   7.268   0.062  0.0921 -2.6869 -0.5426
  146MOL    H7443864   2.694   7.055   0.148 -1.3307 -0.5796 -0.0308
  146MOL    H7543865   2.588   6.962   0.350  0.2350 -0.2404 -0.8876
  146MOL    H7643866   2.376   7.080   0.431  0.1953 -0.7391 -0.8061
  146MOL    C7743867   2.486   7.541   0.192 -0.3712 -0.0812 -0.7992
  146MOL    C7843868   2.432   7.675   0.138 -0.3752  0.0055  0.0924
  146MOL    C7943869   2.300   7.702   0.194 -0.2035 -0.6794 -0.2343
  146MOL    C8043870   2.192   7.704   0.111 -0.2372  0.1444 -0.9022
  146MOL    C8143871   2.062   7.724   0.165 -1.3191 -0.1278 -0.3230
  146MOL    C8243872   2.049   7.740   0.305 -0.9969 -0.6627 -0.0755
  146MOL    C8343873   2.164   7.733   0.387  0.5486  0.3827  0.6296
  146MOL    N8443874   2.289   7.720   0.329  0.1385  0.2483  0.4493
  146MOL    H8543875   2.588   7.533   0.154  0.4287  0.0434  1.2565
  146MOL    H8643876   2.501   7.546   0.299 -0.6165  1.4702 -0.8368
  146MOL    H8743877   2.428   7.674   0.029  3.7959  2.0376 -0.1584
  146MOL    H8843878   2.209   7.690   0.005  1.3781  3.5331 -1.1580
  146MOL    H8943879   1.974   7.725   0.102  0.4510 -0.1543 -2.8400
  146MOL    H9043880   1.950   7.741   0.348 -0.2154  0.2228  1.7499
  146MOL    H9143881   2.160   7.749   0.494 -1.1883 -0.2126  0.6662
  146MOL    C9243882   2.534   7.799   0.172 -0.5896  0.2499 -0.5819
  146MOL    C9343883   2.678   7.800   0.124  0.8781 -0.5221  0.0740
  146MOL    C9443884   2.690   7.784   8.131  0.3002  0.8109 -0.2612
  146MOL    C9543885   2.603   7.858   8.045 -0.0248  0.7597  0.3919
  146MOL    C9643886   2.600   7.828   7.909  0.8444  0.3581 -1.1680
  146MOL    C9743887   2.683   7.726   7.867  0.1934 -0.7039 -0.5981
  146MOL    C9843888   2.776   7.676   7.960  0.2135 -0.6065  0.7396
  146MOL    N9943889   2.777   7.696   8.093  0.1764 -0.6961  0.8273
  146MOL   H10043890   2.537   7.792   0.281  1.0872  0.4229 -0.6117
  146MOL   H10143891   2.495   7.897   0.146  3.6982  2.5334  1.0772
  146MOL   H10243892   2.730   7.719   0.175  0.4502  0.5312  2.2364
  146MOL   H10343893   2.535   7.938   8.071  0.7225  1.5167  0.0314
  146MOL   H10443894   2.525   7.863   7.840 -0.1531 -0.3555 -0.4486
  146MOL   H10543895   2.695   7.716   7.760  1.0344  2.7670 -0.9044
  146MOL   H10643896   2.857   7.610   7.932  0.0671 -0.4757  0.0088
  146MOL   C10743897   2.740   7.933   0.177 -0.0799 -0.0881  0.0721
  146MOL   C10843898   2.895   7.958   0.170  0.2428  0.1207  0.2390
  146MOL   C10943899   2.974   7.858   0.258  0.2772 -0.3113 -0.4917
  146MOL   C11043900   3.002   7.727   0.213  0.1141 -0.5127  0.0319
  146MOL   C11143901   3.068   7.633   0.294  0.3676  0.8955  0.4485
  146MOL   C11243902   3.106   7.670   0.421  0.1811  0.0913  0.5711
  146MOL   C11343903   3.072   7.800   0.468 -0.1316 -0.0398  0.8032
  146MOL   N11443904   3.011   7.897   0.384  0.2059  0.5060 -0.0407
  146MOL   H11543905   2.700   7.942   0.278 -0.4277  0.0983 -0.0784
  146MOL   H11643906   2.691   8.016   0.125 -1.9952 -0.2577  1.5516
  146MOL   H11743907   2.894   8.050   0.228 -2.0637  0.8523 -0.8838
  146MOL   H11843908   2.963   7.693   0.118 -1.0935  0.2261  0.2454
  146MOL   H11943909   3.084   7.532   0.261  0.7609  0.4939  1.8822
  146MOL   H12043910   3.152   7.601   0.490  1.9927 -1.2722 -1.8713
  146MOL   H12143911   3.085   7.826   0.572 -0.7360  1.2433  0.5661
  146MOL   C12243912   2.958   7.985   0.035  0.1593 -0.3498 -0.6559
  146MOL   C12343913   3.103   8.030   0.032  0.8492  0.2872 -0.9320
  146MOL   C12443914   3.124   0.016   0.091  0.1259  0.5323  0.8334
  146MOL   C12543915   3.149   0.028   0.225 -0.5331 -0.5958  0.7114
  146MOL   C12643916   3.177   0.155   0.278 -0.3127  0.2267  0.6852
  146MOL   C12743917   3.179   0.264   0.194  0.8688  0.2258 -0.1312
  146MOL   C12843918   3.150   0.244   0.057 -0.8371 -0.2561 -0.5318
  146MOL   N12943919   3.126   0.121   0.011 -0.3055 -0.5569  0.4667
  146MOL   H13043920   2.892   8.061   8.146 -0.0511 -0.8083 -1.1708
  146MOL   H13143921   2.947   7.891   8.132 -0.7881 -0.3096 -0.5369
  146MOL   H13243922   3.116   8.042   8.076  0.8993 -0.9238 -1.0662
  146MOL   H13343923   3.156   8.092   0.289  3.1710 -2.1951 -1.6956
  146MOL   H13443924   3.198   0.170   0.383 -0.0176  2.0304  0.3821
  146MOL   H13543925   3.212   0.363   0.222  0.9054 -0.2352  1.4558
  146MOL   H13643926   3.148   0.332   8.146  0.3789  0.1926  0.0555
  146MOL   C13743927   3.220   7.940   0.066 -0.4037  0.1831 -0.3087
  146MOL   C13843928   3.260   7.808   8.133 -0.2765 -0.0474  0.3278
  146MOL   C13943929   3.277   7.845   7.987 -0.0757 -0.1381 -0.2887
  146MOL   C14043930   3.200   7.766   7.898  0.0701  0.2500  0.1994
  146MOL   C14143931   3.193   7.805   7.769  0.7535 -0.0826 -0.8027
  146MOL   C14243932   3.284   7.909   7.727 -0.1958  0.0175 -0.6449
  146MOL   C14343933   3.367   7.970   7.822 -0.0964 -0.0436  0.3336
  146MOL   N14443934   3.355   7.949   7.956  0.7057  0.3283 -0.2672
  146MOL   H14543935   3.218   7.906   0.169 -1.3795  0.7790 -0.1293
  146MOL   H14643936   3.309   8.003   0.069  0.6383 -1.3122  0.9433
  146MOL   H14743937   3.173   7.742   8.138  0.7386 -1.4260  0.1558
  146MOL   H14843938   3.141   7.690   7.946 -0.4652  0.6696  0.2082
  146MOL   H14943939   3.134   7.732   7.714  1.1682 -0.2220 -1.0674
  146MOL   H15043940   3.299   7.943   7.626 -0.2089  3.0798  0.3272
  146MOL   H15143941   3.427   8.055   7.792 -1.0363 -0.3464 -2.5684
  146MOL   C15243942   3.379   7.729   0.037 -0.3843  0.8463  0.3280
  146MOL   C15343943   3.512   7.811   0.071  0.3780 -0.5254 -0.3031
  146MOL   C15443944   3.516   7.880   0.205 -0.1322  0.1568  0.1428
  146MOL   C15543945   3.516   8.020   0.224  0.6221 -0.0513 -0.5399
  146MOL   C15643946   3.530   8.064   0.360 -0.2603 -0.3997  0.8075
  146MOL   C15743947   3.532   7.974   0.470 -1.5043  0.1001 -0.8751
  146MOL   C15843948   3.528   7.836   0.432 -0.1986  0.0126 -0.4728
  146MOL   N15943949   3.518   7.788   0.305 -0.3907  0.1300 -0.0876
  146MOL   H16043950   3.392   7.644   8.122  0.5290  0.7106  0.6747
  146MOL   H16143951   3.344   7.678   0.127  0.1803  0.0199  0.0785
  146MOL   H16243952   3.520   7.877   8.136 -1.4085  0.1165 -0.0138
  146MOL   H16343953   3.493   8.086   0.143  1.2387  0.5669 -0.2135
  146MOL   H16443954   3.533   0.017   0.387 -0.1646 -0.5636  1.4397
  146MOL   H16543955   3.539   8.002   0.574  2.2576 -1.4439 -0.6560
  146MOL   H16643956   3.532   7.756   0.505  1.9825 -0.5085 -1.1291
  146MOL   C16743957   3.641   7.725   0.056  0.3348 -0.7940  0.3137
  146MOL   C16843958   3.764   7.822   0.060 -0.7297 -0.4194  0.7778
  146MOL   C16943959   3.868   7.777   0.162  0.4216 -0.1608  0.5629
  146MOL   C17043960   3.874   7.833   0.287  0.3396  0.2996 -0.4331
  146MOL   C17143961   3.978   7.791   0.378 -0.7832 -0.3979  0.3739
  146MOL   C17243962   4.071   7.697   0.328  0.9798  0.6375 -0.7078
  146MOL   C17343963   4.056   7.643   0.199 -0.0823 -0.0269  0.0793
  146MOL   N17443964   3.961   7.695   0.112  0.2517  0.7681 -0.5374
  146MOL   H17543965   3.637   7.663   8.118  0.5855 -1.5561  0.8213
  146MOL   H17643966   3.642   7.647   0.132  0.9611 -0.0612  1.0451
  146MOL   H17743967   3.736   7.915   0.110  3.1237  0.6276  1.1127
  146MOL   H17843968   3.809   7.916   0.311  0.4948  0.3972 -0.3458
  146MOL   H17943969   4.008   7.835   0.472 -2.2224 -0.6709  0.9719
  146MOL   H18043970   4.160   7.672   0.384  1.1114  0.6545 -0.9114
  146MOL   H18143971   4.121   7.569   0.155  1.1770  1.9803 -1.5067
  146MOL   C18243972   3.817   7.865   8.069  0.1941 -0.2645 -0.4240
  146MOL   C18343973   3.867   8.010   8.050 -0.1821 -0.3502 -0.1164
  146MOL   C18443974   3.971   8.031   7.936 -0.0305 -0.3636  0.4935
  146MOL   C18543975   3.940   7.986   7.803 -0.2319  0.2092  0.1625
  146MOL   C18643976   4.038   7.994   7.702  0.6869 -0.1749 -0.5855
  146MOL   C18743977   4.156   8.065   7.732  0.4039  0.0683 -0.2144
  146MOL   C18843978   4.178   8.110   7.858 -0.3687  0.1395  0.4738
  146MOL   N18943979   4.085   8.098   7.957  0.2607  0.0755 -0.0025
  146MOL   H19043980   3.746   7.839   7.991 -0.2846  1.4882 -0.5893
  146MOL   H19143981   3.895   7.794   8.041  0.7133 -1.4971  3.8078
  146MOL   H19243982   3.927   8.017   8.140  1.4771 -0.2898 -1.2083
  146MOL   H19343983   3.844   7.938   7.792 -0.5100  1.2076 -2.0440
  146MOL   H19443984   4.011   7.967   7.601 -2.1478  1.5557 -0.3571
  146MOL   H19543985   4.233   8.090   7.661 -0.8133 -0.8737 -1.9379
  146MOL   H19643986   4.270   0.010   7.878  1.1080 -2.1544 -0.1931
  146MOL   C19743987   3.755   8.120   8.047 -0.2509 -0.2433  0.8791
  146MOL   C19843988   3.804   0.111   8.085  0.1007 -0.5364  0.0501
  146MOL   C19943989   3.691   0.206   8.055  0.2954  0.1306 -0.3434
  146MOL   C20043990   3.720   0.320   7.972  0.4098 -0.6902  0.7789
  146MOL   C20143991   3.612   0.415   7.958  0.2608  0.1701 -0.4900
  146MOL   C20243992   3.500   0.404   8.036 -0.2359 -0.3129 -0.1183
  146MOL   C20343993   3.490   0.292   8.125  0.0567 -0.9025  0.1842
  146MOL   N20443994   3.582   0.199   8.133 -0.4369  0.5133 -0.1714
  146MOL   H20543995   3.672   8.099   8.115  0.0822  1.7072  1.9189
  146MOL   H20643996   3.717   8.123   7.945  1.0674  0.5017  0.4007
  146MOL   H20743997   3.890   0.140   8.025  0.0924 -0.7286 -0.0539
  146MOL   H20843998   3.813   0.330   7.918 -0.5621 -1.6015 -1.1096
  146MOL   H20943999   3.617   0.490   7.880 -0.5134  2.1072  1.2813
  146MOL   H21044000   3.415   0.470   8.025 -0.8316 -1.1640 -0.7307
  146MOL   H21144001   3.410   0.287   0.044 -0.3512 -0.8571 -0.2724
  146MOL   C21244002   3.847   0.130   0.080  0.0397 -0.4221 -0.1823
  146MOL   C21344003   3.881   0.268   0.135 -0.1160 -0.8794 -0.4666
  146MOL   C21444004   3.775   0.341   0.221  0.4899  0.4744  0.1266
  146MOL   C21544005   3.707   0.457   0.172 -0.2159 -0.0075 -0.4945
  146MOL   C21644006   3.602   0.512   0.252  0.9663  0.1342  0.1997
  146MOL   C21744007   3.561   0.445   0.370 -0.3702  0.0095  0.8477
  146MOL   C21844008   3.636   0.330   0.405  0.5636  0.0401  0.4269
  146MOL   N21944009   3.744   0.285   0.338  0.6179 -0.7113 -0.1500
  146MOL   H22044010   3.926   0.056   0.098 -0.9518 -0.8743  2.4229
  146MOL   H22144011   3.764   0.095   0.141 -0.9183  4.3112  1.4042
  146MOL   H22244012   3.898   0.333   0.050 -0.8999  1.5157  1.1443
  146MOL   H22344013   3.730   0.503   0.077 -1.0107  2.8117  0.6620
  146MOL   H22444014   3.558   0.604   0.217 -1.7046 -1.1415  0.0875
  146MOL   H22544015   3.469   0.474   0.419 -0.5692  1.4698 -0.3381
  146MOL   H22644016   3.606   0.284   0.497 -0.8665 -1.4008 -0.7315
  146MOL   C22744017   4.013   0.267   0.211  0.2173 -0.5038 -0.0769
  146MOL   C22844018   4.139   0.231   0.135 -0.3316  0.3380 -0.0329
  146MOL   C22944019   4.148   0.320   0.007 -0.0368  0.2108  0.5200
  146MOL   C23044020   4.175   0.264   8.031  0.8893  0.5761  0.3471
  146MOL   C23144021   4.186   0.346   7.920  0.0052  0.3392 -0.5880
  146MOL   C23244022   4.179   0.482   7.942 -0.5310  0.0511  0.1613
  146MOL   C23344023   4.156   0.531   8.071  0.4386 -0.0459 -0.0237
  146MOL   N23444024   4.141   0.453   0.026  0.1825  0.5492 -0.5009
  146MOL   H23544025   4.007   0.208   0.303 -0.5651  0.9320  0.8145
  146MOL   H23644026   4.021   0.361   0.267  0.6809  0.2127 -1.3278
  146MOL   H23744027   4.126   0.131   0.093  1.0072  0.9701 -2.0257
  146MOL   H23844028   4.189   0.157   8.029 -0.5846  0.3440  1.6757
  146MOL   H23944029   4.212   0.294   7.829 -0.4864 -0.9481 -0.0079
  146MOL   H24044030   4.193   0.549   7.859  0.8815  0.9167  1.0648
  146MOL   H24144031   4.150   0.639   8.081  1.3961 -0.1919  2.2776
  146MOL   C24244032   4.280   0.225   0.213  0.1767 -0.0285  0.3937
  146MOL   C24344033   4.291   0.083   0.282  0.0643 -0.3580 -0.1782
  146MOL   C24444034   4.324   8.128   0.171 -0.0769  0.3685 -0.2646
  146MOL   C24544035   4.228   8.031   0.136  0.3333 -0.2382 -0.6270
  146MOL   C24644036   4.263   7.952   0.023  0.4744 -0.7036 -0.1312
  146MOL   C24744037   4.381   7.971   8.101  0.1827 -0.3268 -0.0933
  146MOL   C24844038   4.468   8.068   0.001 -0.5250  0.1622 -0.0578
  146MOL   N24944039   4.433   8.150   0.102  0.1866 -0.0198 -0.4508
  146MOL   H25044040   4.282   0.304   0.288 -0.7735  0.8488 -0.5014
  146MOL   H25144041   4.362   0.243   0.144 -1.8300  2.9954 -1.3231
  146MOL   H25244042   4.199   0.052   0.331  2.1135 -0.1240  4.0585
  146MOL   H25344043   4.131   8.030   0.183  0.3562  0.2955 -0.5629
  146MOL   H25444044   4.185   7.893   8.130  0.1333 -0.1933 -0.2251
  146MOL   H25544045   4.415   7.904   8.023 -2.8430 -2.7554  0.5822
  146MOL   H25644046   4.567   8.079   8.113 -1.6431  0.4301 -2.9266
  146MOL   C25744047   4.399   0.083   0.389 -0.1237 -0.1846 -1.0213
  146MOL   C25844048   4.352   0.165   0.516 -0.0086  0.8787  0.0177
  146MOL   C25944049   4.219   0.112   0.572 -0.5511  0.3758  0.1996
  146MOL   C26044050   4.098   0.185   0.573  0.5356 -0.0006  0.6671
  146MOL   C26144051   3.978   0.121   0.608  0.5237 -0.1999  0.3012
  146MOL   C26244052   3.980   8.135   0.645 -0.0833  0.4539  0.6762
  146MOL   C26344053   4.107   8.074   0.644  0.5157  0.3219 -0.1083
  146MOL   N26444054   4.221   8.134   0.601  0.2444  0.4103 -0.2697
  146MOL   H26544055   4.493   0.114   0.343 -0.1189 -0.1309 -0.9739
  146MOL   H26644056   4.414   8.132   0.420  1.4144  0.3071 -0.0899
  146MOL   H26744057   4.340   0.266   0.476  0.2429  1.4377  1.3472
  146MOL   H26844058   4.099   0.292   0.558 -0.4294 -0.3721 -2.3773
  146MOL   H26944059   3.882   0.170   0.608  0.2183 -0.8002  0.6441
  146MOL   H27044060   3.892   8.079   0.672 -0.5263  0.5495 -0.5471
  146MOL   H27144061   4.112   7.968   0.665  2.4907  0.5498  0.7102
  146MOL   C27244062   4.462   0.149   0.622 -0.8023 -0.1261  0.1417
  146MOL   C27344063   4.462   0.244   0.747 -0.6261  0.5644  0.9521
  146MOL   C27444064   4.431   0.385   0.692 -0.4768  0.3721 -0.4835
  146MOL   C27544065   4.311   0.450   0.717 -0.6830  1.0951 -0.1731
  146MOL   C27644066   4.292   0.583   0.666  0.7097 -0.3655 -0.8514
  146MOL   C27744067   4.391   0.642   0.591 -0.1777  0.5321  0.5081
  146MOL   C27844068   4.502   0.558   0.554 -0.2060 -0.5067 -0.6190
  146MOL   N27944069   4.522   0.437   0.607  0.3270 -0.2800  1.0814
  146MOL   H28044070   4.558   0.165   0.573 -1.2452  1.3640 -0.2799
  146MOL   H28144071   4.476   0.042   0.635  1.2517 -0.1773 -2.1624
  146MOL   H28244072   4.564   0.254   0.785  0.1320 -2.1760 -0.2030
  146MOL   H28344073   4.230   0.403   0.770 -0.6656  0.0546 -1.0469
  146MOL   H28444074   4.208   0.643   0.698  2.6823  1.0159  1.9671
  146MOL   H28544075   4.380   0.746   0.563 -1.4541  0.3991  0.4790
  146MOL   H28644076   4.588   0.601   0.504 -0.6068 -1.1158 -1.8312
  146MOL   C28744077   4.377   0.203   0.868  0.4080  0.5818  0.1017
  146MOL   C28844078   4.410   0.074   0.947  1.2411  0.4392  0.4698
  146MOL   C28944079   4.340   0.059   1.082 -0.0266 -0.0480 -0.4545
  146MOL   C29044080   4.220   8.143   1.094  0.4031  0.2633  0.1305
  146MOL   C29144081   4.163   8.138   1.221 -0.1503  0.2498  0.0693
  146MOL   C29244082   4.227   0.046   1.334  0.3362  0.1181  0.1412
  146MOL   C29344083   4.347   0.112   1.305  0.2866  0.3786  0.7725
  146MOL   N29444084   4.402   0.114   1.183 -1.2770 -0.7963  0.2787
  146MOL   H29544085   4.272   0.194   0.837  0.7828  2.3336 -1.7856
  146MOL   H29644086   4.382   0.286   0.938 -0.4451  0.3821  0.4096
  146MOL   H29744087   4.518   0.060   0.951  1.4135  1.5074 -0.0788
  146MOL   H29844088   4.174   8.088   1.013  1.5321 -0.0384 -0.3167
  146MOL   H29944089   4.074   8.080   1.240 -0.3372  0.6162  0.3287
  146MOL   H30044090   4.188   0.044   1.435 -1.2625  0.4079 -0.4644
  146MOL   H30144091   4.403   0.156   1.387  2.8603  0.6847 -1.1058
  146MOL   H30244092   4.373   8.140   0.892  1.2271 -1.1995  2.9765
  147MOL     C144093   1.300   6.827   3.864 -0.2390  0.3616  0.7980
  147MOL     C244094   1.269   6.822   4.011  0.1595 -0.1705  0.1167
  147MOL     C344095   1.123   6.850   4.041 -0.2990 -0.3137  0.0585
  147MOL     C444096   1.090   6.985   4.062 -0.0701 -0.0147  0.6556
  147MOL     C544097   0.952   7.013   4.071  0.0749 -0.1199 -0.3263
  147MOL     C644098   0.854   6.911   4.068 -0.1324 -0.0232  0.2329
  147MOL     C744099   0.896   6.781   4.049  0.2428  0.2027 -0.0781
  147MOL     N844100   1.033   6.750   4.031 -0.3108  0.2945  0.2137
  147MOL     H944101   1.305   6.930   3.828  1.2130  0.2181  0.5395
  147MOL    H1044102   1.405   6.800   3.853 -0.1656  0.9852 -0.0081
  147MOL    H1144103   1.318   6.902   4.067  1.1513 -0.0030 -0.9531
  147MOL    H1244104   1.174   7.054   4.066 -0.0416 -0.1314  2.5100
  147MOL    H1344105   0.932   7.117   4.091  0.4852 -0.3650  1.4039
  147MOL    H1444106   0.748   6.927   4.082 -0.2705 -1.9228  1.5165
  147MOL    H1544107   0.819   6.707   4.040 -0.7949  1.2321  0.2043
  147MOL    H1644108   1.238   6.756   3.810  2.2347 -1.6882  0.5657
  147MOL    C1744109   1.307   6.686   4.075  0.1654  0.2116  0.6520
  147MOL    C1844110   1.454   6.647   4.099 -0.0079 -0.4172 -0.1705
  147MOL    C1944111   1.543   6.766   4.141 -0.6129 -0.3532 -0.3589
  147MOL    C2044112   1.643   6.825   4.059  0.3616  0.7317  0.4883
  147MOL    C2144113   1.707   6.945   4.099 -0.4591 -0.1882 -0.5830
  147MOL    C2244114   1.674   6.991   4.227  0.4939 -0.3199  0.0246
  147MOL    C2344115   1.583   6.918   4.305 -0.7027 -0.6437  0.1289
  147MOL    N2444116   1.512   6.815   4.258  0.1145 -0.2612 -0.2317
  147MOL    H2544117   1.276   6.611   4.003  0.3323  0.5980  0.1716
  147MOL    H2644118   1.252   6.680   4.169 -0.3471 -0.5778  0.3061
  147MOL    H2744119   1.505   6.623   4.006  0.9857  2.6601 -0.4670
  147MOL    H2844120   1.680   6.784   3.966 -1.1482  1.4392 -0.4481
  147MOL    H2944121   1.775   6.993   4.029 -1.4600  0.1958 -1.3093
  147MOL    H3044122   1.733   7.073   4.266 -0.0510  0.5677 -0.9984
  147MOL    H3144123   1.561   6.951   4.406  1.1448  0.8193  0.0681
  147MOL    C3244124   1.468   6.538   4.205 -0.5405 -0.3917 -0.4358
  147MOL    C3344125   1.432   6.388   4.173  0.2491 -0.5657  0.0801
  147MOL    C3444126   1.484   6.340   4.038  0.4337  0.6517 -0.1234
  147MOL    C3544127   1.397   6.289   3.941 -0.1784  0.3623  0.8236
  147MOL    C3644128   1.450   6.238   3.824  1.0419 -0.4193 -0.0888
  147MOL    C3744129   1.589   6.255   3.798  0.3970 -0.3581  0.4636
  147MOL    C3844130   1.670   6.311   3.895 -0.0458  0.2357 -0.0325
  147MOL    N3944131   1.623   6.348   4.017  0.4011 -0.4778 -0.0258
  147MOL    H4044132   1.418   6.571   4.295  1.4979  0.0856  0.5558
  147MOL    H4144133   1.575   6.540   4.225 -0.2754 -2.2800 -1.5368
  147MOL    H4244134   1.324   6.397   4.166  0.4220  3.4115  1.2677
  147MOL    H4344135   1.296   6.278   3.978  0.1406  0.3810  1.6900
  147MOL    H4444136   1.396   6.182   3.749 -0.4044  1.0595 -0.1733
  147MOL    H4544137   1.629   6.225   3.703 -0.4590  2.2536 -0.7760
  147MOL    H4644138   1.771   6.335   3.862 -0.2899  1.6384  0.2102
  147MOL    C4744139   1.460   6.291   4.289  0.0507  0.5045  0.1142
  147MOL    C4844140   1.402   6.145   4.272 -0.1108  0.3081 -0.0111
  147MOL    C4944141   1.469   6.058   4.370  0.3934 -0.1024 -0.3188
  147MOL    C5044142   1.541   5.941   4.335  0.1059 -0.6195  0.0526
  147MOL    C5144143   1.595   5.863   4.436  0.2749  0.7100 -0.3360
  147MOL    C5244144   1.587   5.909   4.566 -0.1822 -0.3785  0.1600
  147MOL    C5344145   1.529   6.033   4.589  1.0651  0.7383 -0.0946
  147MOL    N5444146   1.462   6.103   4.497 -0.1323  0.0391 -0.0777
  147MOL    H5544147   1.434   6.337   4.384 -1.9506 -1.2319  0.4278
  147MOL    H5644148   1.569   6.282   4.295 -0.0685 -1.2725 -0.2769
  147MOL    H5744149   1.426   6.108   4.172 -0.5219 -0.4878  0.1874
  147MOL    H5844150   1.544   5.890   4.240 -0.1939  0.6741 -0.6782
  147MOL    H5944151   1.645   5.767   4.426  1.2757  0.8932  2.3894
  147MOL    H6044152   1.633   5.863   4.653  2.1759 -1.1218 -1.4251
  147MOL    H6144153   1.533   6.060   4.694 -2.0745 -0.7583  0.4663
  147MOL    C6244154   1.250   6.132   4.286 -0.9171  0.2539 -0.1515
  147MOL    C6344155   1.190   5.986   4.272  0.1087  0.3985  0.5292
  147MOL    C6444156   1.110   5.935   4.394 -0.0137  0.0424 -0.8641
  147MOL    C6544157   1.154   5.820   4.465  0.2387 -0.0503  0.0385
  147MOL    C6644158   1.088   5.784   4.582 -0.0922 -0.7678  0.5290
  147MOL    C6744159   0.971   5.850   4.615 -0.1715  0.1810 -0.0652
  147MOL    C6844160   0.928   5.952   4.529 -0.1591 -0.1748 -1.0525
  147MOL    N6944161   0.993   5.996   4.420  0.2239 -0.7582 -0.1088
  147MOL    H7044162   1.192   6.201   4.225 -1.7382 -2.6196 -2.7693
  147MOL    H7144163   1.214   6.177   4.379  1.2649 -0.1884  0.9450
  147MOL    H7244164   1.277   5.919   4.272  2.0125  2.7987  0.5304
  147MOL    H7344165   1.243   5.765   4.439 -0.4571 -1.2102  0.0809
  147MOL    H7444166   1.126   5.703   4.643  0.6799  0.2045  1.3633
  147MOL    H7544167   0.920   5.829   4.707  1.4505  0.7890  0.9951
  147MOL    H7644168   0.827   5.989   4.540 -0.1086  0.7019 -3.3253
  147MOL    C7744169   1.099   5.973   4.146  0.5080  0.1963 -0.3260
  147MOL    C7844170   1.174   5.982   4.016  0.1203 -0.4716  0.0208
  147MOL    C7944171   1.295   5.888   4.005 -0.1287 -0.0940 -0.5738
  147MOL    C8044172   1.306   5.755   4.060 -0.1412 -0.2767 -0.4249
  147MOL    C8144173   1.423   5.681   4.041  0.1241 -0.3511  0.0606
  147MOL    C8244174   1.526   5.737   3.964  0.0834  0.2875 -0.1607
  147MOL    C8344175   1.508   5.871   3.927 -0.0730  0.0981  0.3861
  147MOL    N8444176   1.401   5.946   3.954  0.1239 -0.5087 -0.5333
  147MOL    H8544177   1.028   6.055   4.154  0.8561  0.6079 -1.4070
  147MOL    H8644178   1.044   5.879   4.153 -1.6536  1.4287 -0.3591
  147MOL    H8744179   1.202   6.087   4.017  0.0341 -0.4451 -0.6298
  147MOL    H8844180   1.222   5.705   4.105  1.1337 -2.1567 -0.0645
  147MOL    H8944181   1.438   5.579   4.075  0.7280  0.0433  0.9824
  147MOL    H9044182   1.617   5.684   3.941  0.4347  1.0628 -0.5776
  147MOL    H9144183   1.593   5.916   3.877  0.4076  0.8564  1.8485
  147MOL    C9244184   1.073   5.952   3.897  0.0857  0.0652  0.2181
  147MOL    C9344185   0.960   6.051   3.882  1.1180 -0.8968  0.2044
  147MOL    C9444186   1.001   6.195   3.872  0.4497 -0.0311  0.5449
  147MOL    C9544187   0.972   6.279   3.979 -0.0137  0.0052 -0.4501
  147MOL    C9644188   1.007   6.413   3.956  0.1371  0.3786 -0.0988
  147MOL    C9744189   1.084   6.455   3.844  0.0373  0.0346 -0.3896
  147MOL    C9844190   1.104   6.358   3.742  0.2729 -0.3249 -0.1197
  147MOL    N9944191   1.058   6.235   3.758  0.9918  0.1523  0.8776
  147MOL   H10044192   1.026   5.854   3.904  0.1355 -0.0159 -0.5704
  147MOL   H10144193   1.137   5.952   3.809 -0.5231  1.7331 -0.2514
  147MOL   H10244194   0.906   6.053   3.977 -2.7011 -0.9140 -1.8356
  147MOL   H10344195   0.912   6.251   4.064  4.0133 -1.4243  2.0629
  147MOL   H10444196   0.980   6.484   4.032  4.6630 -0.5459  2.6420
  147MOL   H10544197   1.130   6.553   3.840  0.7700 -0.3141 -0.5750
  147MOL   H10644198   1.164   6.369   3.653  0.1038 -0.3774 -0.2394
  147MOL   C10744199   0.867   6.008   3.768 -1.0165 -0.2384  1.1625
  147MOL   C10844200   0.730   6.077   3.757  0.6626 -0.2880  0.5966
  147MOL   C10944201   0.682   6.037   3.615 -0.3172 -0.1209 -0.4873
  147MOL   C11044202   0.712   6.120   3.505 -0.7619  0.3545 -0.5204
  147MOL   C11144203   0.682   6.080   3.375 -1.1325  0.3931 -0.2313
  147MOL   C11244204   0.616   5.960   3.366 -0.6151  0.3031 -0.0586
  147MOL   C11344205   0.594   5.883   3.475  0.0846  0.1245  0.6652
  147MOL   N11444206   0.628   5.919   3.598 -0.8738  0.4207 -0.5925
  147MOL   H11544207   0.839   5.905   3.788 -0.7763 -0.2037  1.6991
  147MOL   H11644208   0.922   6.010   3.674  0.7232 -3.1804  2.0618
  147MOL   H11744209   0.761   6.181   3.763  2.0172 -0.7772  2.5784
  147MOL   H11844210   0.760   6.215   3.525  0.3328 -0.1834 -0.5559
  147MOL   H11944211   0.693   6.141   3.286 -1.3240 -0.9250 -1.1755
  147MOL   H12044212   0.587   5.926   3.268  2.6775 -0.2021 -0.9244
  147MOL   H12144213   0.539   5.790   3.469  2.3522 -1.2881  0.9519
  147MOL   C12244214   0.623   6.052   3.872 -0.2676  0.5183  0.8334
  147MOL   C12344215   0.521   6.162   3.887  0.4653 -0.9020 -0.2667
  147MOL   C12444216   0.422   6.172   3.770  0.6630  0.0467  0.4355
  147MOL   C12544217   0.435   6.267   3.665  0.4515  0.1380  0.1945
  147MOL   C12644218   0.338   6.276   3.567 -0.0625  0.1580  0.3889
  147MOL   C12744219   0.226   6.191   3.574 -0.3772  0.3982  0.1963
  147MOL   C12844220   0.227   6.087   3.673 -0.0882 -0.1087 -0.4402
  147MOL   N12944221   0.322   6.085   3.771 -0.2955  1.6754  0.3891
  147MOL   H13044222   0.680   6.043   3.964 -1.7870 -1.9517  1.5817
  147MOL   H13144223   0.565   5.959   3.867 -2.3017  1.8689 -3.8185
  147MOL   H13244224   0.571   6.259   3.887 -0.5385 -0.3687 -1.6609
  147MOL   H13344225   0.521   6.331   3.674  0.2153  0.6666 -1.1828
  147MOL   H13444226   0.347   6.354   3.492  0.1246 -1.5926 -1.4375
  147MOL   H13544227   0.141   6.205   3.509 -1.8760 -1.0497  1.7819
  147MOL   H13644228   0.147   6.015   3.673  0.0533 -0.2785  0.7743
  147MOL   C13744229   0.444   6.155   4.022  0.2517  0.1253  0.7124
  147MOL   C13844230   0.440   6.284   4.110  0.5596 -0.3934  0.3650
  147MOL   C13944231   0.327   6.268   4.212  0.7221 -0.1250  0.5483
  147MOL   C14044232   0.222   6.355   4.219  0.5583  0.0057  0.3179
  147MOL   C14144233   0.130   6.335   4.323 -0.7046  0.4362  0.6385
  147MOL   C14244234   0.160   6.234   4.419 -0.1406 -0.8503 -0.0349
  147MOL   C14344235   0.272   6.147   4.404  0.7655  0.3895 -0.5430
  147MOL   N14444236   0.353   6.166   4.299 -0.7350  0.8309  0.3440
  147MOL   H14544237   0.484   6.075   4.083 -1.1914  0.1906  1.7636
  147MOL   H14644238   0.342   6.122   4.007  0.7378 -1.2790  0.4205
  147MOL   H14744239   0.404   6.368   4.050  0.5243  0.5147  1.6324
  147MOL   H14844240   0.205   6.431   4.144  2.5109 -0.9034 -1.0870
  147MOL   H14944241   0.035   6.384   4.340 -0.9261  0.2461 -0.0215
  147MOL   H15044242   0.099   6.236   4.508 -0.6284  2.1300 -0.3503
  147MOL   H15144243   0.284   6.072   4.480 -0.4621 -0.3275 -1.0381
  147MOL   C15244244   0.579   6.318   4.171  0.4453 -0.2337  0.0362
  147MOL   C15344245   0.578   6.412   4.294  0.4652 -0.1354  0.4492
  147MOL   C15444246   0.711   6.394   4.366 -1.1305 -0.1990 -0.4931
  147MOL   C15544247   0.711   6.342   4.492 -1.1556 -0.4736 -0.5016
  147MOL   C15644248   0.836   6.308   4.548 -0.2325 -0.0847  0.5885
  147MOL   C15744249   0.954   6.341   4.477 -0.2706 -0.2269  0.3843
  147MOL   C15844250   0.943   6.393   4.351  0.4383  0.7483  0.2599
  147MOL   N15944251   0.821   6.420   4.297 -0.0990 -0.9559 -0.4025
  147MOL   H16044252   0.640   6.359   4.090 -1.2926  1.3084 -0.5425
  147MOL   H16144253   0.636   6.229   4.199  1.5434  0.7119  0.8696
  147MOL   H16244254   0.504   6.373   4.364  1.5305  1.5002  2.5277
  147MOL   H16344255   0.620   6.310   4.541  0.3854 -3.8955  0.3160
  147MOL   H16444256   0.849   6.266   4.647 -3.3213 -1.5911  0.4111
  147MOL   H16544257   1.046   6.304   4.518  0.1621  1.1173  0.6532
  147MOL   H16644258   1.029   6.385   4.286  2.0625  0.3644  2.4269
  147MOL   C16744259   0.538   6.553   4.260 -0.6027 -0.1082 -0.6576
  147MOL   C16844260   0.510   6.646   4.382  0.4084 -0.1530 -0.2457
  147MOL   C16944261   0.514   6.786   4.331 -0.0809  0.5890 -0.9402
  147MOL   C17044262   0.604   6.878   4.382  0.4384 -0.8747  0.0711
  147MOL   C17144263   0.599   7.009   4.331 -0.1685 -0.2906  0.1675
  147MOL   C17244264   0.509   7.042   4.233  0.1838 -0.0196  0.2059
  147MOL   C17344265   0.418   6.939   4.193  0.2879 -0.1653  0.7601
  147MOL   N17444266   0.422   6.815   4.237 -0.1798  0.1125  0.1012
  147MOL   H17544267   0.455   6.547   4.190 -1.9443  1.4362  0.7717
  147MOL   H17644268   0.628   6.599   4.218 -0.2191 -0.1260  0.1227
  147MOL   H17744269   0.592   6.645   4.453 -1.9748  0.2731  2.6442
  147MOL   H17844270   0.680   6.852   4.454 -1.0584 -0.3715  1.8679
  147MOL   H17944271   0.661   7.084   4.378  0.3186 -1.3455  1.2665
  147MOL   H18044272   0.500   7.144   4.198 -0.7888 -0.2011 -0.0909
  147MOL   H18144273   0.336   6.962   4.127 -0.1227  2.2937  2.0722
  147MOL   C18244274   0.378   6.614   4.455 -0.3838 -0.3019  0.1208
  147MOL   C18344275   0.384   6.556   4.599 -0.4127  0.3089 -0.0169
  147MOL   C18444276   0.464   6.646   4.695  0.0523 -0.1978 -0.1450
  147MOL   C18544277   0.605   6.631   4.722  0.0544  0.1990 -0.3454
  147MOL   C18644278   0.672   6.730   4.804 -0.0071  0.0600  0.1530
  147MOL   C18744279   0.596   6.835   4.866  0.2494 -0.0316  0.5461
  147MOL   C18844280   0.455   6.835   4.840  0.2999  0.5904 -0.1116
  147MOL   N18944281   0.395   6.749   4.754  0.5329 -0.3164  0.6452
  147MOL   H19044282   0.312   6.549   4.398  0.9249 -3.7963  2.4329
  147MOL   H19144283   0.327   6.707   4.478 -0.5944 -0.0780 -1.1752
  147MOL   H19244284   0.439   6.464   4.577 -1.2722 -0.2688  0.2172
  147MOL   H19344285   0.675   6.557   4.686  0.0805 -0.0023  0.1074
  147MOL   H19444286   0.778   6.722   4.825  0.3570  0.4551 -1.4521
  147MOL   H19544287   0.650   6.907   4.925  0.5485  0.7082 -0.6073
  147MOL   H19644288   0.395   6.911   4.889  1.2228  0.9395  0.4893
  147MOL   C19744289   0.251   6.493   4.649  0.0746 -0.0326  0.3328
  147MOL   C19844290   0.250   6.445   4.792  0.5118 -0.2341 -0.2429
  147MOL   C19944291   0.103   6.433   4.843 -0.4737 -0.2147  0.0592
  147MOL   C20044292   0.038   6.534   4.923 -0.0890 -0.1231  1.0898
  147MOL   C20144293   8.063   6.508   4.972 -0.2029 -0.2007 -0.1494
  147MOL   C20244294   8.005   6.386   4.929  0.0946  0.3103 -0.2446
  147MOL   C20344295   8.069   6.298   4.847  0.8388  0.0490 -0.3438
  147MOL   N20444296   0.047   6.322   4.812  0.4654 -0.1846  0.2044
  147MOL   H20544297   0.219   6.420   4.575  0.3599 -1.1052  1.2538
  147MOL   H20644298   0.193   6.584   4.633 -2.6768 -1.6344  0.9584
  147MOL   H20744299   0.297   6.515   4.860 -0.1575 -0.2225  0.2121
  147MOL   H20844300   0.093   6.625   4.944  2.2625 -0.7068 -2.1195
  147MOL   H20944301   8.007   6.586   5.021  0.4480  0.4060 -0.3760
  147MOL   H21044302   7.901   6.374   4.958  0.6441 -1.4675  1.1038
  147MOL   H21144303   8.021   6.212   4.803  1.8542 -0.5712 -0.2712
  147MOL   C21244304   0.335   6.317   4.805 -0.4646  0.0014 -0.7584
  147MOL   C21344305   0.326   6.241   4.947  0.1632  0.3295  0.2201
  147MOL   C21444306   0.364   6.095   4.940 -0.2140  0.2406  0.3604
  147MOL   C21544307   0.264   5.998   4.959 -0.5906  0.0761 -0.5112
  147MOL   C21644308   0.297   5.863   4.941  0.5575  0.5776  0.5866
  147MOL   C21744309   0.428   5.826   4.912 -0.2473 -0.3213 -0.0398
  147MOL   C21844310   0.520   5.926   4.895  0.9104 -0.2690  0.3157
  147MOL   N21944311   0.490   6.060   4.909 -0.0754 -0.2068 -0.1868
  147MOL   H22044312   0.439   6.335   4.778 -0.6294  1.2599 -0.5815
  147MOL   H22144313   0.294   6.243   4.736 -1.9370 -0.4149  0.5420
  147MOL   H22244314   0.222   6.231   4.975 -0.0254 -0.5070 -0.7499
  147MOL   H22344315   0.163   6.026   4.983 -0.5590  1.3851 -1.8772
  147MOL   H22444316   0.218   5.790   4.954 -0.0233  0.4829 -2.9954
  147MOL   H22544317   0.460   5.723   4.906  1.5025  0.2284 -0.4271
  147MOL   H22644318   0.623   5.895   4.885  1.0560  0.2541  0.1636
  147MOL   C22744319   0.408   6.317   5.050 -0.0113 -0.1236  0.3783
  147MOL   C22844320   0.410   6.266   5.200  0.0503 -0.3764  0.0238
  147MOL   C22944321   0.536   6.316   5.267 -0.4722  0.7363 -0.0026
  147MOL   C23044322   0.640   6.226   5.279 -0.0773 -0.1666 -0.1981
  147MOL   C23144323   0.757   6.271   5.343 -0.5991  0.4852 -0.3966
  147MOL   C23244324   0.768   6.403   5.391  0.0100  0.6800 -0.6148
  147MOL   C23344325   0.656   6.487   5.380  0.3380 -0.1486  0.3320
  147MOL   N23444326   0.545   6.447   5.308  0.2903 -0.0389 -0.0442
  147MOL   H23544327   0.380   6.422   5.060 -0.2834 -0.1926  0.3468
  147MOL   H23644328   0.515   6.319   5.029 -0.3103  2.1932 -1.1648
  147MOL   H23744329   0.410   6.157   5.199  3.9858 -0.4626 -0.6803
  147MOL   H23844330   0.636   6.131   5.228  0.6333 -1.2460  1.7072
  147MOL   H23944331   0.847   6.211   5.352  1.1693  3.3782  2.0164
  147MOL   H24044332   0.860   6.436   5.438  0.5392 -1.7518  0.1337
  147MOL   H24144333   0.648   6.589   5.414  0.8947 -0.0495  0.1668
  147MOL   C24244334   0.284   6.308   5.285 -0.7346  0.2966  0.7001
  147MOL   C24344335   0.223   6.208   5.386  0.0429 -0.7863  0.0612
  147MOL   C24444336   0.147   6.097   5.312 -0.2122  0.5095 -0.0109
  147MOL   C24544337   0.191   5.963   5.304 -0.1693  0.7673  0.6886
  147MOL   C24644338   0.113   5.869   5.227 -0.0830 -0.3942 -0.5807
  147MOL   C24744339   8.146   5.920   5.169  0.1536  0.2130 -0.5700
  147MOL   C24844340   8.116   6.053   5.180  0.3718 -0.0097 -0.1531
  147MOL   N24944341   0.031   6.140   5.259 -0.4098 -0.0770 -0.1984
  147MOL   H25044342   0.207   6.336   5.213  0.6696  1.7759 -0.2890
  147MOL   H25144343   0.300   6.408   5.325 -3.0735  0.6480  0.8124
  147MOL   H25244344   0.139   6.258   5.435 -0.0652 -1.8869  1.0193
  147MOL   H25344345   0.279   5.924   5.353  0.5272  2.0665  0.4803
  147MOL   H25444346   0.155   5.771   5.216 -0.3572 -0.6705  0.7655
  147MOL   H25544347   8.081   5.862   5.106 -1.0631  1.0891 -0.1219
  147MOL   H25644348   8.044   6.100   5.115  0.1422  0.1811  0.2336
  147MOL   C25744349   0.319   6.157   5.492 -0.3509  0.4948  0.7069
  147MOL   C25844350   0.366   6.260   5.601 -0.1092 -0.2134 -0.6329
  147MOL   C25944351   0.239   6.309   5.674 -0.3422  0.2765  0.5824
  147MOL   C26044352   0.168   6.223   5.751  0.3277  0.0360  0.0289
  147MOL   C26144353   0.046   6.266   5.793  0.0959 -0.1445  0.0080
  147MOL   C26244354   8.146   6.393   5.763  0.1130 -0.0728  0.1220
  147MOL   C26344355   0.070   6.471   5.672 -0.2249 -0.4406 -0.5223
  147MOL   N26444356   0.190   6.428   5.633 -0.1641 -0.3168 -0.2720
  147MOL   H26544357   0.399   6.110   5.435  1.2497  3.1718  0.6541
  147MOL   H26644358   0.273   6.070   5.541  0.1517 -1.2018 -1.7314
  147MOL   H26744359   0.390   6.341   5.531  0.9616  0.3976  0.4184
  147MOL   H26844360   0.209   6.132   5.792 -3.0241 -1.7240 -0.3497
  147MOL   H26944361   0.004   6.198   5.865  2.3016  0.1386  1.6297
  147MOL   H27044362   8.049   6.417   5.803 -0.5133 -1.7657 -0.3224
  147MOL   H27144363   0.051   6.573   5.643 -1.8788  0.2596  2.8285
  147MOL   C27244364   0.487   6.224   5.692  0.0841  0.7962 -0.5692
  147MOL   C27344365   0.553   6.342   5.764  0.5338 -0.3731 -0.2754
  147MOL   C27444366   0.467   6.401   5.866  0.2802  0.0871 -0.8916
  147MOL   C27544367   0.408   6.527   5.851  0.4129 -0.6652  0.8404
  147MOL   C27644368   0.310   6.577   5.938 -0.0263 -0.4609 -0.3948
  147MOL   C27744369   0.293   6.507   6.060  0.4178  0.1750  0.4678
  147MOL   C27844370   0.355   6.380   6.070 -0.3424 -0.1026 -0.1018
  147MOL   N27944371   0.438   6.325   5.975  0.3347 -0.5309  0.0220
  147MOL   H28044372   0.555   6.179   5.619 -0.6250 -1.2309 -0.0235
  147MOL   H28144373   0.474   6.139   5.759  0.1766 -0.5194 -2.1821
  147MOL   H28244374   0.573   6.412   5.683 -0.0186 -0.0257 -0.1102
  147MOL   H28344375   0.430   6.585   5.763 -0.0493 -1.8950 -0.0817
  147MOL   H28444376   0.254   6.667   5.917  0.2757 -0.9079 -3.4157
  147MOL   H28544377   0.221   6.535   6.136 -1.4174 -1.2650 -0.7296
  147MOL   H28644378   0.317   6.315   6.147 -1.1826 -1.4700 -1.6326
  147MOL   C28744379   0.695   6.312   5.830 -0.4165  0.2177 -0.2238
  147MOL   C28844380   0.769   6.436   5.859  0.3313  0.3799  0.4485
  147MOL   C28944381   0.892   6.424   5.957  0.6356 -0.2405 -0.0600
  147MOL   C29044382   1.021   6.435   5.900  0.5490 -0.0414  0.5012
  147MOL   C29144383   1.135   6.421   5.985 -0.0871 -0.0594 -0.1074
  147MOL   C29244384   1.109   6.387   6.122  0.1062  0.0537  0.2003
  147MOL   C29344385   0.976   6.394   6.170 -0.1464 -0.6140  0.0752
  147MOL   N29444386   0.866   6.407   6.090  0.4747  0.1354  0.2692
  147MOL   H29544387   0.762   6.258   5.763 -0.6895 -1.0319  0.5135
  147MOL   H29644388   0.692   6.262   5.927  2.2154  1.2508  0.4373
  147MOL   H29744389   0.695   6.497   5.910  0.5276 -0.0957  1.3142
  147MOL   H29844390   1.034   6.446   5.793  2.0469 -0.4106  0.6209
  147MOL   H29944391   1.234   6.424   5.944  0.7025 -1.5226  1.6035
  147MOL   H30044392   1.183   6.376   6.201 -1.0901 -0.0467  1.3187
  147MOL   H30144393   0.951   6.394   6.275  1.2994 -0.2428  0.4277
  147MOL   H30244394   0.801   6.487   5.768 -1.4303 -0.0216 -0.4132
  148MOL     C144395   2.787   1.369   4.414 -0.2455  0.0471  0.3296
  148MOL     C244396   2.647   1.386   4.477 -0.0077 -0.1750 -0.4365
  148MOL     C344397   2.616   1.306   4.599 -0.6099 -0.2115  0.3901
  148MOL     C444398   2.525   1.201   4.594 -1.1788 -0.0783 -0.6951
  148MOL     C544399   2.492   1.146   4.719 -0.6758 -0.1023 -0.2531
  148MOL     C644400   2.559   1.193   4.839 -0.1576  0.3985  0.2516
  148MOL     C744401   2.669   1.278   4.823  0.3407 -0.6240 -0.2506
  148MOL     N844402   2.694   1.338   4.708 -0.4602 -0.3673  0.3441
  148MOL     H944403   2.796   1.435   4.328 -0.1742 -0.7138 -0.2563
  148MOL    H1044404   2.870   1.397   4.479  0.2784  0.5227 -0.5358
  148MOL    H1144405   2.580   1.340   4.403 -1.1855  1.8072 -0.6371
  148MOL    H1244406   2.485   1.165   4.500  0.4779 -0.7719 -1.1468
  148MOL    H1344407   2.416   1.069   4.719 -2.7801  1.8864  0.6663
  148MOL    H1444408   2.537   1.143   4.932 -1.4388 -2.9237 -1.7698
  148MOL    H1544409   2.741   1.290   4.901  1.7738 -0.7254 -1.5326
  148MOL    H1644410   2.800   1.268   4.374 -1.0161  0.6012 -1.3639
  148MOL    C1744411   2.607   1.538   4.494  0.2151 -0.3120 -0.0223
  148MOL    C1844412   2.462   1.574   4.548  0.2297  0.0769  0.2656
  148MOL    C1944413   2.466   1.713   4.608 -0.0520  0.6050  0.0411
  148MOL    C2044414   2.445   1.721   4.747 -0.4802  0.6349  1.1199
  148MOL    C2144415   2.451   1.852   4.803 -0.0707 -0.6624  0.3871
  148MOL    C2244416   2.465   1.965   4.718 -0.0997  0.0634  0.0048
  148MOL    C2344417   2.477   1.945   4.581 -0.0040 -0.5488 -1.2223
  148MOL    N2444418   2.470   1.823   4.522  0.2257 -0.4327 -0.4623
  148MOL    H2544419   2.634   1.595   4.405  0.9024 -0.1116  0.3091
  148MOL    H2644420   2.690   1.565   4.559  1.9496 -1.4841 -1.6972
  148MOL    H2744421   2.433   1.495   4.618 -2.2898  0.8845  0.1740
  148MOL    H2844422   2.442   1.645   4.823  0.0309 -1.3703 -0.8024
  148MOL    H2944423   2.449   1.854   4.911  0.2474  0.2289  0.3755
  148MOL    H3044424   2.485   2.058   4.768  0.8285  0.3464 -0.8725
  148MOL    H3144425   2.482   2.034   4.519 -2.9827  0.0853 -0.6328
  148MOL    C3244426   2.359   1.558   4.430  0.0499 -0.1524 -0.2375
  148MOL    C3344427   2.210   1.556   4.477 -0.0970 -0.5990 -0.4520
  148MOL    C3444428   2.197   1.439   4.582 -0.3199  0.1140 -0.1274
  148MOL    C3544429   2.213   1.459   4.721 -0.1863  1.3166 -0.2306
  148MOL    C3644430   2.195   1.350   4.807  0.2533  0.5953  0.3799
  148MOL    C3744431   2.157   1.226   4.755 -0.2315  0.9482  0.4239
  148MOL    C3844432   2.147   1.216   4.615  0.3039 -0.0206  0.7238
  148MOL    N3944433   2.166   1.318   4.529  0.1871 -0.8604  0.1420
  148MOL    H4044434   2.387   1.465   4.380 -0.2952 -2.3349  3.4381
  148MOL    H4144435   2.370   1.648   4.370 -2.5998  0.2716 -0.1341
  148MOL    H4244436   2.168   1.519   4.384  1.6713 -1.8656 -0.7758
  148MOL    H4344437   2.255   1.552   4.754  1.0725  0.9810 -0.8429
  148MOL    H4444438   2.216   1.366   4.911 -1.5010  0.0432  0.8335
  148MOL    H4544439   2.153   1.140   4.820 -0.7939  0.7137  0.0810
  148MOL    H4644440   2.146   1.117   4.574 -0.6099  0.4323 -0.3724
  148MOL    C4744441   2.161   1.693   4.517 -0.4878  0.2504 -0.0071
  148MOL    C4844442   2.009   1.685   4.561 -0.4018 -0.2478  0.2684
  148MOL    C4944443   1.972   1.803   4.656  0.3998  0.0314 -0.8782
  148MOL    C5044444   1.921   1.775   4.786  1.2434 -0.4261 -0.0609
  148MOL    C5144445   1.861   1.875   4.862 -0.9063 -0.5954 -0.5080
  148MOL    C5244446   1.868   1.999   4.808  0.5666 -0.0962  0.0211
  148MOL    C5344447   1.928   2.023   4.686  0.6640 -0.8139 -0.5698
  148MOL    N5444448   1.979   1.927   4.606 -0.2432  0.7032 -0.4223
  148MOL    H5544449   2.173   1.764   4.435  0.4554  0.7022  0.5174
  148MOL    H5644450   2.211   1.742   4.600  0.2340  0.9799 -0.8682
  148MOL    H5744451   2.011   1.599   4.627 -0.9660 -0.5204 -0.0630
  148MOL    H5844452   1.926   1.676   4.829  1.8367  0.4174  1.8292
  148MOL    H5944453   1.816   1.860   4.959  0.9230  0.9114  0.6074
  148MOL    H6044454   1.810   2.075   4.859  0.5262 -0.0253 -0.1306
  148MOL    H6144455   1.941   2.123   4.648 -1.1224  0.0651  1.0454
  148MOL    C6244456   1.909   1.675   4.451  0.3522  1.2552  0.3660
  148MOL    C6344457   1.784   1.600   4.507  0.1906 -0.1415 -0.2720
  148MOL    C6444458   1.650   1.658   4.455  0.0133 -0.2272 -0.8326
  148MOL    C6544459   1.554   1.713   4.544  0.1334  0.0593 -0.4650
  148MOL    C6644460   1.436   1.761   4.490  0.3119 -0.7271  0.1999
  148MOL    C6744461   1.412   1.746   4.348  0.2898  1.0818 -0.3645
  148MOL    C6844462   1.504   1.673   4.280  0.0780 -0.3744  0.4580
  148MOL    N6944463   1.621   1.632   4.326  0.1759  0.4817 -0.3254
  148MOL    H7044464   1.947   1.631   4.359 -1.6698 -1.2506  0.6433
  148MOL    H7144465   1.881   1.776   4.423  1.2027  1.4931  0.3623
  148MOL    H7244466   1.786   1.609   4.616  1.4464 -0.9003 -0.2383
  148MOL    H7344467   1.562   1.724   4.651  0.5768  0.0538 -0.4969
  148MOL    H7444468   1.355   1.799   4.551 -0.4729  0.1346 -1.3381
  148MOL    H7544469   1.320   1.789   4.311  0.7564  2.0679 -0.3770
  148MOL    H7644470   1.489   1.634   4.180  0.6452 -1.4886  0.7973
  148MOL    C7744471   1.790   1.452   4.479  0.4347 -0.5647  0.4483
  148MOL    C7844472   1.713   1.356   4.570  0.0013  0.1021  0.2191
  148MOL    C7944473   1.701   1.213   4.515  0.1437  0.2052  0.5583
  148MOL    C8044474   1.573   1.166   4.476  0.3018 -0.2072  0.8419
  148MOL    C8144475   1.566   1.046   4.401  0.0474 -0.3710 -0.1491
  148MOL    C8244476   1.687   0.987   4.364  0.1893  0.0711  0.1220
  148MOL    C8344477   1.807   1.039   4.414 -0.4829  0.2352 -0.1332
  148MOL    N8444478   1.818   1.153   4.489 -0.4173 -0.2629 -1.0036
  148MOL    H8544479   1.897   1.428   4.479  1.0823  2.0971  2.5506
  148MOL    H8644480   1.769   1.427   4.375  0.2670 -0.8903  0.5604
  148MOL    H8744481   1.609   1.386   4.581 -0.5928 -0.5541 -3.1237
  148MOL    H8844482   1.487   1.226   4.500 -0.8740 -0.9198 -1.4505
  148MOL    H8944483   1.468   1.013   4.371 -1.1718 -0.8799  4.0677
  148MOL    H9044484   1.684   0.895   4.307 -0.5171  0.0961  0.1097
  148MOL    H9144485   1.899   0.993   4.382 -0.3663  0.3981 -0.0351
  148MOL    C9244486   1.785   1.347   4.711 -0.0554 -0.3799 -0.4272
  148MOL    C9344487   1.727   1.265   4.821  0.7476 -0.1041  0.1818
  148MOL    C9444488   1.821   1.222   4.929  0.1041  0.2693 -0.3025
  148MOL    C9544489   1.797   1.098   4.990  0.0175 -0.1663  0.0437
  148MOL    C9644490   1.870   1.061   5.101 -0.8260 -0.0723 -0.1887
  148MOL    C9744491   1.982   1.140   5.134 -0.2690  0.3595 -0.8101
  148MOL    C9844492   1.998   1.262   5.067 -0.6671  0.2771 -0.3700
  148MOL    N9944493   1.913   1.309   4.976 -0.2790  0.4705  0.2985
  148MOL   H10044494   1.799   1.447   4.753  0.5550 -0.2398 -0.9547
  148MOL   H10144495   1.890   1.324   4.692  0.2535  1.9132 -1.6212
  148MOL   H10244496   1.708   1.172   4.768  2.5492 -0.6035  0.3743
  148MOL   H10344497   1.715   1.045   4.942  0.7392 -1.0257 -0.2465
  148MOL   H10444498   1.847   0.972   5.157  0.9190 -0.5127 -0.1502
  148MOL   H10544499   2.039   1.109   5.220 -0.3038 -1.0051 -1.2662
  148MOL   H10644500   2.072   1.331   5.104 -1.5119  0.6143  0.7029
  148MOL   C10744501   1.591   1.311   4.882 -0.1738 -0.0578 -0.0157
  148MOL   C10844502   1.590   1.433   4.977 -0.5449  0.3199 -0.0546
  148MOL   C10944503   1.468   1.511   4.951  0.3425 -0.2074 -0.2282
  148MOL   C11044504   1.472   1.651   4.932 -0.8807  0.4472  0.5954
  148MOL   C11144505   1.353   1.714   4.894 -0.3677 -0.4586 -0.4284
  148MOL   C11244506   1.232   1.648   4.893 -0.3206 -0.1620  0.0857
  148MOL   C11344507   1.236   1.516   4.926  0.3727 -0.4822 -0.8313
  148MOL   N11444508   1.347   1.447   4.949  0.0914  0.3577 -0.0006
  148MOL   H11544509   1.545   1.232   4.941 -1.1779 -0.5538 -1.4300
  148MOL   H11644510   1.515   1.328   4.805  0.3188  0.3631 -0.4062
  148MOL   H11744511   1.673   1.498   4.949 -2.2594  1.7196 -1.9963
  148MOL   H11844512   1.560   1.714   4.940 -0.0391 -0.5953 -0.2050
  148MOL   H11944513   1.347   1.821   4.879 -1.5335 -0.8117 -2.6313
  148MOL   H12044514   1.143   1.697   4.858  1.0701  1.8036 -0.7421
  148MOL   H12144515   1.141   1.463   4.929  1.2210 -2.0194 -0.3278
  148MOL   C12244516   1.616   1.402   5.125 -0.1925 -0.5134  0.2845
  148MOL   C12344517   1.599   1.522   5.224 -0.4845  0.3828 -0.4683
  148MOL   C12444518   1.609   1.472   5.371  0.4779 -0.1430 -0.4267
  148MOL   C12544519   1.494   1.474   5.445  0.7886  0.2416  0.5066
  148MOL   C12644520   1.495   1.427   5.579 -0.1996 -0.2247  0.4752
  148MOL   C12744521   1.612   1.381   5.630  0.0886  0.5530  0.7527
  148MOL   C12844522   1.729   1.390   5.549 -0.2128  0.2394  0.0619
  148MOL   N12944523   1.725   1.438   5.420 -0.1740  0.1131 -0.3549
  148MOL   H13044524   1.707   1.346   5.147  0.5927  1.1432  1.3215
  148MOL   H13144525   1.549   1.326   5.167 -1.7075  1.8928  2.3726
  148MOL   H13244526   1.494   1.546   5.207 -0.4563 -0.4574 -1.9393
  148MOL   H13344527   1.402   1.513   5.405  1.3043  0.4764 -0.4834
  148MOL   H13444528   1.405   1.411   5.637  1.7224  1.5135  4.0983
  148MOL   H13544529   1.613   1.346   5.732  1.4711 -0.9939  0.2274
  148MOL   H13644530   1.826   1.372   5.592  0.0784 -0.7097 -0.9420
  148MOL   C13744531   1.686   1.644   5.207  0.4078  0.7235 -0.0378
  148MOL   C13844532   1.643   1.765   5.298  0.3217 -0.0016 -0.1832
  148MOL   C13944533   1.750   1.874   5.310 -0.3570  0.1112  0.4894
  148MOL   C14044534   1.810   1.905   5.429  0.3134  0.2913 -0.0188
  148MOL   C14144535   1.894   2.022   5.438  0.3164  0.0236  0.5854
  148MOL   C14244536   1.910   2.098   5.323 -0.1743  0.1917  0.8538
  148MOL   C14344537   1.846   2.059   5.201 -0.1780  0.3323 -0.4214
  148MOL   N14444538   1.761   1.950   5.195  0.0665  0.0940  0.2489
  148MOL   H14544539   1.681   1.679   5.104 -1.3414 -1.4816 -0.7695
  148MOL   H14644540   1.790   1.620   5.229 -0.7769 -0.4471  4.8613
  148MOL   H14744541   1.641   1.727   5.400 -0.7698  1.0833  0.2137
  148MOL   H14844542   1.787   1.843   5.514  0.7778 -0.3152 -0.3363
  148MOL   H14944543   1.938   2.061   5.529  0.0160  0.0420  0.7226
  148MOL   H15044544   1.962   2.191   5.338  1.1651 -0.4584  0.2898
  148MOL   H15144545   1.847   2.111   5.106 -0.8644 -0.1106 -0.6757
  148MOL   C15244546   1.501   1.815   5.267  0.4145 -0.7659  0.0284
  148MOL   C15344547   1.446   1.889   5.391  0.3122 -0.4965 -0.2572
  148MOL   C15444548   1.416   2.030   5.346  0.3398 -0.1961  0.5793
  148MOL   C15544549   1.501   2.134   5.388 -0.3370  0.0217  0.1968
  148MOL   C15644550   1.471   2.263   5.348  0.7822 -0.7134 -0.8044
  148MOL   C15744551   1.347   2.290   5.282  0.6202  0.3972 -0.1422
  148MOL   C15844552   1.270   2.181   5.246  0.2065  0.1868  0.1123
  148MOL   N15944553   1.297   2.050   5.284  0.2077  0.2376 -0.0514
  148MOL   H16044554   1.435   1.739   5.226  0.2155 -0.7601  0.3355
  148MOL   H16144555   1.499   1.882   5.182 -1.0108 -0.1149  0.5527
  148MOL   H16244556   1.533   1.889   5.456  0.4908 -2.5950 -0.4691
  148MOL   H16344557   1.598   2.111   5.430 -0.0370 -2.6039 -1.7717
  148MOL   H16444558   1.535   2.341   5.385 -0.7545  0.3681 -0.3894
  148MOL   H16544559   1.309   2.391   5.270 -3.8942 -1.2681 -0.8802
  148MOL   H16644560   1.179   2.184   5.187  0.5326  0.9456 -0.3472
  148MOL   C16744561   1.336   1.816   5.461 -0.1945  0.1501  0.1845
  148MOL   C16844562   1.269   1.884   5.591 -0.7182 -0.1225  0.7287
  148MOL   C16944563   1.172   1.793   5.646  0.3662 -0.5752  0.1263
  148MOL   C17044564   1.036   1.830   5.666 -0.0991  0.2376  0.0079
  148MOL   C17144565   0.950   1.733   5.714  0.0378  0.4780  0.3078
  148MOL   C17244566   1.001   1.610   5.745 -0.4076 -0.3144 -0.3517
  148MOL   C17344567   1.135   1.572   5.718  0.1839  0.7794 -0.3875
  148MOL   N17444568   1.214   1.669   5.668 -0.6974  0.0968  0.8041
  148MOL   H17544569   1.369   1.714   5.482 -0.5907  0.2202  1.1761
  148MOL   H17644570   1.253   1.801   5.392  0.4814 -2.9856 -0.0128
  148MOL   H17744571   1.209   1.970   5.562 -0.4471 -0.6972 -1.6552
  148MOL   H17844572   1.006   1.931   5.641  0.7552  0.8642  1.4743
  148MOL   H17944573   0.846   1.743   5.740 -0.2872  0.8849 -1.0988
  148MOL   H18044574   0.937   1.530   5.779 -1.5474 -0.8052 -3.5499
  148MOL   H18144575   1.174   1.472   5.724 -1.2267  0.2532  0.2193
  148MOL   C18244576   1.373   1.922   5.681 -0.2918  0.6541  0.0023
  148MOL   C18344577   1.327   1.989   5.817  0.4789  0.8423 -0.3925
  148MOL   C18444578   1.444   1.997   5.907  0.0546  0.2292  1.0110
  148MOL   C18544579   1.444   1.940   6.035 -0.5120 -0.0636  1.0871
  148MOL   C18644580   1.569   1.925   6.101  0.4296 -0.1369  0.6628
  148MOL   C18744581   1.682   1.978   6.036 -0.1061 -0.4336 -0.4285
  148MOL   C18844582   1.671   2.045   5.913  0.2446  0.4279 -0.0113
  148MOL   N18944583   1.555   2.061   5.855  0.1619 -0.0804 -0.0450
  148MOL   H19044584   1.446   1.985   5.630  0.3109 -0.9181 -1.1356
  148MOL   H19144585   1.436   1.837   5.707  1.3234  2.1654  1.1617
  148MOL   H19244586   1.257   1.914   5.853 -0.9756  1.7252 -1.3346
  148MOL   H19344587   1.356   1.893   6.077 -1.6010 -0.7713 -1.8952
  148MOL   H19444588   1.582   1.872   6.194 -1.6548 -0.1099  1.0075
  148MOL   H19544589   1.781   1.973   6.079 -0.9232  0.5799  1.6307
  148MOL   H19644590   1.757   2.077   5.856 -0.0208  0.5804 -0.3263
  148MOL   C19744591   1.260   2.128   5.801  0.4463  0.2397 -0.3888
  148MOL   C19844592   1.107   2.142   5.850 -0.1475 -0.3109  0.6479
  148MOL   C19944593   1.104   2.141   6.002  0.6012  0.3157 -0.7764
  148MOL   C20044594   1.035   2.037   6.069  0.0415 -0.7338  0.5618
  148MOL   C20144595   1.037   2.041   6.208  0.5653  0.2171  0.6528
  148MOL   C20244596   1.106   2.143   6.269  0.2421 -0.6667  0.4097
  148MOL   C20344597   1.163   2.247   6.194  0.1814 -0.0516  0.7140
  148MOL   N20444598   1.173   2.241   6.062  0.3791  0.1675 -0.0996
  148MOL   H20544599   1.259   2.148   5.694 -0.7605 -0.1831 -0.4665
  148MOL   H20644600   1.323   2.199   5.855 -0.6141 -0.3301  1.6513
  148MOL   H20744601   1.055   2.054   5.812  1.0911 -1.1935  0.9488
  148MOL   H20844602   0.990   1.951   6.020 -0.7481  0.8154 -1.5374
  148MOL   H20944603   0.978   1.964   6.257  1.7384 -0.4630  1.0192
  148MOL   H21044604   1.085   2.154   6.375  0.7350 -1.0950  0.5498
  148MOL   H21144605   1.207   2.336   6.235  5.8503 -1.1755 -2.5234
  148MOL   C21244606   1.042   2.272   5.801  0.5089  0.1656 -0.1918
  148MOL   C21344607   1.022   2.307   5.646  0.1018  0.2009 -0.5771
  148MOL   C21444608   0.944   2.196   5.581  0.3627  0.3131  0.8022
  148MOL   C21544609   0.997   2.133   5.462  0.9799  0.5242  0.2964
  148MOL   C21644610   0.915   2.035   5.394 -0.5840 -0.0955  0.1704
  148MOL   C21744611   0.790   1.996   5.455  0.1101 -0.3790  0.3704
  148MOL   C21844612   0.757   2.064   5.573  0.3715 -0.6922  0.1550
  148MOL   N21944613   0.819   2.176   5.621  0.0889  0.4746 -0.1745
  148MOL   H22044614   1.094   2.354   5.849 -1.5613  1.3224  0.1534
  148MOL   H22144615   0.945   2.281   5.849 -0.3611 -2.2785 -1.3969
  148MOL   H22244616   1.125   2.314   5.608  1.5191  0.1437  3.0460
  148MOL   H22344617   1.086   2.175   5.418  1.0416 -2.0383 -2.1689
  148MOL   H22444618   0.924   1.992   5.296  0.6567 -1.4152  0.8505
  148MOL   H22544619   0.726   1.922   5.409  0.7947 -1.3332  0.9407
  148MOL   H22644620   0.660   2.049   5.619  0.3941 -1.4417 -0.0357
  148MOL   C22744621   0.940   2.430   5.615  0.5733  1.3111  0.4428
  148MOL   C22844622   1.000   2.562   5.654  0.1654 -0.0894  0.2200
  148MOL   C22944623   1.109   2.611   5.555  1.2541 -0.9288 -0.2345
  148MOL   C23044624   1.247   2.610   5.594 -0.8327 -0.2354  0.3255
  148MOL   C23144625   1.344   2.641   5.493 -0.3403 -0.0608  0.0487
  148MOL   C23244626   1.298   2.697   5.371  0.4037 -0.0893 -0.5724
  148MOL   C23344627   1.158   2.702   5.343  0.0691  0.0193 -0.7751
  148MOL   N23444628   1.067   2.655   5.430  0.6136  0.0235 -0.3487
  148MOL   H23544629   0.845   2.410   5.667  1.0635 -2.5180 -0.0068
  148MOL   H23644630   0.930   2.429   5.507  1.5398 -0.7980  0.3494
  148MOL   H23744631   1.054   2.561   5.749 -2.0213  1.3837  1.5381
  148MOL   H23844632   1.280   2.559   5.683  0.3917 -0.8378 -0.4639
  148MOL   H23944633   1.451   2.629   5.507  0.1484  0.4250 -2.8815
  148MOL   H24044634   1.373   2.731   5.301 -0.1140 -0.4983 -1.3328
  148MOL   H24144635   1.122   2.731   5.246  1.5954 -2.3885 -2.1053
  148MOL   C24244636   0.884   2.665   5.659 -0.4374  0.0990 -0.5754
  148MOL   C24344637   0.807   2.667   5.787 -0.4244  0.0762  0.5044
  148MOL   C24444638   0.897   2.666   5.911  0.2931 -0.0444 -0.1137
  148MOL   C24544639   0.903   2.557   6.002 -0.3416  0.0277 -0.0571
  148MOL   C24644640   0.986   2.573   6.115  0.6662  0.6097  0.6266
  148MOL   C24744641   1.066   2.688   6.133 -0.3800 -0.5495  0.2140
  148MOL   C24844642   1.064   2.786   6.030  1.2949  0.3692 -0.3446
  148MOL   N24944643   0.975   2.768   5.929  0.5849  0.0760  0.4887
  148MOL   H25044644   0.823   2.650   5.570 -0.7980 -3.4794  0.2136
  148MOL   H25144645   0.926   2.765   5.643  1.8521 -0.5702  0.9407
  148MOL   H25244646   0.753   2.572   5.786  1.8393 -1.2451 -0.3877
  148MOL   H25344647   0.842   2.471   5.978 -0.2766  0.3165 -1.2428
  148MOL   H25444648   1.001   2.490   6.182 -0.6361 -0.2225 -0.0998
  148MOL   H25544649   1.134   2.700   6.215 -1.0495 -0.1535  0.7164
  148MOL   H25644650   1.113   2.882   6.040  0.6660  0.8338 -1.6497
  148MOL   C25744651   0.700   2.778   5.794  0.1950 -0.0602  0.0758
  148MOL   C25844652   0.576   2.739   5.888 -0.0952  0.0755 -0.0759
  148MOL   C25944653   0.607   2.760   6.036 -0.1210 -0.6746 -0.2642
  148MOL   C26044654   0.578   2.661   6.134  0.2967  0.0871  0.1159
  148MOL   C26144655   0.624   2.683   6.263 -0.3899 -0.0375 -0.2330
  148MOL   C26244656   0.671   2.809   6.303  0.2618  0.0536 -0.0632
  148MOL   C26344657   0.690   2.904   6.198 -0.1295 -0.9304  0.2345
  148MOL   N26444658   0.652   2.886   6.070  0.2454  0.2140 -0.4162
  148MOL   H26544659   0.665   2.797   5.693  2.5883  0.2299 -0.7208
  148MOL   H26644660   0.752   2.869   5.821  0.5781 -0.3149  0.2056
  148MOL   H26744661   0.565   2.630   5.882  0.1230  0.1307 -1.9915
  148MOL   H26844662   0.528   2.569   6.108 -0.2293  0.2559  0.5324
  148MOL   H26944663   0.606   2.603   6.333  2.1021  0.7109  1.3313
  148MOL   H27044664   0.694   2.827   6.407 -0.1089  2.4354 -0.3688
  148MOL   H27144665   0.739   2.998   6.220 -0.1606 -0.9574  0.4189
  148MOL   C27244666   0.439   2.804   5.853  0.5193 -0.0967 -0.2603
  148MOL   C27344667   0.378   2.780   5.712  0.5981  0.6205  0.5693
  148MOL   C27444668   0.338   2.636   5.685  0.1934 -1.0674 -0.1397
  148MOL   C27544669   0.210   2.580   5.692  0.3984  0.1117  0.4782
  148MOL   C27644670   0.190   2.445   5.668 -0.0261 -0.0252  0.4150
  148MOL   C27744671   0.305   2.370   5.627 -0.2819 -0.3716 -0.0937
  148MOL   C27844672   0.431   2.430   5.622 -0.7162  0.0318  0.7784
  148MOL   N27944673   0.452   2.561   5.653  0.1456 -0.2844 -0.8706
  148MOL   H28044674   0.442   2.910   5.880  1.3946 -0.0428 -0.5374
  148MOL   H28144675   0.366   2.765   5.924  1.0238  1.9098  1.4385
  148MOL   H28244676   0.455   2.819   5.646  1.3199  0.3533  1.2370
  148MOL   H28344677   0.134   2.639   5.742  0.4667  1.3249 -0.8042
  148MOL   H28444678   0.092   2.399   5.676 -1.0593  2.0480  0.1322
  148MOL   H28544679   0.306   2.265   5.600  1.5545 -0.4692  0.2721
  148MOL   H28644680   0.523   2.386   5.587 -1.9121 -2.8550  1.1348
  148MOL   C28744681   0.250   2.868   5.694 -0.6365  0.1995  0.8671
  148MOL   C28844682   0.278   3.020   5.669 -0.1477  0.8530 -0.1558
  148MOL   C28944683   0.152   3.100   5.645  0.0328  0.3829 -0.2394
  148MOL   C29044684   0.083   3.164   5.747 -0.2845  0.3283  0.3968
  148MOL   C29144685   8.118   3.238   5.716 -0.2002 -0.8363  0.0825
  148MOL   C29244686   8.074   3.236   5.582  0.8167  0.1143 -1.0430
  148MOL   C29344687   8.148   3.162   5.485 -0.3439  0.5476 -0.6728
  148MOL   N29444688   0.112   3.102   5.517 -0.0566  0.0547 -0.8854
  148MOL   H29544689   0.191   2.851   5.784 -1.6981  0.1331  0.1693
  148MOL   H29644690   0.186   2.822   5.619 -1.0084  0.3650  1.0808
  148MOL   H29744691   0.343   3.039   5.584 -2.0448 -0.7091 -1.9905
  148MOL   H29844692   0.116   3.142   5.848  0.0255 -2.8796 -0.3699
  148MOL   H29944693   8.079   3.304   5.792  0.9508 -1.1966  1.0043
  148MOL   H30044694   7.982   3.288   5.559  1.1256  0.2234 -2.0517
  148MOL   H30144695   8.127   3.150   5.380 -0.0225  1.3310 -0.8313
  148MOL   H30244696   0.335   3.050   5.757  1.2995 -3.0804  0.3523
  149MOL     C144697   1.719   1.325   2.120  0.0649 -0.0212  0.0941
  149MOL     C244698   1.855   1.409   2.130  0.2985  0.2800 -0.4794
  149MOL     C344699   1.971   1.308   2.132  0.3042 -0.6818  0.1647
  149MOL     C444700   1.973   1.198   2.041  0.6303  0.5425 -0.0657
  149MOL     C544701   2.087   1.114   2.048 -0.2979  0.1968 -0.6163
  149MOL     C644702   2.169   1.115   2.160  0.0599 -0.4292  0.0554
  149MOL     C744703   2.152   1.219   2.250  0.0098 -0.3114 -0.0818
  149MOL     N844704   2.056   1.316   2.233  0.1607  0.7903 -0.1721
  149MOL     H944705   1.720   1.247   2.044 -1.9132  1.3393 -1.3858
  149MOL    H1044706   1.703   1.271   2.213  2.2324 -0.3229  0.3199
  149MOL    H1144707   1.863   1.462   2.224  3.3166 -0.8863 -0.0038
  149MOL    H1244708   1.897   1.180   1.966  1.0457 -0.6808 -0.2035
  149MOL    H1344709   2.105   1.033   1.980  0.9489  1.0466 -1.3146
  149MOL    H1444710   2.236   1.034   2.182  0.5598 -0.0590 -0.0972
  149MOL    H1544711   2.207   1.224   2.343 -0.4409 -0.8755  0.2200
  149MOL    H1644712   1.639   1.391   2.085  0.3830 -0.4967 -1.5989
  149MOL    C1744713   1.852   1.511   2.017 -0.4593  0.3357  0.4310
  149MOL    C1844714   1.980   1.603   2.009 -0.3608  0.0430  0.2601
  149MOL    C1944715   2.090   1.539   1.925 -0.2943 -0.5159 -0.1292
  149MOL    C2044716   2.226   1.513   1.972 -0.0071 -0.4301  0.6725
  149MOL    C2144717   2.320   1.444   1.890 -0.2096 -0.3071 -0.1318
  149MOL    C2244718   2.268   1.399   1.769  0.3885 -0.3668  0.3538
  149MOL    C2344719   2.138   1.426   1.730  0.3245  0.0367 -1.2630
  149MOL    N2444720   2.051   1.500   1.801  0.6909 -0.0105 -0.9628
  149MOL    H2544721   1.760   1.569   2.030 -0.7936 -0.5124  2.0265
  149MOL    H2644722   1.834   1.458   1.924 -0.4615  1.1608 -0.0408
  149MOL    H2744723   2.011   1.605   2.114  0.9978 -0.6055 -0.1325
  149MOL    H2844724   2.259   1.555   2.066  0.4713  1.0205 -0.1322
  149MOL    H2944725   2.420   1.424   1.925 -0.5419  0.1387  1.1056
  149MOL    H3044726   2.328   1.344   1.697  0.0899 -0.3135  0.0625
  149MOL    H3144727   2.096   1.398   1.634 -1.2100  2.6398 -1.4017
  149MOL    C3244728   1.954   1.751   1.966  0.2347 -0.0040  0.5958
  149MOL    C3344729   1.855   1.838   2.050  1.0766 -0.0518  0.0891
  149MOL    C3444730   1.862   1.811   2.202  0.2635 -0.3358 -0.0193
  149MOL    C3544731   1.756   1.752   2.267 -0.9345 -0.0459 -0.0939
  149MOL    C3644732   1.764   1.722   2.408  0.2684  0.1933  0.8234
  149MOL    C3744733   1.888   1.765   2.467 -0.0543  0.5329 -0.4404
  149MOL    C3844734   1.980   1.840   2.398  0.7191 -0.1595  0.7109
  149MOL    N3944735   1.976   1.854   2.264  0.4228  0.1115  0.4888
  149MOL    H4044736   1.920   1.767   1.863 -0.0110 -1.4600  0.4372
  149MOL    H4144737   2.050   1.800   1.970  0.1241  0.0738  3.0808
  149MOL    H4244738   1.752   1.819   2.021  0.9739  1.3606 -0.4890
  149MOL    H4344739   1.679   1.699   2.213  1.2644 -2.4000 -0.9865
  149MOL    H4444740   1.699   1.657   2.465 -2.3040  2.0269  0.0624
  149MOL    H4544741   1.912   1.746   2.570 -0.8085  0.5832 -0.2534
  149MOL    H4644742   2.064   1.879   2.454  0.2126  0.2388  1.2151
  149MOL    C4744743   1.867   1.986   2.022 -0.0272 -0.1118  0.0608
  149MOL    C4844744   1.849   2.040   1.875  0.0892  0.0982 -0.5583
  149MOL    C4944745   1.727   2.000   1.801  0.3225 -0.7785  0.2525
  149MOL    C5044746   1.725   1.904   1.704  0.2927 -0.0310  0.6430
  149MOL    C5144747   1.612   1.862   1.632 -0.1031  1.0883 -0.6168
  149MOL    C5244748   1.493   1.934   1.658  1.1196  0.3265  0.1828
  149MOL    C5344749   1.494   2.026   1.761 -0.7333 -0.4613 -0.1487
  149MOL    N5444750   1.604   2.053   1.834 -0.6149 -0.6886  0.3253
  149MOL    H5544751   1.952   2.037   2.067  0.0192 -1.4027  1.4851
  149MOL    H5644752   1.792   2.030   2.088  0.3151  1.1064 -0.3543
  149MOL    H5744753   1.934   2.000   1.820 -0.7195 -0.2518 -1.5801
  149MOL    H5844754   1.813   1.846   1.683 -1.5342 -1.8825 -2.1666
  149MOL    H5944755   1.607   1.789   1.553 -1.2625 -0.2899  0.7017
  149MOL    H6044756   1.404   1.908   1.603  1.2857  1.3037 -0.5714
  149MOL    H6144757   1.409   2.092   1.774 -0.2946 -0.3700  2.5446
  149MOL    C6244758   1.854   2.201   1.872  0.5400  0.2627  0.5728
  149MOL    C6344759   1.995   2.269   1.893  0.2407  0.0793 -0.7197
  149MOL    C6444760   2.103   2.190   1.824 -0.3747 -0.1069  0.4089
  149MOL    C6544761   2.211   2.132   1.892  0.0606  0.2600 -0.6371
  149MOL    C6644762   2.318   2.068   1.820 -0.8735 -0.0708  0.4386
  149MOL    C6744763   2.299   2.062   1.686 -0.3636  0.3765  0.5878
  149MOL    C6844764   2.189   2.116   1.623  0.7666 -0.2412 -0.4809
  149MOL    N6944765   2.094   2.183   1.690 -0.5006 -0.1454 -0.2094
  149MOL    H7044766   1.781   2.251   1.935  2.2305  1.3583  1.7331
  149MOL    H7144767   1.831   2.231   1.770  3.3366 -1.2807 -0.5779
  149MOL    H7244768   1.996   2.266   2.002  0.2229  4.1990 -0.5365
  149MOL    H7344769   2.210   2.145   1.999 -1.3474 -3.3706 -0.1260
  149MOL    H7444770   2.401   2.019   1.869 -1.8194 -4.1195 -1.7575
  149MOL    H7544771   2.364   2.000   1.625 -0.9715 -0.9991  1.3425
  149MOL    H7644772   2.175   2.100   1.517 -1.9769  4.6254 -0.9920
  149MOL    C7744773   1.999   2.422   1.868  0.8651 -0.0981  0.8493
  149MOL    C7844774   2.137   2.496   1.876  0.2208 -0.1102  0.2184
  149MOL    C7944775   2.136   2.642   1.819 -0.0313  0.2754 -0.7863
  149MOL    C8044776   2.212   2.689   1.716  0.2200  0.3851  0.0671
  149MOL    C8144777   2.197   2.820   1.666  0.6675 -0.7242 -0.3867
  149MOL    C8244778   2.102   2.902   1.736  0.4227 -0.0520 -0.3971
  149MOL    C8344779   2.023   2.839   1.834  0.4197  0.2086 -0.3236
  149MOL    N8444780   2.039   2.716   1.873 -0.0668  0.3301 -0.0099
  149MOL    H8544781   1.928   2.466   1.938 -2.2080 -2.6757 -0.5542
  149MOL    H8644782   1.960   2.447   1.769  1.3465 -1.3262  0.3339
  149MOL    H8744783   2.198   2.434   1.810 -1.0480 -0.5181 -0.6025
  149MOL    H8844784   2.281   2.622   1.668  1.4834 -0.3847  2.8560
  149MOL    H8944785   2.261   2.854   1.586  0.5790  3.5863  1.2045
  149MOL    H9044786   2.096   3.007   1.714 -0.2566 -0.1559 -0.7228
  149MOL    H9144787   1.957   2.897   1.897 -0.5441  0.2049 -1.3051
  149MOL    C9244788   2.208   2.477   2.016  0.4065 -0.2266  0.1127
  149MOL    C9344789   2.356   2.511   2.018  0.4823 -0.2169  0.4923
  149MOL    C9444790   2.382   2.575   2.158 -0.2037  0.0447  0.4173
  149MOL    C9544791   2.392   2.713   2.160  0.1925 -0.3274 -0.0218
  149MOL    C9644792   2.416   2.773   2.285 -0.7094 -0.5217 -0.3425
  149MOL    C9744793   2.429   2.696   2.401 -1.0146  0.5726  0.5743
  149MOL    C9844794   2.426   2.561   2.390 -0.2641 -0.4935  0.2722
  149MOL    N9944795   2.392   2.503   2.269  0.8925 -0.0326 -0.2340
  149MOL   H10044796   2.191   2.376   2.052  1.2958 -0.6638 -0.6722
  149MOL   H10144797   2.146   2.526   2.092  0.6873 -1.1871  0.9731
  149MOL   H10244798   2.374   2.579   1.934  0.8428 -2.3644 -1.2298
  149MOL   H10344799   2.382   2.784   2.079  0.8039 -2.2443 -1.8403
  149MOL   H10444800   2.409   2.879   2.307  1.4713 -0.5329  0.5134
  149MOL   H10544801   2.449   2.739   2.498 -4.8979 -0.3118  1.8808
  149MOL   H10644802   2.440   2.490   2.470  0.3348 -0.7395 -0.0517
  149MOL   C10744803   2.447   2.384   1.996  0.5268  0.5803  0.0925
  149MOL   C10844804   2.604   2.408   1.996  0.4135 -0.4595  0.4077
  149MOL   C10944805   2.673   2.303   2.077 -0.0797  0.6667 -0.7124
  149MOL   C11044806   2.736   2.339   2.196  0.2516  0.0421  0.0917
  149MOL   C11144807   2.820   2.254   2.264  0.6226  0.1412  0.1067
  149MOL   C11244808   2.832   2.119   2.220 -0.3689 -0.6466 -0.6202
  149MOL   C11344809   2.765   2.089   2.103 -0.4425  0.4527  0.4120
  149MOL   N11444810   2.690   2.176   2.032  0.4082 -0.1250 -0.1364
  149MOL   H11544811   2.407   2.333   1.909  0.0907  0.2101  0.5065
  149MOL   H11644812   2.424   2.309   2.071 -0.1639 -0.7538 -1.4344
  149MOL   H11744813   2.616   2.504   2.045 -0.6762  0.0428 -0.2644
  149MOL   H11844814   2.723   2.439   2.234 -1.3332  0.1269 -0.6284
  149MOL   H11944815   2.865   2.295   2.353  0.2395 -0.1938  0.4521
  149MOL   H12044816   2.882   2.039   2.272 -0.6930  0.0889  0.8655
  149MOL   H12144817   2.790   1.994   2.057 -0.0167  0.2918  0.9733
  149MOL   C12244818   2.656   2.406   1.851  0.4896 -0.2799 -0.0274
  149MOL   C12344819   2.618   2.535   1.770  0.0104  0.6327 -0.1841
  149MOL   C12444820   2.648   2.663   1.846  0.5413 -0.2466 -0.4304
  149MOL   C12544821   2.556   2.764   1.867 -0.1944 -0.5025 -0.5094
  149MOL   C12644822   2.591   2.871   1.951 -0.5371  0.5708 -0.0265
  149MOL   C12744823   2.714   2.873   2.012 -0.4051  0.0050 -0.0462
  149MOL   C12844824   2.808   2.771   1.990  0.1375 -0.0463  0.9857
  149MOL   N12944825   2.770   2.662   1.911  0.0956  0.2158 -0.1750
  149MOL   H13044826   2.628   2.313   1.803  1.3288  1.2017 -3.5335
  149MOL   H13144827   2.763   2.389   1.858  0.5452 -1.0390 -2.3441
  149MOL   H13244828   2.510   2.540   1.758 -0.4293 -1.1656  2.4367
  149MOL   H13344829   2.458   2.775   1.824 -0.7878 -0.0838  0.9110
  149MOL   H13444830   2.526   2.957   1.961 -0.6633  0.3387  1.2800
  149MOL   H13544831   2.739   2.953   2.080 -2.6342  0.9360 -0.2787
  149MOL   H13644832   2.906   2.771   2.036  0.5156 -1.9942  0.2471
  149MOL   C13744833   2.671   2.536   1.628  0.8517 -0.5752 -1.4744
  149MOL   C13844834   2.599   2.444   1.532  0.6751 -0.2837 -0.3258
  149MOL   C13944835   2.467   2.501   1.488 -0.5201 -0.1206  0.2684
  149MOL   C14044836   2.355   2.418   1.499 -0.2232 -0.0798  0.3398
  149MOL   C14144837   2.235   2.468   1.450  0.1607  0.5372 -0.1601
  149MOL   C14244838   2.227   2.599   1.408 -0.4331 -0.4996 -0.1131
  149MOL   C14344839   2.345   2.673   1.408 -0.0983 -0.8980 -0.7756
  149MOL   N14444840   2.465   2.627   1.444  0.1530  0.5323  0.7227
  149MOL   H14544841   2.776   2.513   1.641  1.2568  1.3475 -1.1676
  149MOL   H14644842   2.661   2.640   1.594 -0.0116  0.6215  2.2317
  149MOL   H14744843   2.576   2.352   1.587  0.1462  0.2483  0.3450
  149MOL   H14844844   2.364   2.317   1.536  2.5234 -0.0330 -0.1353
  149MOL   H14944845   2.147   2.406   1.459  1.3940 -1.1907  0.1935
  149MOL   H15044846   2.133   2.641   1.376 -1.7882 -3.2611  0.1674
  149MOL   H15144847   2.348   2.775   1.374 -0.6273 -0.5086  0.3124
  149MOL   C15244848   2.691   2.386   1.419  0.6388 -0.7141  0.0999
  149MOL   C15344849   2.630   2.257   1.348  0.6684 -0.6209  0.4535
  149MOL   C15444850   2.532   2.290   1.232 -0.5154  0.6804  0.0344
  149MOL   C15544851   2.558   2.377   1.126  0.1278  0.3110  0.4948
  149MOL   C15644852   2.468   2.384   1.016  1.5199  0.4984 -0.1412
  149MOL   C15744853   2.350   2.311   1.024 -0.0138  0.2587 -0.0491
  149MOL   C15844854   2.321   2.236   1.141  0.0150 -0.6026  0.1374
  149MOL   N15944855   2.417   2.214   1.234  0.1985  0.0761 -0.2181
  149MOL   H16044856   2.782   2.348   1.466  1.1852 -0.1188 -0.4737
  149MOL   H16144857   2.733   2.457   1.348  0.4965  0.4565  1.1698
  149MOL   H16244858   2.582   2.189   1.418 -1.8439  2.6478  2.0409
  149MOL   H16344859   2.649   2.435   1.131  0.9514 -0.8833 -0.5972
  149MOL   H16444860   2.480   2.445   0.928  0.3070  1.7436  0.5282
  149MOL   H16544861   2.275   2.334   0.950  0.0913  0.5159 -0.0770
  149MOL   H16644862   2.234   2.176   1.162 -2.6210  1.5256 -3.9203
  149MOL   C16744863   2.752   2.176   1.289  0.4739  0.5103 -0.2946
  149MOL   C16844864   2.710   2.027   1.267 -0.2916 -0.7731  0.8620
  149MOL   C16944865   2.788   1.955   1.155  0.1403 -0.6355  0.7902
  149MOL   C17044866   2.733   1.921   1.030 -0.1695 -0.6015 -0.1312
  149MOL   C17144867   2.809   1.847   0.943 -0.2707 -0.2452  0.2782
  149MOL   C17244868   2.945   1.827   0.973 -0.6461  0.5691 -0.7174
  149MOL   C17344869   3.003   1.877   1.092  0.3468 -0.1335  0.2027
  149MOL   N17444870   2.920   1.931   1.188 -0.0358  0.5389  0.3626
  149MOL   H17544871   2.838   2.176   1.356 -0.0112  0.4957  0.3432
  149MOL   H17644872   2.782   2.226   1.198  0.7267  0.3673 -0.2890
  149MOL   H17744873   2.608   2.033   1.230  0.5922 -2.3495 -2.0303
  149MOL   H17844874   2.628   1.942   1.016  0.0956  1.5760  0.9843
  149MOL   H17944875   2.775   1.805   0.849 -1.7309 -2.5104  1.7855
  149MOL   H18044876   3.013   1.774   0.908 -0.5717 -0.6198  0.3053
  149MOL   H18144877   3.104   1.856   1.123  0.2129  0.4253  1.0511
  149MOL   C18244878   2.705   1.939   1.400 -0.0313  0.3895 -0.5395
  149MOL   C18344879   2.613   1.813   1.398 -0.0845 -0.0658  0.7865
  149MOL   C18444880   2.616   1.741   1.533 -0.1825  0.0586 -0.1708
  149MOL   C18544881   2.677   1.614   1.549  0.0207  0.7873 -0.0460
  149MOL   C18644882   2.680   1.555   1.677  0.3642 -0.3152  0.3435
  149MOL   C18744883   2.624   1.622   1.788 -0.8634 -0.3480  1.1589
  149MOL   C18844884   2.571   1.753   1.766  0.4845 -0.1962  0.3325
  149MOL   N18944885   2.563   1.805   1.639 -0.2993 -0.9509  0.0916
  149MOL   H19044886   2.705   2.011   1.482  1.1155  1.7439 -1.6905
  149MOL   H19144887   2.806   1.900   1.411  0.0743  1.1402  1.2626
  149MOL   H19244888   2.652   1.740   1.327 -2.4207  0.8632 -1.5221
  149MOL   H19344889   2.740   1.570   1.474  1.2783  1.4935  0.5797
  149MOL   H19444890   2.739   1.467   1.696  2.0503  0.3193 -1.6487
  149MOL   H19544891   2.622   1.582   1.888 -0.4158 -0.7097  1.0184
  149MOL   H19644892   2.521   1.807   1.845 -0.8757  1.1836 -1.4380
  149MOL   C19744893   2.470   1.843   1.352 -0.2467  0.5925  0.4471
  149MOL   C19844894   2.381   1.724   1.353 -1.1689 -0.2447 -0.8646
  149MOL   C19944895   2.237   1.768   1.371 -0.6302 -0.3849 -0.0831
  149MOL   C20044896   2.175   1.754   1.495  0.3212 -0.4147 -0.3929
  149MOL   C20144897   2.035   1.796   1.497  0.2776  0.3097  0.0965
  149MOL   C20244898   1.979   1.859   1.385 -0.6678  0.5496  0.2535
  149MOL   C20344899   2.054   1.860   1.270 -0.2710 -0.6678  0.0502
  149MOL   N20444900   2.177   1.814   1.258 -0.0512 -0.7991 -0.2667
  149MOL   H20544901   2.477   1.876   1.248 -0.2520 -0.4206  0.1193
  149MOL   H20644902   2.434   1.927   1.411 -0.8139  1.3409 -0.9585
  149MOL   H20744903   2.403   1.655   1.434  0.6289 -1.2592 -2.1774
  149MOL   H20844904   2.229   1.717   1.581 -1.4199 -2.5042 -0.1695
  149MOL   H20944905   1.978   1.793   1.588 -2.6815 -0.1369 -1.7079
  149MOL   H21044906   1.882   1.905   1.372 -1.0541 -0.2874  0.1927
  149MOL   H21144907   2.011   1.895   1.177 -0.8299 -0.1111  0.5186
  149MOL   C21244908   2.401   1.628   1.232  0.3620 -0.4633 -0.3933
  149MOL   C21344909   2.313   1.503   1.236 -0.0510 -0.8352 -0.1488
  149MOL   C21444910   2.313   1.450   1.091  0.2155 -0.0332 -0.0013
  149MOL   C21544911   2.208   1.480   0.997 -0.4148 -0.5507  0.5814
  149MOL   C21644912   2.230   1.449   0.865 -0.2552 -0.0217  0.1716
  149MOL   C21744913   2.357   1.395   0.827  0.0492  0.9509  0.4113
  149MOL   C21844914   2.450   1.366   0.925 -0.4716  0.3471  0.7482
  149MOL   N21944915   2.424   1.388   1.055  0.4378 -0.6894 -0.2801
  149MOL   H22044916   2.505   1.595   1.228  0.6253 -0.0324  2.3252
  149MOL   H22144917   2.381   1.687   1.143  0.3105  1.8806  1.1225
  149MOL   H22244918   2.213   1.532   1.267  0.1113 -0.8736  0.4060
  149MOL   H22344919   2.120   1.526   1.039 -0.8777 -0.8017 -0.1183
  149MOL   H22444920   2.155   1.464   0.789  0.1630 -3.1202 -0.8930
  149MOL   H22544921   2.378   1.361   0.727 -0.1817 -0.0195  0.6774
  149MOL   H22644922   2.554   1.342   0.912 -1.0211 -1.5581 -0.2191
  149MOL   C22744923   2.365   1.388   1.334  0.3352 -0.2221  0.0179
  149MOL   C22844924   2.306   1.250   1.317  0.1602 -0.1363 -0.3506
  149MOL   C22944925   2.394   1.137   1.364  0.1657  0.3485 -0.0292
  149MOL   C23044926   2.442   1.043   1.266 -0.3174  0.0774  0.4424
  149MOL   C23144927   2.528   0.939   1.307 -0.8223 -0.0083 -0.3487
  149MOL   C23244928   2.555   0.936   1.451 -0.8434 -0.5057  0.2923
  149MOL   C23344929   2.499   1.032   1.538  0.5829  0.2788 -0.6237
  149MOL   N23444930   2.420   1.133   1.498  0.0927 -0.8297  0.7953
  149MOL   H23544931   2.366   1.417   1.439  1.1717 -0.6585  0.1384
  149MOL   H23644932   2.473   1.377   1.321  0.2253 -1.5463  0.2246
  149MOL   H23744933   2.299   1.224   1.211  0.8491 -0.1604 -0.3949
  149MOL   H23844934   2.429   1.061   1.161 -0.1356  1.1907  0.6010
  149MOL   H23944935   2.584   0.869   1.247 -0.3997  2.0775 -2.4974
  149MOL   H24044936   2.627   0.868   1.496 -0.3080 -1.0660 -1.3608
  149MOL   H24144937   2.540   1.042   1.637  0.8632 -3.1668 -0.3261
  149MOL   C24244938   2.155   1.243   1.359  0.4085 -0.5800 -0.0913
  149MOL   C24344939   2.080   1.112   1.316 -0.1902  0.1304  0.8832
  149MOL   C24444940   2.025   1.045   1.442 -0.1459 -0.0081  0.2338
  149MOL   C24544941   2.072   0.917   1.480 -0.2215 -0.5243  0.0277
  149MOL   C24644942   2.002   0.857   1.583  0.7600 -0.0530 -0.0229
  149MOL   C24744943   1.900   0.918   1.656  0.5660  0.1535 -0.5156
  149MOL   C24844944   1.871   1.054   1.622 -0.7468 -0.3640 -0.0090
  149MOL   N24944945   1.922   1.109   1.508 -0.2341 -0.4823  0.0443
  149MOL   H25044946   2.101   1.333   1.328  0.5585  0.2546  2.0361
  149MOL   H25144947   2.157   1.249   1.467  0.5457 -1.7597 -0.0159
  149MOL   H25244948   2.154   1.041   1.278  0.2940  2.1328 -2.0546
  149MOL   H25344949   2.141   0.862   1.418  3.1411  1.2349  2.1237
  149MOL   H25444950   2.026   0.759   1.622 -2.7617 -0.1388  2.1492
  149MOL   H25544951   1.857   0.871   1.744  0.9673 -2.5358 -1.6987
  149MOL   H25644952   1.799   1.110   1.680 -1.9257 -3.5651  1.7577
  149MOL   C25744953   1.970   1.127   1.208  0.4108 -0.2810 -0.2975
  149MOL   C25844954   2.013   1.127   1.053  0.0932 -0.0189  0.2547
  149MOL   C25944955   2.121   1.021   1.026  0.0628  0.0266  0.1912
  149MOL   C26044956   2.247   1.069   0.976 -0.0279 -0.1988  0.2089
  149MOL   C26144957   2.347   0.981   0.945  0.4852  0.4374  0.1529
  149MOL   C26244958   2.326   0.839   0.960 -0.4167 -0.2165 -0.5057
  149MOL   C26344959   2.202   0.805   1.014 -0.1744  0.2964  0.1247
  149MOL   N26444960   2.095   0.888   1.041 -1.1004 -0.1145 -0.7629
  149MOL   H26544961   1.912   1.218   1.222  0.2561 -0.6948  1.8625
  149MOL   H26644962   1.896   1.049   1.224  0.0238  0.1432 -0.0442
  149MOL   H26744963   2.058   1.225   1.034 -2.3992  0.9998 -0.6304
  149MOL   H26844964   2.254   1.174   0.952 -1.2587 -0.4715 -1.4397
  149MOL   H26944965   2.435   1.020   0.897  1.9105 -1.6904  0.9819
  149MOL   H27044966   2.388   0.759   0.924 -0.4522  0.2569 -1.6407
  149MOL   H27144967   2.160   0.706   1.012 -0.2407  0.2946  1.2636
  149MOL   C27244968   1.887   1.123   0.960  0.4798  0.4678  0.1530
  149MOL   C27344969   1.909   1.103   0.807  0.1550  0.3537 -0.0850
  149MOL   C27444970   1.776   1.070   0.736  0.2703  0.4115 -0.3731
  149MOL   C27544971   1.727   0.945   0.727  0.2888 -0.1525 -0.8568
  149MOL   C27644972   1.606   0.919   0.653 -0.2928 -0.5716 -0.3739
  149MOL   C27744973   1.535   1.029   0.606  0.3476  0.1350  0.6724
  149MOL   C27844974   1.591   1.156   0.626  0.7961  0.4253 -0.5387
  149MOL   N27944975   1.711   1.179   0.687 -0.4356  0.5856  0.3405
  149MOL   H28044976   1.837   1.218   0.974 -3.6393 -1.2842 -1.7177
  149MOL   H28144977   1.812   1.054   1.000 -0.0971  0.9319 -0.1205
  149MOL   H28244978   1.968   1.012   0.802  0.2520  0.3635  0.7628
  149MOL   H28344979   1.778   0.858   0.768 -0.5462 -0.5812 -0.7303
  149MOL   H28444980   1.563   0.820   0.655 -0.5046 -0.4749 -0.0663
  149MOL   H28544981   1.439   1.016   0.558  0.7342 -1.0166  0.1959
  149MOL   H28644982   1.531   1.240   0.594  0.0614 -0.0011 -0.3166
  149MOL   C28744983   1.994   1.211   0.734  0.8848 -0.0605  0.1102
  149MOL   C28844984   2.034   1.189   0.584  0.1930 -0.4616  0.2704
  149MOL   C28944985   2.138   1.287   0.521  0.5186  0.8258  0.0377
  149MOL   C29044986   2.268   1.244   0.482  0.5890 -0.0310 -0.1147
  149MOL   C29144987   2.351   1.344   0.428  0.5366 -0.8093  0.2235
  149MOL   C29244988   2.324   1.476   0.458  0.8149  0.6317 -0.1529
  149MOL   C29344989   2.200   1.513   0.513 -0.4946  0.1360 -0.7835
  149MOL   N29444990   2.105   1.417   0.536 -0.2934 -0.9303  0.2536
  149MOL   H29544991   2.085   1.225   0.792 -0.1231 -0.0762  1.7193
  149MOL   H29644992   1.949   1.311   0.742  1.9683  0.3854  0.7001
  149MOL   H29744993   1.943   1.180   0.525  0.4421 -1.0196 -0.0328
  149MOL   H29844994   2.293   1.139   0.486  0.4007 -0.0150  2.4981
  149MOL   H29944995   2.450   1.314   0.399  0.8080  0.0392  0.2519
  149MOL   H30044996   2.387   1.559   0.429  1.9129 -0.2786 -0.3965
  149MOL   H30144997   2.177   1.618   0.525  0.3031  0.1246  0.9737
  149MOL   H30244998   2.090   1.096   0.573  1.3764  0.1970  0.6420
  150MOL     C144999   1.704   7.134   5.500 -0.3157 -0.0675 -0.1955
  150MOL     C245000   1.615   7.094   5.617 -0.3182 -0.7069  0.0746
  150MOL     C345001   1.475   7.086   5.574 -0.1434 -0.0303  0.0803
  150MOL     C445002   1.368   7.142   5.648 -0.0394 -0.0890  0.6585
  150MOL     C545003   1.238   7.101   5.600 -0.4219  0.7400 -0.4390
  150MOL     C645004   1.218   7.008   5.495  0.5741  0.4362 -0.3332
  150MOL     C745005   1.335   6.977   5.427 -0.1711  0.6269 -0.3349
  150MOL     N845006   1.459   7.007   5.464  0.8832 -0.9615  0.1779
  150MOL     H945007   1.710   7.050   5.430 -2.0308 -1.2996  1.0940
  150MOL    H1045008   1.661   7.218   5.445 -0.6479 -1.1042 -1.5465
  150MOL    H1145009   1.628   7.174   5.691  1.0804  0.0649 -0.9784
  150MOL    H1245010   1.395   7.211   5.727  0.2042  0.3688  0.1840
  150MOL    H1345011   1.150   7.136   5.652 -0.7831  1.4849 -1.5489
  150MOL    H1445012   1.117   6.978   5.470  0.6437 -1.3979  1.4488
  150MOL    H1545013   1.330   6.906   5.346 -0.4693 -0.4355  0.6010
  150MOL    H1645014   1.805   7.165   5.528  0.1994 -0.9244 -1.0374
  150MOL    C1745015   1.651   6.961   5.695  0.2721  0.0399  0.0823
  150MOL    C1845016   1.789   6.964   5.763 -0.2825  0.2713 -0.3539
  150MOL    C1945017   1.796   7.075   5.867  0.3747  0.1703  0.4368
  150MOL    C2045018   1.878   7.194   5.852 -0.3931 -0.1768  0.8564
  150MOL    C2145019   1.862   7.296   5.948 -0.0798  0.5702 -0.5831
  150MOL    C2245020   1.777   7.276   6.055  0.1505  0.5501  0.3222
  150MOL    C2345021   1.704   7.157   6.064  0.3124  0.7028 -0.2770
  150MOL    N2445022   1.706   7.065   5.965  0.5245  0.2190 -0.2122
  150MOL    H2545023   1.644   6.878   5.624 -0.5013  0.8737 -0.8148
  150MOL    H2645024   1.576   6.945   5.772  1.4748 -2.6421  0.7813
  150MOL    H2745025   1.861   6.990   5.686 -0.6404  2.4214  0.0177
  150MOL    H2845026   1.949   7.216   5.774 -1.8549  0.8401 -0.2089
  150MOL    H2945027   1.939   7.372   5.952 -0.4558  0.8403  2.1169
  150MOL    H3045028   1.784   7.352   6.132  2.4533 -0.0955  0.7974
  150MOL    H3145029   1.642   7.138   6.151  0.6239  0.9721  0.0095
  150MOL    C3245030   1.829   6.825   5.818  0.2618 -0.3669  0.2587
  150MOL    C3345031   1.977   6.784   5.774 -0.4213 -0.6111  0.9653
  150MOL    C3445032   2.091   6.865   5.836  0.0893 -0.1669  0.5128
  150MOL    C3545033   2.085   6.915   5.971  0.2120  0.3364 -0.0847
  150MOL    C3645034   2.187   6.990   6.017 -0.2364  0.1496 -0.3170
  150MOL    C3745035   2.285   7.034   5.929  0.3704 -0.5329  0.2224
  150MOL    C3845036   2.299   6.967   5.803 -0.3740 -0.1240 -0.3526
  150MOL    N3945037   2.198   6.897   5.751 -0.6099 -0.4749  0.0354
  150MOL    H4045038   1.757   6.753   5.778  0.0818 -0.5328  0.8788
  150MOL    H4145039   1.805   6.813   5.923 -2.3864  2.3169  0.0325
  150MOL    H4245040   1.996   6.803   5.668 -1.5971 -0.4475  0.7854
  150MOL    H4345041   2.001   6.889   6.033  0.6056  1.8601  1.1186
  150MOL    H4445042   2.189   7.037   6.114  2.0926  0.9419 -0.6995
  150MOL    H4545043   2.357   7.100   5.975 -2.2210  0.3296  3.2275
  150MOL    H4645044   2.371   7.001   5.729 -1.1625  0.7280 -0.7476
  150MOL    C4745045   2.012   6.635   5.783  0.0198 -0.3157 -0.7835
  150MOL    C4845046   1.919   6.539   5.709 -0.0537 -0.1884 -0.1570
  150MOL    C4945047   1.893   6.589   5.569 -0.6599 -0.8296  0.0573
  150MOL    C5045048   1.762   6.611   5.522  0.1214 -0.0777 -0.1492
  150MOL    C5145049   1.735   6.664   5.395  0.3150 -0.2989  0.2837
  150MOL    C5245050   1.846   6.694   5.312 -0.7030 -0.2478  0.2611
  150MOL    C5345051   1.973   6.665   5.367  0.3665  0.1576 -0.2222
  150MOL    N5445052   1.998   6.618   5.493  0.1468  0.0502  1.1643
  150MOL    H5545053   2.016   6.601   5.886 -0.1868 -2.8440 -1.5649
  150MOL    H5645054   2.110   6.618   5.739  0.2698  2.1014 -1.2364
  150MOL    H5745055   1.820   6.550   5.752  1.1432  0.9262  2.4327
  150MOL    H5845056   1.688   6.591   5.599 -0.0275  0.3156 -0.1831
  150MOL    H5945057   1.639   6.705   5.366  1.6742  0.9804 -2.6406
  150MOL    H6045058   1.849   6.736   5.213  0.9714  2.1802  1.2834
  150MOL    H6145059   2.056   6.683   5.299  0.2066  1.4652 -0.0750
  150MOL    C6245060   1.979   6.397   5.708 -0.1958  0.1703 -0.1342
  150MOL    C6345061   1.954   6.312   5.839  0.1370 -0.4995 -0.0403
  150MOL    C6445062   1.818   6.353   5.900 -0.4626 -0.7435  0.8239
  150MOL    C6545063   1.696   6.354   5.826  0.6642  0.3484  0.3010
  150MOL    C6645064   1.581   6.389   5.896  0.2685 -0.3607  0.2352
  150MOL    C6745065   1.587   6.434   6.031  0.4037  0.1608  0.4769
  150MOL    C6845066   1.713   6.456   6.083 -0.0562  0.0405  0.0872
  150MOL    N6945067   1.826   6.422   6.020 -0.9670  0.4279 -0.1968
  150MOL    H7045068   2.085   6.416   5.698 -0.3460  0.7640 -0.6703
  150MOL    H7145069   1.956   6.348   5.614  2.5529  2.1354 -1.8921
  150MOL    H7245070   2.026   6.336   5.917  0.2819  0.5467 -0.4760
  150MOL    H7345071   1.685   6.321   5.723 -1.4388 -1.3151  1.0356
  150MOL    H7445072   1.483   6.401   5.852 -0.4746  0.3607  2.0393
  150MOL    H7545073   1.501   6.462   6.090  0.7117 -0.1606  1.0833
  150MOL    H7645074   1.713   6.493   6.184 -1.5675  1.6803 -0.4849
  150MOL    C7745075   1.956   6.159   5.823 -0.8363  0.2465  0.3924
  150MOL    C7845076   2.084   6.101   5.753 -0.7076  1.1218  0.4521
  150MOL    C7945077   2.204   6.106   5.837 -0.0993  0.3400 -0.0853
  150MOL    C8045078   2.323   6.173   5.794  0.4501  0.4526  0.2789
  150MOL    C8145079   2.443   6.164   5.867 -0.2265 -0.1158 -0.6626
  150MOL    C8245080   2.431   6.100   5.994  0.4349 -0.1402  0.6149
  150MOL    C8345081   2.310   6.052   6.037 -0.6402  0.4323 -0.0322
  150MOL    N8445082   2.196   6.047   5.961  0.2170  0.1998 -0.1222
  150MOL    H8545083   1.881   6.125   5.752 -0.2246 -2.0874  0.8171
  150MOL    H8645084   1.943   6.102   5.915  0.8223 -0.0117  0.4696
  150MOL    H8745085   2.108   6.164   5.667 -0.2049  1.2903  0.7153
  150MOL    H8845086   2.323   6.227   5.700 -2.5883  0.0273 -0.0188
  150MOL    H8945087   2.537   6.212   5.843  0.8486 -2.1865 -0.7114
  150MOL    H9045088   2.516   6.093   6.061 -0.0515 -0.4326  1.2063
  150MOL    H9145089   2.307   6.009   6.136  0.4258  1.2506  0.3628
  150MOL    C9245090   2.070   5.962   5.696 -0.1915 -0.0533  0.3312
  150MOL    C9345091   1.988   5.960   5.564  0.5236 -0.1846 -0.5416
  150MOL    C9445092   2.058   6.037   5.452  0.8714 -0.7085 -0.3514
  150MOL    C9545093   1.997   6.153   5.389  0.0923  0.4983 -0.1480
  150MOL    C9645094   2.080   6.241   5.313 -0.2335  0.6006 -0.5416
  150MOL    C9745095   2.210   6.192   5.294 -0.0562 -0.1023 -0.0299
  150MOL    C9845096   2.251   6.075   5.350 -0.0130  0.2171 -0.3765
  150MOL    N9945097   2.181   5.997   5.433 -0.2175 -0.3126  0.1374
  150MOL   H10045098   2.033   5.891   5.771 -2.6428 -0.2858 -1.0591
  150MOL   H10145099   2.164   5.912   5.673  0.4177  0.7288  1.0913
  150MOL   H10245100   1.889   6.004   5.581  0.0030 -1.7048  0.4407
  150MOL   H10345101   1.901   6.188   5.422  0.5907  0.0429  1.8799
  150MOL   H10445102   2.041   6.333   5.271 -1.5277  0.1126 -0.4408
  150MOL   H10545103   2.288   6.243   5.239 -0.8941  2.0284  0.7327
  150MOL   H10645104   2.353   6.044   5.333  0.2487  0.2524  1.0218
  150MOL   C10745105   1.943   5.824   5.516  1.3068  0.0872 -0.1286
  150MOL   C10845106   1.867   5.738   5.616 -0.0755  0.6120  0.5390
  150MOL   C10945107   1.753   5.820   5.664  0.7674  0.7878 -0.3716
  150MOL   C11045108   1.739   5.847   5.803 -0.8868 -0.4970 -0.3924
  150MOL   C11145109   1.634   5.929   5.844  0.1563 -0.2946 -0.2346
  150MOL   C11245110   1.533   5.961   5.747 -0.7488 -0.4787  0.3081
  150MOL   C11345111   1.562   5.938   5.611 -0.5118 -0.5146  0.4135
  150MOL   N11445112   1.675   5.876   5.573 -0.1945  0.1198 -0.3416
  150MOL   H11545113   2.032   5.767   5.487  0.5420 -0.3736 -1.6212
  150MOL   H11645114   1.886   5.840   5.424 -2.6395 -2.6441  1.7267
  150MOL   H11745115   1.937   5.732   5.700  0.4663  1.4931  0.1589
  150MOL   H11845116   1.813   5.808   5.871 -1.8546  1.9539  2.1592
  150MOL   H11945117   1.624   5.942   5.951 -0.2584  0.7977 -0.3981
  150MOL   H12045118   1.450   6.018   5.787 -0.3797  0.9127 -0.8304
  150MOL   H12145119   1.500   5.974   5.531  0.0305  1.7760  0.9753
  150MOL   C12245120   1.816   5.608   5.556 -0.0686  1.1557  0.0500
  150MOL   C12345121   1.910   5.515   5.470  0.2114 -0.1002 -0.3955
  150MOL   C12445122   2.042   5.494   5.537  0.2610  0.4387 -0.8871
  150MOL   C12545123   2.161   5.525   5.476  0.3180  0.2768  0.6648
  150MOL   C12645124   2.285   5.494   5.535  0.3306 -0.1374  0.4729
  150MOL   C12745125   2.282   5.428   5.659 -0.1784  0.0713 -0.2456
  150MOL   C12845126   2.153   5.400   5.721 -0.1462 -0.0377  0.3704
  150MOL   N12945127   2.036   5.438   5.661 -0.0261 -0.4294 -1.0719
  150MOL   H13045128   1.721   5.622   5.504 -0.1421  0.2080 -0.0693
  150MOL   H13145129   1.795   5.545   5.642 -0.7197  2.0371  0.5417
  150MOL   H13245130   1.944   5.572   5.384  1.5733  0.2404  0.3580
  150MOL   H13345131   2.165   5.576   5.381  1.4354 -1.7570 -0.4145
  150MOL   H13445132   2.373   5.515   5.476 -1.9437 -0.2965 -3.1519
  150MOL   H13545133   2.369   5.396   5.714  0.7179 -0.1836 -1.7939
  150MOL   H13645134   2.142   5.351   5.816 -0.4698  1.3396  1.0499
  150MOL   C13745135   1.850   5.382   5.422 -0.0404 -0.2210 -0.1146
  150MOL   C13845136   1.923   5.296   5.306 -0.3600 -0.4721 -0.8432
  150MOL   C13945137   1.928   5.151   5.351 -0.1102 -0.1493  0.1581
  150MOL   C14045138   2.044   5.098   5.397  0.5947 -0.0071  0.5592
  150MOL   C14145139   2.047   4.962   5.439  0.0989  0.0761  0.3929
  150MOL   C14245140   1.927   4.886   5.418  0.5261  0.0405 -0.7892
  150MOL   C14345141   1.816   4.956   5.374 -0.1349  0.2691 -0.7908
  150MOL   N14445142   1.818   5.082   5.342 -0.0906 -0.3081  0.2733
  150MOL   H14545143   1.751   5.403   5.383 -0.8960 -2.1253  0.9533
  150MOL   H14645144   1.822   5.315   5.503  2.2068 -1.0118  0.0596
  150MOL   H14745145   2.024   5.335   5.301 -1.0622  1.5289 -0.1254
  150MOL   H14845146   2.130   5.163   5.412 -1.9510  3.1639  1.9866
  150MOL   H14945147   2.141   4.921   5.471  0.8224 -0.1668 -1.9269
  150MOL   H15045148   1.922   4.781   5.443 -1.9926  0.2713 -0.1680
  150MOL   H15145149   1.728   4.906   5.336 -0.7749  1.1804 -0.5351
  150MOL   C15245150   1.877   5.308   5.160  0.4322 -0.4118  0.2609
  150MOL   C15345151   1.876   5.454   5.095 -0.2936  0.1008 -0.1592
  150MOL   C15445152   2.016   5.506   5.075  0.4121 -0.0468 -0.5102
  150MOL   C15545153   2.059   5.624   5.140 -0.2024 -0.4514 -0.9902
  150MOL   C15645154   2.184   5.673   5.103  0.2066 -0.2484  0.3859
  150MOL   C15745155   2.261   5.603   5.008  0.9409  0.1117 -0.3577
  150MOL   C15845156   2.218   5.480   4.959 -0.1327 -0.0431 -0.1472
  150MOL   N15945157   2.096   5.434   4.992 -0.2672  0.2718 -0.3868
  150MOL   H16045158   1.778   5.264   5.155 -0.2591  0.9265  1.8313
  150MOL   H16145159   1.937   5.241   5.098 -0.2650 -0.0634 -0.8184
  150MOL   H16245160   1.824   5.520   5.163  0.3590 -1.1737  1.6045
  150MOL   H16345161   1.999   5.681   5.210 -0.1952  1.2263 -2.3075
  150MOL   H16445162   2.217   5.765   5.149  0.1490 -0.0978  0.1269
  150MOL   H16545163   2.353   5.645   4.970  0.0784  2.3170 -0.0837
  150MOL   H16645164   2.272   5.421   4.887 -1.3106 -1.1061 -0.1846
  150MOL   C16745165   1.805   5.455   4.958  0.4735  0.5892  0.2642
  150MOL   C16845166   1.647   5.474   4.968  0.1297  0.6977  0.1441
  150MOL   C16945167   1.586   5.587   5.061 -0.0574  0.0871  0.4144
  150MOL   C17045168   1.542   5.714   5.018 -0.2567 -0.2935  0.4614
  150MOL   C17145169   1.510   5.812   5.113  0.4782  0.1858 -0.2053
  150MOL   C17245170   1.507   5.779   5.247  0.4993  0.8394 -0.4592
  150MOL   C17345171   1.550   5.651   5.282  0.0105 -0.9735 -0.1966
  150MOL   N17445172   1.598   5.560   5.195 -0.0238  0.9438 -0.7006
  150MOL   H17545173   1.833   5.373   4.891  0.4993  1.6908 -1.0962
  150MOL   H17645174   1.829   5.548   4.907 -2.2753  0.4885 -1.3270
  150MOL   H17745175   1.613   5.386   5.022 -2.2254  0.7228 -1.2237
  150MOL   H17845176   1.533   5.725   4.911  0.6227 -2.6702  0.1146
  150MOL   H17945177   1.460   5.903   5.084 -2.4367 -1.4345 -0.5458
  150MOL   H18045178   1.467   5.841   5.326  1.5791  1.1883 -0.1758
  150MOL   H18145179   1.544   5.618   5.385 -0.7196 -0.1131  0.0467
  150MOL   C18245180   1.584   5.477   4.821 -0.2603 -0.0212  0.6984
  150MOL   C18345181   1.600   5.350   4.724  0.9651  0.2221  0.7446
  150MOL   C18445182   1.599   5.222   4.809  0.3224  0.3597 -0.3548
  150MOL   C18545183   1.709   5.140   4.826 -0.5976  0.8895 -0.2691
  150MOL   C18645184   1.710   5.027   4.911  0.2794 -0.5170 -0.3478
  150MOL   C18745185   1.597   5.010   4.991 -0.2131 -0.2785  0.1099
  150MOL   C18845186   1.493   5.099   4.976  0.1657 -0.0620  0.9357
  150MOL   N18945187   1.491   5.199   4.885 -0.6128 -0.3252  0.0874
  150MOL   H19045188   1.624   5.562   4.767 -0.6186 -0.5868 -0.4747
  150MOL   H19145189   1.476   5.487   4.838 -0.7833 -1.7173 -1.3461
  150MOL   H19245190   1.696   5.350   4.671  0.6653  0.3213  0.1949
  150MOL   H19345191   1.803   5.160   4.778  0.9795 -0.8162  1.9747
  150MOL   H19445192   1.795   4.962   4.924 -0.7626 -1.4340  2.1083
  150MOL   H19545193   1.592   4.928   5.061 -0.0417  0.1237  0.5946
  150MOL   H19645194   1.407   5.080   5.039  1.3388 -0.0291  2.5892
  150MOL   C19745195   1.489   5.357   4.612 -0.0880 -0.7218  0.1711
  150MOL   C19845196   1.479   5.245   4.500  0.9334  0.4110  0.1259
  150MOL   C19945197   1.351   5.277   4.424  0.1362  0.5889 -0.0988
  150MOL   C20045198   1.242   5.190   4.427 -0.4320 -0.2230 -0.0433
  150MOL   C20145199   1.128   5.220   4.354 -0.5440  0.0513  1.0951
  150MOL   C20245200   1.129   5.340   4.283 -0.2268 -0.2591 -0.4339
  150MOL   C20345201   1.242   5.424   4.284  0.2883  0.5151 -0.5322
  150MOL   N20445202   1.343   5.394   4.355 -0.1273 -0.3323  0.2175
  150MOL   H20545203   1.480   5.459   4.574  1.2220  0.1269  2.0510
  150MOL   H20645204   1.394   5.340   4.663 -0.7358 -0.2264 -0.8482
  150MOL   H20745205   1.462   5.146   4.541 -0.2441 -0.3965 -2.2307
  150MOL   H20845206   1.246   5.103   4.491 -1.5802  1.0853  1.8421
  150MOL   H20945207   1.044   5.153   4.361 -0.9581  0.1316 -2.2009
  150MOL   H21045208   1.046   5.375   4.223 -0.5849 -1.1423 -0.4539
  150MOL   H21145209   1.243   5.514   4.224  0.9360 -0.8585 -2.6608
  150MOL   C21245210   1.597   5.230   4.396 -0.8274  0.1200  0.4100
  150MOL   C21345211   1.719   5.137   4.434  0.1961  0.2327 -0.5168
  150MOL   C21445212   1.671   4.989   4.440  0.1999  0.4273  0.6643
  150MOL   C21545213   1.686   4.913   4.555 -0.7783 -0.6163  0.3125
  150MOL   C21645214   1.626   4.787   4.566  0.5585  0.3668 -0.5768
  150MOL   C21745215   1.568   4.740   4.445  0.8252 -0.0129 -0.5129
  150MOL   C21845216   1.564   4.823   4.333  0.3117 -0.0409  0.0384
  150MOL   N21945217   1.616   4.945   4.324  0.3387 -0.4213 -0.5296
  150MOL   H22045218   1.614   5.333   4.366 -0.9290  0.2357  0.7506
  150MOL   H22145219   1.556   5.185   4.305 -0.2128  0.6044 -0.1104
  150MOL   H22245220   1.749   5.157   4.537  3.1600  1.0654 -1.4763
  150MOL   H22345221   1.741   4.942   4.643  1.1171  1.0605 -1.3852
  150MOL   H22445222   1.619   4.727   4.655  0.4033  2.4370  0.8342
  150MOL   H22545223   1.519   4.644   4.440  1.6530 -0.3383 -2.8607
  150MOL   H22645224   1.499   4.785   4.255  0.2033 -2.6051  1.3242
  150MOL   C22745225   1.841   5.158   4.328 -0.1359 -0.5854  0.2630
  150MOL   C22845226   1.880   5.304   4.286 -0.4873  0.4106  0.3297
  150MOL   C22945227   1.908   5.396   4.405 -0.4615 -0.1125 -0.3386
  150MOL   C23045228   1.830   5.508   4.439 -0.5373 -0.2951 -0.2979
  150MOL   C23145229   1.861   5.572   4.558  0.5674  0.4510 -0.1882
  150MOL   C23245230   1.968   5.523   4.639 -0.5636 -0.0457  0.5266
  150MOL   C23345231   2.041   5.411   4.593 -0.2232 -0.2871 -0.0889
  150MOL   N23445232   2.015   5.349   4.479  0.4961 -0.0545  0.3955
  150MOL   H23545233   1.806   5.112   4.236 -0.3242  1.0102 -0.4836
  150MOL   H23645234   1.933   5.106   4.357  0.5196  1.2347  1.5733
  150MOL   H23745235   1.789   5.343   4.241 -0.4642 -0.8117 -0.8031
  150MOL   H23845236   1.755   5.542   4.369 -3.2435 -0.7239  2.2720
  150MOL   H23945237   1.799   5.657   4.583  1.4872  1.5625 -1.6244
  150MOL   H24045238   1.978   5.558   4.740 -1.1637  1.3784  0.1073
  150MOL   H24145239   2.119   5.366   4.653 -0.4338 -0.3725  0.1231
  150MOL   C24245240   1.994   5.316   4.186 -0.3807  0.4560  0.7164
  150MOL   C24345241   1.988   5.436   4.086  0.3745  0.1828  0.2447
  150MOL   C24445242   1.909   5.408   3.962  0.3153 -0.1423 -0.1917
  150MOL   C24545243   1.967   5.347   3.852 -0.3454 -0.4578  0.1707
  150MOL   C24645244   1.891   5.324   3.731 -0.0190  0.0662  0.3461
  150MOL   C24745245   1.760   5.376   3.731 -0.5362 -0.2081 -0.0866
  150MOL   C24845246   1.707   5.434   3.849  0.0839 -0.5387 -0.0665
  150MOL   N24945247   1.782   5.452   3.963  0.5809  0.1113 -0.5232
  150MOL   H25045248   2.015   5.227   4.128  2.8243  1.8197 -0.3314
  150MOL   H25145249   2.087   5.323   4.242 -0.3076  0.9536  0.5409
  150MOL   H25245250   2.088   5.441   4.044  0.7801 -1.8838  0.9073
  150MOL   H25345251   2.070   5.317   3.864 -0.6829 -1.2265  1.2385
  150MOL   H25445252   1.941   5.289   3.642 -1.0112  0.2189 -0.2678
  150MOL   H25545253   1.699   5.379   3.642 -0.4155  0.0230 -0.1613
  150MOL   H25645254   1.610   5.480   3.860  0.5658  0.0164  2.0662
  150MOL   C25745255   1.979   5.576   4.161  0.1167 -0.2362 -0.2215
  150MOL   C25845256   2.033   5.688   4.073  0.4718 -0.1402 -0.2389
  150MOL   C25945257   1.939   5.806   4.075  0.0649  0.1320 -0.3048
  150MOL   C26045258   1.894   5.879   3.960 -0.2399 -0.4728 -0.2385
  150MOL   C26145259   1.846   6.009   3.973 -0.1781 -0.3334  0.5009
  150MOL   C26245260   1.824   6.054   4.104  0.2564 -0.0857  0.2250
  150MOL   C26345261   1.852   5.969   4.209 -0.0075 -0.2967  0.4393
  150MOL   N26445262   1.909   5.852   4.199 -1.3167 -0.2438  0.0951
  150MOL   H26545263   2.028   5.565   4.257 -0.0720 -0.4342 -0.1470
  150MOL   H26645264   1.876   5.593   4.192 -0.1293  1.7264 -2.0315
  150MOL   H26745265   2.045   5.654   3.970  1.4318  3.0585 -1.2273
  150MOL   H26845266   1.908   5.827   3.867  0.0476  0.7316 -0.8738
  150MOL   H26945267   1.817   6.061   3.883 -1.6854  0.2302  1.2818
  150MOL   H27045268   1.773   6.148   4.121  2.4062  1.2648 -0.5369
  150MOL   H27145269   1.837   6.008   4.309 -2.4304  0.1797 -0.0749
  150MOL   C27245270   2.174   5.738   4.126  0.0823 -0.4685  0.0311
  150MOL   C27345271   2.290   5.639   4.077 -0.0435  0.3815  0.2711
  150MOL   C27445272   2.304   5.641   3.922  0.2904 -0.6935  0.1855
  150MOL   C27545273   2.361   5.749   3.854  0.0132 -0.8426 -0.2450
  150MOL   C27645274   2.375   5.759   3.714  0.4825  0.2577  0.5138
  150MOL   C27745275   2.312   5.650   3.639  0.5535 -0.6256 -0.4751
  150MOL   C27845276   2.253   5.544   3.712  0.3539  0.0385  0.3022
  150MOL   N27945277   2.253   5.538   3.852  0.5045  0.1484  0.1946
  150MOL   H28045278   2.177   5.748   4.234 -0.9170  0.8189 -0.0461
  150MOL   H28145279   2.189   5.840   4.090  1.8791 -0.1328  1.6575
  150MOL   H28245280   2.264   5.540   4.114  0.4779 -0.3487 -1.2478
  150MOL   H28345281   2.401   5.831   3.911 -0.7046 -1.7007  1.5501
  150MOL   H28445282   2.407   5.843   3.653  0.9209 -0.9554 -0.9718
  150MOL   H28545283   2.323   5.637   3.533 -1.9061  0.9169 -0.9387
  150MOL   H28645284   2.218   5.456   3.660  0.2410  0.8917 -1.1059
  150MOL   C28745285   2.412   5.677   4.157  0.2180  0.1035  0.2454
  150MOL   C28845286   2.429   5.622   4.300 -0.2630  0.1709  0.1408
  150MOL   C28945287   2.444   5.469   4.309  0.2110 -0.4544 -0.0856
  150MOL   C29045288   2.335   5.393   4.361 -0.7222  0.1690 -0.4156
  150MOL   C29145289   2.350   5.252   4.355  0.5035  0.1642 -0.1380
  150MOL   C29245290   2.473   5.196   4.298 -0.2458  0.7306  0.0336
  150MOL   C29345291   2.575   5.280   4.250  0.1872 -0.6415  0.3061
  150MOL   N29445292   2.556   5.413   4.251 -0.1653  0.4998 -0.4359
  150MOL   H29545293   2.426   5.785   4.163 -1.8649  0.3716  0.7218
  150MOL   H29645294   2.489   5.622   4.102 -1.0157 -0.2573 -1.1677
  150MOL   H29745295   2.337   5.649   4.353  0.9530  1.1393  1.7878
  150MOL   H29845296   2.248   5.435   4.411  0.5545  0.8281  1.3055
  150MOL   H29945297   2.273   5.191   4.399  0.3037  0.2710 -0.3396
  150MOL   H30045298   2.483   5.090   4.282 -2.9641  0.1364  1.9010
  150MOL   H30145299   2.658   5.230   4.203 -1.5959 -1.5107 -2.0384
  150MOL   H30245300   2.514   5.673   4.344 -1.2281 -0.6438  3.1199
  151MOL     C145301   1.822   5.179   2.756 -0.2875  0.3093 -0.1113
  151MOL     C245302   1.818   5.199   2.908 -0.7920 -0.5285 -0.1220
  151MOL     C345303   1.731   5.320   2.947  0.3136  0.4189 -0.6234
  151MOL     C445304   1.771   5.419   3.034 -0.8579  0.1210 -0.4158
  151MOL     C545305   1.685   5.524   3.071  0.2223 -0.0923  0.6232
  151MOL     C645306   1.543   5.510   3.045 -0.0982  0.3109  0.2277
  151MOL     C745307   1.503   5.394   2.967 -0.9288  0.4914 -0.2900
  151MOL     N845308   1.599   5.308   2.917 -0.4654 -0.1772  0.2633
  151MOL     H945309   1.885   5.096   2.724  0.3888  0.3422  1.1382
  151MOL    H1045310   1.722   5.165   2.713 -0.0431  0.9889 -0.9175
  151MOL    H1145311   1.922   5.218   2.936 -1.2832  0.2529  1.1729
  151MOL    H1245312   1.876   5.437   3.050 -0.9498 -0.7792  1.3628
  151MOL    H1345313   1.731   5.608   3.120  1.2510  0.4873 -1.2700
  151MOL    H1445314   1.476   5.592   3.069 -1.9747 -0.5077 -1.9507
  151MOL    H1545315   1.399   5.375   2.942 -0.4990 -1.8344 -0.4607
  151MOL    H1645316   1.868   5.272   2.723 -1.0829 -0.2001 -2.8174
  151MOL    C1745317   1.779   5.077   2.991 -0.2515 -0.1434  0.3883
  151MOL    C1845318   1.871   4.964   2.975 -0.2497 -0.0082  0.8725
  151MOL    C1945319   2.017   4.995   3.017  0.4919  0.4000 -0.1315
  151MOL    C2045320   2.041   5.075   3.135 -0.4525 -0.2080 -0.3612
  151MOL    C2145321   2.178   5.111   3.165 -0.0649 -0.2486 -0.2745
  151MOL    C2245322   2.273   5.063   3.077 -0.6254 -0.4454  1.3978
  151MOL    C2345323   2.236   4.985   2.962  0.3243  1.1035  0.3155
  151MOL    N2445324   2.112   4.950   2.931 -0.4741  0.6557 -0.0080
  151MOL    H2545325   1.678   5.058   2.956 -0.1073  1.1035 -0.7718
  151MOL    H2645326   1.762   5.115   3.092 -1.4401  1.3156 -0.3308
  151MOL    H2745327   1.872   4.941   2.869 -0.5626 -0.7167  1.0146
  151MOL    H2845328   1.970   5.107   3.209  1.3752  0.2835  1.2054
  151MOL    H2945329   2.204   5.165   3.255  0.7050  0.4427 -0.9044
  151MOL    H3045330   2.378   5.085   3.089  0.5371 -4.1959 -0.9474
  151MOL    H3145331   2.315   4.940   2.904  0.0400  0.6528  0.2760
  151MOL    C3245332   1.834   4.826   3.032 -0.1851  0.8868  0.8070
  151MOL    C3345333   1.914   4.697   2.984  0.2947  0.0224  0.3892
  151MOL    C3445334   1.905   4.586   3.083  0.7459  0.0911 -1.2742
  151MOL    C3545335   2.013   4.548   3.164 -0.4320  0.8543 -0.7213
  151MOL    C3645336   2.008   4.439   3.244 -0.2794 -0.0970  0.7872
  151MOL    C3745337   1.884   4.382   3.255  0.2055 -0.0904 -0.3083
  151MOL    C3845338   1.770   4.434   3.185  0.0248 -0.0350 -0.7373
  151MOL    N3945339   1.782   4.529   3.095 -0.2396 -0.0082 -0.1617
  151MOL    H4045340   1.730   4.799   3.019 -0.4504  2.5576 -0.6885
  151MOL    H4145341   1.859   4.841   3.138  1.0981 -0.3634  0.7017
  151MOL    H4245342   2.020   4.718   2.976  0.6130 -1.9995 -1.2944
  151MOL    H4345343   2.110   4.597   3.172  1.1319 -2.0392 -1.3948
  151MOL    H4445344   2.094   4.395   3.293 -0.2783 -0.6505  0.2890
  151MOL    H4545345   1.864   4.302   3.325  2.6129 -1.2539 -0.9057
  151MOL    H4645346   1.672   4.390   3.195 -0.9123  2.0001 -0.6448
  151MOL    C4745347   1.873   4.655   2.843 -0.2452  0.4925  0.1833
  151MOL    C4845348   1.933   4.526   2.779 -0.0727  0.4697 -0.6089
  151MOL    C4945349   1.868   4.491   2.647 -0.2218 -0.5245  0.9136
  151MOL    C5045350   1.854   4.357   2.616  0.4417  0.9595 -0.0246
  151MOL    C5145351   1.815   4.322   2.488  0.0290  0.7524 -0.0195
  151MOL    C5245352   1.791   4.419   2.396 -0.0727 -0.7098  0.1894
  151MOL    C5345353   1.809   4.551   2.429  0.2867 -0.2961 -0.7027
  151MOL    N5445354   1.853   4.587   2.551 -0.0802  0.2806 -0.5735
  151MOL    H5545355   1.912   4.732   2.775  0.4575  2.7070  2.9819
  151MOL    H5645356   1.765   4.643   2.847 -0.4320  1.3027 -1.8861
  151MOL    H5745357   1.917   4.442   2.847  1.4953  2.0201  1.7351
  151MOL    H5845358   1.866   4.273   2.683  1.1992 -1.2208 -2.7904
  151MOL    H5945359   1.802   4.221   2.453 -0.1364  0.8515 -0.2439
  151MOL    H6045360   1.761   4.394   2.295 -2.6975  0.1283  0.7395
  151MOL    H6145361   1.784   4.631   2.360  0.0426  0.2582  0.0153
  151MOL    C6245362   2.090   4.530   2.758 -0.0056 -0.2681 -0.4036
  151MOL    C6345363   2.164   4.394   2.781  0.0795  0.5832 -0.5972
  151MOL    C6445364   2.286   4.385   2.692 -0.4299 -0.2160  0.3489
  151MOL    C6545365   2.285   4.301   2.582 -0.8499  1.1577  0.3098
  151MOL    C6645366   2.401   4.297   2.502  0.2586  0.5741  0.4159
  151MOL    C6745367   2.516   4.372   2.536 -0.9681  0.3670 -0.1068
  151MOL    C6845368   2.508   4.449   2.651 -0.5094 -0.5922  0.3064
  151MOL    N6945369   2.395   4.463   2.721 -0.5641  0.1488 -0.4341
  151MOL    H7045370   2.142   4.603   2.820  0.3969 -1.0147  0.1493
  151MOL    H7145371   2.113   4.568   2.659 -1.9100 -0.3513 -0.9016
  151MOL    H7245372   2.095   4.320   2.741  0.0551  0.4243 -0.2707
  151MOL    H7345373   2.196   4.249   2.548 -0.7959  1.3568 -0.1400
  151MOL    H7445374   2.400   4.239   2.410  0.9119 -0.0974  0.8231
  151MOL    H7545375   2.608   4.372   2.480 -0.4481 -2.1355  0.6774
  151MOL    H7645376   2.587   4.508   2.695  0.5094 -0.5165 -1.5639
  151MOL    C7745377   2.194   4.364   2.931 -0.2869 -0.7095 -0.4572
  151MOL    C7845378   2.287   4.242   2.962 -0.4944 -0.6896 -0.3901
  151MOL    C7945379   2.315   4.224   3.113 -0.0161  0.5197  0.4248
  151MOL    C8045380   2.443   4.235   3.161 -0.3933  0.3828  0.2797
  151MOL    C8145381   2.468   4.214   3.294  0.6827 -0.2470 -0.0441
  151MOL    C8245382   2.362   4.183   3.379 -0.2260 -0.4070 -0.2185
  151MOL    C8345383   2.237   4.154   3.318  0.1731 -0.3478 -0.4610
  151MOL    N8445384   2.210   4.194   3.193  0.2709  0.1554  0.4659
  151MOL    H8545385   2.101   4.345   2.985  0.1387  0.1485  0.6048
  151MOL    H8645386   2.222   4.459   2.977 -2.5603  0.2605 -1.0191
  151MOL    H8745387   2.384   4.266   2.919 -0.4564 -0.1432 -0.0027
  151MOL    H8845388   2.523   4.265   3.095  0.6472 -1.1432  0.8258
  151MOL    H8945389   2.566   4.237   3.333  0.4179  1.5605 -0.3957
  151MOL    H9045390   2.394   4.175   3.482  2.4246 -1.6272 -1.0955
  151MOL    H9145391   2.163   4.109   3.383  0.6075 -2.6892 -1.5400
  151MOL    C9245392   2.238   4.114   2.897 -0.0556  0.6198 -0.6356
  151MOL    C9345393   2.320   3.991   2.901  0.3469 -0.0315  0.0380
  151MOL    C9445394   2.249   3.872   2.833  0.3073  0.2463 -0.5640
  151MOL    C9545395   2.217   3.764   2.915 -0.7088 -0.4901  0.5809
  151MOL    C9645396   2.155   3.655   2.854 -0.0198  0.0924  0.8321
  151MOL    C9745397   2.131   3.653   2.713  0.0515 -0.0942  0.2234
  151MOL    C9845398   2.172   3.761   2.641  0.0319 -0.0134  0.0766
  151MOL    N9945399   2.225   3.871   2.700 -0.1579 -0.3131 -0.0889
  151MOL   H10045400   2.216   4.125   2.791  1.6190  1.4674 -0.9115
  151MOL   H10145401   2.146   4.085   2.948  0.2600 -0.1118 -0.4764
  151MOL   H10245402   2.336   3.967   3.006  0.1474  0.7145  0.2428
  151MOL   H10345403   2.253   3.766   3.017  2.9873 -0.0450 -0.6360
  151MOL   H10445404   2.118   3.581   2.924  0.1489  1.3070  2.2465
  151MOL   H10545405   2.095   3.562   2.667  1.2393 -0.0276 -0.8372
  151MOL   H10645406   2.175   3.756   2.534  2.2014 -1.9792  0.2109
  151MOL   C10745407   2.461   4.011   2.835  0.3144  0.5987 -0.5145
  151MOL   C10845408   2.564   3.894   2.823 -0.0345  0.6258 -0.3546
  151MOL   C10945409   2.593   3.865   2.673 -0.6211  0.3666  0.5420
  151MOL   C11045410   2.577   3.734   2.628  0.3220  0.3070 -0.3273
  151MOL   C11145411   2.630   3.699   2.504 -0.2353 -0.1899 -0.8939
  151MOL   C11245412   2.705   3.801   2.443 -0.4551  0.4818 -0.2810
  151MOL   C11345413   2.720   3.928   2.503 -0.4388  0.2123 -0.3865
  151MOL   N11445414   2.661   3.967   2.615 -0.0529  0.5703  0.1209
  151MOL   H11545415   2.506   4.097   2.885  2.1378 -0.7164  0.1594
  151MOL   H11645416   2.445   4.052   2.735  0.9220 -0.4299 -1.0417
  151MOL   H11745417   2.532   3.805   2.878  1.3276  0.8696  0.8662
  151MOL   H11845418   2.523   3.662   2.689 -0.1472  0.1461 -0.9262
  151MOL   H11945419   2.610   3.600   2.465 -2.3914 -0.5179  0.9317
  151MOL   H12045420   2.760   3.782   2.352  0.0920  3.1593 -0.5424
  151MOL   H12145421   2.776   4.005   2.452 -0.9632 -0.7382 -2.4918
  151MOL   C12245422   2.707   3.928   2.883  0.3951  0.0460 -0.1732
  151MOL   C12345423   2.710   3.940   3.040  0.2358  0.0201  0.3698
  151MOL   C12445424   2.653   3.817   3.106 -0.8919  0.2159  0.3668
  151MOL   C12545425   2.684   3.687   3.064 -0.8844  0.1930  0.0885
  151MOL   C12645426   2.632   3.579   3.138  0.6147  0.2763  1.1422
  151MOL   C12745427   2.544   3.602   3.248  0.3461  0.7291 -0.1284
  151MOL   C12845428   2.540   3.736   3.295  0.0581  0.8889 -0.2233
  151MOL   N12945429   2.591   3.842   3.225  0.1668 -0.0025 -0.0391
  151MOL   H13045430   2.748   4.012   2.827  2.3735 -2.8904 -3.3725
  151MOL   H13145431   2.783   3.850   2.871 -0.2118 -0.6821  0.6691
  151MOL   H13245432   2.650   4.023   3.075  0.2634 -0.4252  1.4977
  151MOL   H13345433   2.758   3.670   2.987  0.6795 -0.7016  1.7263
  151MOL   H13445434   2.655   3.477   3.109  4.0451  0.7046  2.0993
  151MOL   H13545435   2.483   3.530   3.300  2.1077 -0.6072  0.1346
  151MOL   H13645436   2.480   3.758   3.382  0.7532 -1.6099  0.9266
  151MOL   C13745437   2.859   3.973   3.089  0.0729 -0.2378  0.5377
  151MOL   C13845438   2.887   3.955   3.239  0.4989 -0.1565 -0.0713
  151MOL   C13945439   3.036   3.933   3.265  0.2608 -0.1945  0.1175
  151MOL   C14045440   3.063   3.808   3.320 -0.0764  0.3195  0.0445
  151MOL   C14145441   3.198   3.784   3.358 -0.5882  0.4008 -0.1695
  151MOL   C14245442   3.298   3.884   3.324 -0.6800 -0.2683  0.1373
  151MOL   C14345443   3.249   4.008   3.265 -0.0669  0.0348  0.0031
  151MOL   N14445444   3.119   4.028   3.229 -0.6625  0.0108  0.0673
  151MOL   H14545445   2.894   4.069   3.051  1.1885 -0.5168  0.8465
  151MOL   H14645446   2.915   3.892   3.043 -0.9080 -1.2667  1.1262
  151MOL   H14745447   2.837   3.863   3.270  0.8456 -0.2330  0.2718
  151MOL   H14845448   2.991   3.730   3.339  0.3187  0.2843  1.4569
  151MOL   H14945449   3.231   3.691   3.404  2.3626  0.9371 -1.1172
  151MOL   H15045450   3.403   3.862   3.330 -1.1922 -2.9567  0.0060
  151MOL   H15145451   3.318   4.079   3.223  1.2008 -1.2218 -0.0819
  151MOL   C15245452   2.836   4.082   3.316  0.3359 -0.3210 -0.0737
  151MOL   C15345453   2.861   4.088   3.467 -0.3584  0.0218 -0.5072
  151MOL   C15445454   2.811   4.219   3.535  0.1106  0.6523 -0.4761
  151MOL   C15545455   2.905   4.301   3.599 -0.7046 -0.0102  0.0292
  151MOL   C15645456   2.851   4.395   3.685 -0.3447 -0.2805  0.2276
  151MOL   C15745457   2.714   4.409   3.705  0.3702 -0.0724  0.0493
  151MOL   C15845458   2.629   4.326   3.628 -0.0692 -0.2954  0.0474
  151MOL   N15945459   2.676   4.231   3.547  0.3703 -0.2298 -0.1263
  151MOL   H16045460   2.728   4.094   3.303  0.3045 -1.8836 -1.2912
  151MOL   H16145461   2.874   4.169   3.262  1.9938 -1.5137 -0.8606
  151MOL   H16245462   2.969   4.094   3.480 -0.5661 -0.8203  1.7972
  151MOL   H16345463   3.010   4.283   3.579 -0.2140  1.3253  1.3258
  151MOL   H16445464   2.916   4.455   3.746 -0.6614  1.0742 -0.7511
  151MOL   H16545465   2.670   4.478   3.775 -0.5645 -2.2271  1.6282
  151MOL   H16645466   2.522   4.329   3.635 -0.1141  0.4676 -0.7582
  151MOL   C16745467   2.808   3.960   3.542  0.6025  0.3287  0.1240
  151MOL   C16845468   2.809   3.964   3.694 -0.3444  0.3681  0.0793
  151MOL   C16945469   2.745   3.840   3.757  0.6846 -0.1643 -0.2218
  151MOL   C17045470   2.629   3.854   3.832  0.6463  0.7716 -0.2994
  151MOL   C17145471   2.574   3.741   3.889  0.1497  0.8790 -0.5579
  151MOL   C17245472   2.649   3.621   3.878  0.3781 -0.3411  0.3778
  151MOL   C17345473   2.766   3.615   3.801  0.4981  0.2588  0.0883
  151MOL   N17445474   2.814   3.725   3.742 -0.0935 -0.3772 -0.5129
  151MOL   H17545475   2.867   3.878   3.502  0.9339  0.7006 -0.1613
  151MOL   H17645476   2.704   3.954   3.511  1.2823  0.4694 -2.3515
  151MOL   H17745477   2.762   4.054   3.734  0.0247 -0.4494  2.4503
  151MOL   H17845478   2.581   3.948   3.857 -1.1723 -0.7820  2.4666
  151MOL   H17945479   2.477   3.754   3.935 -0.9542 -0.7109 -2.3289
  151MOL   H18045480   2.612   3.539   3.938  0.8398  0.3339  1.6047
  151MOL   H18145481   2.826   3.525   3.799  0.1733  0.0475 -0.2591
  151MOL   C18245482   2.958   3.977   3.739 -0.0151  0.0739 -0.1551
  151MOL   C18345483   2.996   4.020   3.886 -0.2004  0.6064  0.1807
  151MOL   C18445484   3.147   3.986   3.918  0.6871  0.9415 -0.1286
  151MOL   C18545485   3.176   3.926   4.046  0.4794 -0.1689  0.2571
  151MOL   C18645486   3.311   3.897   4.069 -0.7137 -0.5595 -0.1764
  151MOL   C18745487   3.411   3.941   3.982  0.7204  0.3379  0.8372
  151MOL   C18845488   3.371   4.010   3.867 -0.5311  0.3489 -0.0971
  151MOL   N18945489   3.236   4.033   3.834 -0.4513  0.2997  0.0734
  151MOL   H19045490   3.002   4.050   3.672 -0.3101 -0.5170 -1.0101
  151MOL   H19145491   3.008   3.885   3.708 -1.3340  0.0740 -2.3924
  151MOL   H19245492   2.936   3.958   3.952 -0.5719 -0.3564 -1.0341
  151MOL   H19345493   3.105   3.898   4.123  0.0935 -1.3098 -0.5013
  151MOL   H19445494   3.329   3.836   4.156  0.6883  1.7344  1.1800
  151MOL   H19545495   3.516   3.923   4.001  1.3095  0.2747 -2.1559
  151MOL   H19645496   3.450   4.037   3.799  1.0887  1.7199  2.2609
  151MOL   C19745497   2.958   4.168   3.911  0.0606 -0.2216  0.0591
  151MOL   C19845498   2.985   4.232   4.053  0.1277  0.4908 -0.4072
  151MOL   C19945499   3.084   4.350   4.050 -0.1244  0.6358  0.0569
  151MOL   C20045500   3.196   4.357   4.132 -0.4633  0.3542  0.4542
  151MOL   C20145501   3.283   4.467   4.119  0.2810  0.2216 -0.3118
  151MOL   C20245502   3.252   4.570   4.030  0.5259  0.7461  0.3188
  151MOL   C20345503   3.135   4.555   3.953 -0.4977 -0.2548  0.2598
  151MOL   N20445504   3.047   4.453   3.963  0.6451 -0.5954  0.2645
  151MOL   H20545505   2.854   4.191   3.887 -0.4132 -0.9699  1.3699
  151MOL   H20645506   3.022   4.220   3.838 -0.5283 -0.3852 -0.5791
  151MOL   H20745507   3.050   4.165   4.110  0.8476  2.9419  1.7496
  151MOL   H20845508   3.210   4.276   4.201  1.5464  1.5928  1.5430
  151MOL   H20945509   3.375   4.462   4.176  0.8956 -0.1194 -1.3107
  151MOL   H21045510   3.326   4.646   4.008 -0.5078  1.7556  0.3020
  151MOL   H21145511   3.115   4.632   3.880 -0.7140 -0.7342 -0.1936
  151MOL   C21245512   2.862   4.266   4.132  0.0400  0.8665 -0.9758
  151MOL   C21345513   2.770   4.141   4.176 -0.1591 -0.4390 -0.1064
  151MOL   C21445514   2.839   4.017   4.220 -0.2277  0.2090  0.1476
  151MOL   C21545515   2.822   3.891   4.158  0.0643 -0.3368 -0.2101
  151MOL   C21645516   2.890   3.782   4.206 -0.0781  0.1410 -0.2435
  151MOL   C21745517   2.961   3.799   4.325  0.0554 -0.2458  0.0715
  151MOL   C21845518   2.977   3.927   4.384  0.5310 -0.0367 -0.2382
  151MOL   N21945519   2.914   4.034   4.327 -0.6516 -0.4446 -0.3679
  151MOL   H22045520   2.802   4.337   4.074  0.9492  1.8883 -0.6894
  151MOL   H22145521   2.896   4.319   4.221  0.1295  1.3458 -1.2873
  151MOL   H22245522   2.709   4.111   4.091 -0.2665  0.7449 -0.4575
  151MOL   H22345523   2.749   3.885   4.078  0.4376  0.5744 -0.6244
  151MOL   H22445524   2.875   3.679   4.176  0.6051 -0.2611  0.8043
  151MOL   H22545525   2.980   3.708   4.379  0.8257 -1.3885 -2.0772
  151MOL   H22645526   3.030   3.944   4.476  0.0574  3.3205 -0.5164
  151MOL   C22745527   2.669   4.185   4.282 -0.0957  0.0869 -0.0702
  151MOL   C22845528   2.548   4.268   4.229 -0.2096  0.6593 -0.4470
  151MOL   C22945529   2.465   4.185   4.134  0.4203  0.9431 -0.2681
  151MOL   C23045530   2.410   4.063   4.179  0.2949 -0.5656 -0.4306
  151MOL   C23145531   2.324   3.993   4.091  0.8776 -0.2316  0.4933
  151MOL   C23245532   2.306   4.045   3.963 -0.0942 -0.4856  0.1719
  151MOL   C23345533   2.382   4.153   3.919  0.0111  0.3089 -0.1262
  151MOL   N23445534   2.458   4.226   4.005  0.6602 -0.1377  0.5280
  151MOL   H23545535   2.710   4.250   4.359 -2.8697 -0.9090  2.4156
  151MOL   H23645536   2.634   4.094   4.332 -0.4310  0.8502  1.1314
  151MOL   H23745537   2.582   4.349   4.164  0.7449 -0.6830 -1.6494
  151MOL   H23845538   2.423   4.044   4.284 -0.2637 -1.3053 -0.5003
  151MOL   H23945539   2.277   3.900   4.121  1.2644 -0.9941 -1.1733
  151MOL   H24045540   2.235   3.996   3.898 -1.2604 -0.5465  1.4678
  151MOL   H24145541   2.377   4.173   3.813  1.7224  0.4088 -0.2062
  151MOL   C24245542   2.474   4.333   4.355  0.0947  0.5365  0.3409
  151MOL   C24345543   2.361   4.429   4.318  0.1771  0.2170 -0.5077
  151MOL   C24445544   2.264   4.447   4.432 -0.3145 -0.7545  0.0758
  151MOL   C24545545   2.126   4.407   4.425 -0.3997  0.1883  0.0708
  151MOL   C24645546   2.039   4.431   4.533  0.7959 -0.5871  0.3809
  151MOL   C24745547   2.093   4.491   4.647  0.2530 -0.1376  0.1306
  151MOL   C24845548   2.230   4.526   4.655  0.3104  0.3679 -0.0703
  151MOL   N24945549   2.313   4.502   4.548 -0.8105 -0.0943 -0.2401
  151MOL   H25045550   2.548   4.388   4.412  0.9298  0.4666 -0.6584
  151MOL   H25145551   2.439   4.265   4.433  0.8539  1.3389  1.3888
  151MOL   H25245552   2.308   4.387   4.233  1.0841 -0.1737 -0.8920
  151MOL   H25345553   2.083   4.380   4.329 -0.8738  0.5277  0.1841
  151MOL   H25445554   1.932   4.424   4.523  0.6352  1.3443  0.4912
  151MOL   H25545555   2.022   4.512   4.726  0.4701 -0.9208  0.5436
  151MOL   H25645556   2.290   4.562   4.737  1.8407  0.3909 -1.1570
  151MOL   C25745557   2.419   4.569   4.274  0.7213  0.0528  0.0949
  151MOL   C25845558   2.325   4.655   4.184  0.3397  0.5227 -0.6235
  151MOL   C25945559   2.185   4.704   4.245 -0.2450 -0.2242  0.4923
  151MOL   C26045560   2.063   4.667   4.186 -0.8431  0.3248  0.1447
  151MOL   C26145561   1.944   4.702   4.247  0.3852  0.4139  0.1813
  151MOL   C26245562   1.964   4.793   4.354  0.7372 -0.4581 -0.1318
  151MOL   C26345563   2.087   4.834   4.398  0.0348 -0.4106 -0.1427
  151MOL   N26445564   2.200   4.790   4.347  0.6966  0.0208 -0.2922
  151MOL   H26545565   2.513   4.570   4.220  0.0623 -2.7952 -1.2365
  151MOL   H26645566   2.442   4.627   4.363  1.4781 -0.1492  0.0349
  151MOL   H26745567   2.303   4.587   4.101 -0.3436  0.9102 -0.7646
  151MOL   H26845568   2.070   4.599   4.102  1.7122 -1.1015  1.4720
  151MOL   H26945569   1.845   4.670   4.218  0.3972  0.5753 -0.0368
  151MOL   H27045570   1.874   4.823   4.406  0.3593  1.6688 -1.9270
  151MOL   H27145571   2.097   4.890   4.489  1.1882 -2.2249  0.8618
  151MOL   C27245572   2.398   4.772   4.123 -0.6383  0.0352  0.1731
  151MOL   C27345573   2.317   4.849   4.012  0.3301 -0.6043 -0.5804
  151MOL   C27445574   2.377   4.986   3.972 -0.5555  0.1652  0.0214
  151MOL   C27545575   2.313   5.104   4.009 -0.5568 -0.0766  0.2716
  151MOL   C27645576   2.367   5.225   3.967  1.1422  0.0033 -0.1255
  151MOL   C27745577   2.483   5.227   3.887  0.2415  0.5670 -0.2157
  151MOL   C27845578   2.536   5.106   3.851  0.4321  0.2522  0.3952
  151MOL   N27945579   2.494   4.988   3.895  0.4426 -0.2258 -0.0075
  151MOL   H28045580   2.493   4.745   4.076 -1.0450 -1.2050  0.0599
  151MOL   H28145581   2.425   4.851   4.193  1.5445 -0.7725  0.2820
  151MOL   H28245582   2.220   4.867   4.059 -0.0797 -0.2852 -1.5250
  151MOL   H28345583   2.235   5.104   4.084  0.4813 -2.8760  1.4219
  151MOL   H28445584   2.322   5.318   3.999  1.2791  0.2020 -0.5096
  151MOL   H28545585   2.544   5.314   3.863  3.2896 -1.7472 -1.2445
  151MOL   H28645586   2.628   5.117   3.795 -0.8167  2.3074 -1.3515
  151MOL   C28745587   2.301   4.765   3.884  0.7624 -0.3987  0.5336
  151MOL   C28845588   2.228   4.832   3.770  0.3838  0.7335  0.3814
  151MOL   C28945589   2.086   4.852   3.813 -0.1131  0.4733  0.1854
  151MOL   C29045590   2.042   4.981   3.843  0.3031 -0.5487 -0.0522
  151MOL   C29145591   1.907   4.999   3.875  0.0774 -0.5759 -0.5549
  151MOL   C29245592   1.825   4.885   3.878 -0.6198  0.2105  0.2055
  151MOL   C29345593   1.876   4.761   3.850  0.6591 -0.2039 -0.5507
  151MOL   N29445594   2.010   4.740   3.816 -0.1752  0.2318 -0.3386
  151MOL   H29545595   2.267   4.664   3.909  1.7556 -0.7065  0.7003
  151MOL   H29645596   2.401   4.748   3.843  0.0394 -0.8137 -1.0714
  151MOL   H29745597   2.234   4.759   3.689  1.1731 -3.1348  3.7216
  151MOL   H29845598   2.100   5.072   3.839 -1.6246  0.6440 -1.4381
  151MOL   H29945599   1.854   5.093   3.890 -0.7105 -0.8086 -1.8343
  151MOL   H30045600   1.720   4.899   3.900 -0.2052 -0.5816  2.8961
  151MOL   H30145601   1.809   4.678   3.832 -0.7192  0.3745  1.6209
  151MOL   H30245602   2.279   4.924   3.745  2.9557 -0.3034  1.5938
  152MOL     C145603   0.392   7.127   0.124 -0.4034  0.0642 -0.0812
  152MOL     C245604   0.274   7.224   0.159 -0.4689  0.3961 -0.1315
  152MOL     C345605   0.269   7.247   0.304  0.2763  0.0808 -0.1974
  152MOL     C445606   0.171   7.188   0.381  0.2868 -0.2637 -0.2470
  152MOL     C545607   0.158   7.228   0.515  0.0419 -0.6136 -0.5783
  152MOL     C645608   0.256   7.307   0.573  0.1947  0.6825 -0.2720
  152MOL     C745609   0.342   7.370   0.484 -0.8023  0.2025  0.4816
  152MOL     N845610   0.355   7.339   0.345 -0.1109 -0.2130  0.8840
  152MOL     H945611   0.487   7.163   0.162 -0.2647 -0.4669  0.0790
  152MOL    H1045612   0.373   7.026   0.160 -2.1290 -0.7923 -3.1747
  152MOL    H1145613   0.180   7.178   0.127 -0.9842 -0.4436  2.4172
  152MOL    H1245614   0.097   7.118   0.344  0.6200 -0.3575 -0.7484
  152MOL    H1345615   0.077   7.193   0.577  0.9589  0.9812  1.5964
  152MOL    H1445616   0.261   7.347   0.673 -2.0400 -0.2259  0.2352
  152MOL    H1545617   0.415   7.440   0.520 -0.5391 -0.0497  0.4388
  152MOL    H1645618   0.405   7.126   0.016 -1.4442 -1.2053 -0.2098
  152MOL    C1745619   0.274   7.358   0.080  0.2463  0.5111 -0.1507
  152MOL    C1845620   0.274   7.369   8.079  0.8858  0.0653  0.1378
  152MOL    C1945621   0.149   7.310   8.016 -0.7279  0.6366 -0.4068
  152MOL    C2045622   0.157   7.187   7.942 -0.3691 -0.4854  0.1067
  152MOL    C2145623   0.044   7.124   7.890 -0.8964  0.4416 -0.1704
  152MOL    C2245624   8.076   7.190   7.907  0.0579  0.9545  0.3208
  152MOL    C2345625   8.077   7.314   7.974 -0.4781  0.4881  0.1324
  152MOL    N2445626   0.029   7.367   8.040  0.2788 -0.9634  0.6090
  152MOL    H2545627   0.360   7.412   0.120  0.1227  0.6291 -0.0443
  152MOL    H2645628   0.181   7.408   0.107 -0.8065 -1.1841 -0.5743
  152MOL    H2745629   0.355   7.305   8.043  0.9773  1.0694 -1.5035
  152MOL    H2845630   0.251   7.132   7.940  0.1165  0.3540 -0.5705
  152MOL    H2945631   0.053   7.021   7.858 -2.4122  0.2313  0.0498
  152MOL    H3045632   7.986   7.148   7.865 -0.8096  0.4443  2.6153
  152MOL    H3145633   7.983   7.361   7.997 -0.1750  1.0156  0.3005
  152MOL    C3245634   0.302   7.515   8.029 -0.0358  0.1350  1.0956
  152MOL    C3345635   0.444   7.576   8.051 -0.4307  0.2634  0.2012
  152MOL    C3445636   0.558   7.494   7.986 -0.1026 -0.3925  0.0218
  152MOL    C3545637   0.630   7.385   8.044  0.0426  0.6396  0.1293
  152MOL    C3645638   0.717   7.310   7.965 -0.0738  0.5334 -0.5682
  152MOL    C3745639   0.740   7.352   7.833 -0.2508  0.5575  0.5562
  152MOL    C3845640   0.663   7.463   7.783 -0.6702 -0.7349  0.1546
  152MOL    N3945641   0.576   7.529   7.857 -0.6561  0.6886 -0.4909
  152MOL    H4045642   0.228   7.584   8.070 -2.5523  0.2534 -3.2367
  152MOL    H4145643   0.290   7.518   7.920 -1.0569  0.3676  1.2084
  152MOL    H4245644   0.456   7.565   0.007 -0.5133  2.1527  0.4176
  152MOL    H4345645   0.609   7.353   8.145  1.5778 -1.8516 -0.3047
  152MOL    H4445646   0.775   7.236   8.018 -1.4892  0.3531  0.7329
  152MOL    H4545647   0.810   7.303   7.767 -1.2916  0.0884 -0.2188
  152MOL    H4645648   0.676   7.501   7.683 -0.9958  0.4890  0.5769
  152MOL    C4745649   0.456   7.726   8.026 -0.3388 -0.1811  0.5851
  152MOL    C4845650   0.367   7.821   8.116 -0.4127 -0.5743  0.1035
  152MOL    C4945651   0.403   7.821   0.117  0.1288  0.8975 -0.5667
  152MOL    C5045652   0.501   7.893   0.180 -0.6512  0.2670 -0.0911
  152MOL    C5145653   0.530   7.879   0.318  0.1434  0.0369  0.2630
  152MOL    C5245654   0.442   7.795   0.389 -0.3559  0.1541  0.3904
  152MOL    C5345655   0.353   7.717   0.318 -0.2243  0.6136  0.2244
  152MOL    N5445656   0.331   7.732   0.186 -0.6206  0.6211  0.2392
  152MOL    H5545657   0.431   7.755   7.924 -1.7525  0.4960  1.1126
  152MOL    H5645658   0.561   7.754   8.025 -0.5560  0.6550 -0.9408
  152MOL    H5745659   0.260   7.801   8.125 -0.6055  0.6036  0.6346
  152MOL    H5845660   0.543   7.971   0.118  2.0082 -1.1777 -0.2097
  152MOL    H5945661   0.590   7.951   0.371 -0.0286  0.0564  0.4313
  152MOL    H6045662   0.437   7.804   0.496  0.1788 -1.9741  0.6155
  152MOL    H6145663   0.289   7.644   0.366  0.5013 -0.9553 -1.1150
  152MOL    C6245664   0.369   7.968   8.069  0.0689  0.0139  0.3288
  152MOL    C6345665   0.282   7.997   7.942  0.1973 -0.1683 -0.0013
  152MOL    C6445666   0.135   7.969   7.985  0.9944 -0.2923 -0.0584
  152MOL    C6545667   0.070   7.864   7.919  0.1284  0.3340 -0.7258
  152MOL    C6645668   8.085   7.842   7.940 -0.0088 -0.7274 -0.0009
  152MOL    C6745669   8.022   7.918   8.040 -0.1857 -1.1820 -0.0505
  152MOL    C6845670   8.096   8.020   8.106 -0.1222 -0.0027  0.1003
  152MOL    N6945671   0.075   8.046   8.079  0.0019 -0.1033 -0.2334
  152MOL    H7045672   0.473   7.996   8.052 -0.4197  1.6979  0.0110
  152MOL    H7145673   0.329   8.028   8.151 -2.8556 -0.0565 -1.0007
  152MOL    H7245674   0.318   7.936   7.860  0.8722  1.0049 -0.6006
  152MOL    H7345675   0.131   7.803   7.853 -1.4245 -0.8796 -1.0501
  152MOL    H7445676   8.029   7.765   7.889  0.4406 -0.0865 -1.4952
  152MOL    H7545677   7.917   7.894   8.048 -0.3461 -1.4196 -2.3968
  152MOL    H7645678   8.043   8.085   0.022 -0.2727 -0.7652  0.7158
  152MOL    C7745679   0.299   8.145   7.901  0.2234 -0.1648  0.6600
  152MOL    C7845680   0.404   0.020   7.788 -0.5043  0.1082 -0.5025
  152MOL    C7945681   0.348   0.016   7.641 -0.1210 -0.0150  0.3555
  152MOL    C8045682   0.416   8.097   7.544  0.0780  0.1912  0.6144
  152MOL    C8145683   0.367   8.109   7.411  0.6692 -0.1383  0.0053
  152MOL    C8245684   0.259   0.042   7.389  0.3142 -0.2908 -0.1982
  152MOL    C8345685   0.200   0.110   7.497 -0.1186  0.5113 -0.1844
  152MOL    N8445686   0.239   0.092   7.621  0.0569 -0.1516 -1.0344
  152MOL    H8545687   0.345   0.036   7.990  1.5365 -0.8784  0.3446
  152MOL    H8645688   0.210   0.054   7.883  0.1808 -0.5244 -0.3744
  152MOL    H8745689   0.467   8.083   7.800 -0.1090  0.6122  1.3764
  152MOL    H8845690   0.510   8.049   7.567  0.7820  1.4417  0.3863
  152MOL    H8945691   0.417   8.067   7.325  0.8437  2.3853 -1.1606
  152MOL    H9045692   0.225   0.080   7.294 -1.8162  1.1260  1.1091
  152MOL    H9145693   0.132   0.190   7.471 -2.5406 -1.2021  0.7145
  152MOL    C9245694   0.501   0.136   7.803 -0.9350 -0.3161 -0.2479
  152MOL    C9345695   0.619   0.109   7.893 -0.2238  0.4228 -0.1846
  152MOL    C9445696   0.724   0.025   7.826  0.4848 -0.0401  0.3428
  152MOL    C9545697   0.745   8.039   7.866  0.1160  0.4095 -0.3872
  152MOL    C9645698   0.845   7.969   7.793 -0.0679 -0.6647 -1.3709
  152MOL    C9745699   0.904   8.024   7.683  0.2955  0.2276 -0.3920
  152MOL    C9845700   0.881   0.007   7.653 -0.4710 -0.0035 -0.9919
  152MOL    N9945701   0.795   0.081   7.725  0.6962  0.2195  0.1254
  152MOL   H10045702   0.433   0.214   7.838 -1.4826 -1.2354  0.7222
  152MOL   H10145703   0.541   0.162   7.704 -1.1344 -2.3475 -0.8872
  152MOL   H10245704   0.571   0.060   7.978 -1.6270  1.7861 -0.1788
  152MOL   H10345705   0.684   7.986   7.937  0.2174  0.2013 -0.4575
  152MOL   H10445706   0.871   7.870   7.829 -0.0515  0.8263  3.0853
  152MOL   H10545707   0.971   7.974   7.615 -1.9175 -1.5190 -1.3584
  152MOL   H10645708   0.940   0.059   7.579  3.1377  1.5928  2.8350
  152MOL   C10745709   0.689   0.240   7.951  0.1022 -0.0013 -0.0818
  152MOL   C10845710   0.596   0.325   8.044  0.9081 -0.6857 -1.1268
  152MOL   C10945711   0.573   0.257   0.033  0.5028 -0.1215  0.8955
  152MOL   C11045712   0.456   0.189   0.056  0.6321  0.2369 -0.2135
  152MOL   C11145713   0.442   0.119   0.179 -0.5802 -0.1171  0.6708
  152MOL   C11245714   0.545   0.125   0.275  0.3012 -0.4629  0.1478
  152MOL   C11345715   0.652   0.217   0.249  0.1912  0.4433 -0.3613
  152MOL   N11445716   0.667   0.274   0.126  0.0567  0.6405  0.6697
  152MOL   H11545717   0.732   0.296   7.868  3.3740 -2.0901  0.1278
  152MOL   H11645718   0.770   0.219   8.021 -1.5624 -0.0654  1.8831
  152MOL   H11745719   0.500   0.340   7.996  0.1704 -0.9187  0.2668
  152MOL   H11845720   0.382   0.181   8.130  2.1117 -1.4915 -1.4837
  152MOL   H11945721   0.371   0.040   0.195  0.3074 -1.3826 -1.4265
  152MOL   H12045722   0.536   0.068   0.366  0.6437  0.9393  1.0836
  152MOL   H12145723   0.716   0.236   0.333 -1.0075  0.6625  0.5273
  152MOL   C12245724   0.643   0.467   8.063 -0.7969  0.8406 -0.5685
  152MOL   C12345725   0.640   0.548   7.936  0.6748  0.1480  0.8079
  152MOL   C12445726   0.504   0.545   7.865 -0.0667 -0.1274  0.7812
  152MOL   C12545727   0.480   0.467   7.752  0.0029 -0.3378 -0.0097
  152MOL   C12645728   0.349   0.457   7.707 -0.4621  0.3947  0.7875
  152MOL   C12745729   0.247   0.532   7.761  0.4349  0.2018  0.9086
  152MOL   C12845730   0.280   0.601   7.879 -0.5019 -0.4287  0.1074
  152MOL   N12945731   0.406   0.615   7.928 -0.1276 -0.6734 -0.2152
  152MOL   H13045732   0.749   0.469   8.090 -0.4021  1.8226 -2.1359
  152MOL   H13145733   0.575   0.521   8.129  0.2186 -0.4144  1.5587
  152MOL   H13245734   0.700   0.490   7.866 -2.0338  0.2984 -1.7002
  152MOL   H13345735   0.557   0.405   7.708  0.5522  0.5693 -0.3643
  152MOL   H13445736   0.332   0.380   7.633 -1.0964  1.4817 -0.2203
  152MOL   H13545737   0.148   0.518   7.721  0.8045 -0.1485  0.1133
  152MOL   H13645738   0.207   0.658   7.935  0.9344  0.3128  1.2397
  152MOL   C13745739   0.699   0.684   7.966  0.5427 -0.2211 -0.4005
  152MOL   C13845740   0.709   0.789   7.849 -0.7674  0.3303  0.8429
  152MOL   C13945741   0.765   0.919   7.896 -0.3888  0.2884  0.1053
  152MOL   C14045742   0.705   1.040   7.865  0.2396  0.4023  0.2946
  152MOL   C14145743   0.769   1.162   7.897  0.4355  0.3538 -0.4304
  152MOL   C14245744   0.901   1.159   7.947 -0.6191  0.0269  0.2640
  152MOL   C14345745   0.945   1.030   7.982  0.3679 -0.5963 -0.1007
  152MOL   N14445746   0.887   0.911   7.956 -0.0055  0.4427 -0.7365
  152MOL   H14545747   0.799   0.683   8.009  1.5057  1.7442 -2.4728
  152MOL   H14645748   0.630   0.722   8.042  2.5018 -2.7185  2.7534
  152MOL   H14745749   0.609   0.816   7.816  0.3592  2.2151 -1.1858
  152MOL   H14845750   0.604   1.050   7.828  0.5443  1.1304 -0.3524
  152MOL   H14945751   0.725   1.260   7.882 -1.9091 -0.2882  1.9682
  152MOL   H15045752   0.946   1.251   7.980 -1.2745  0.5664 -0.3372
  152MOL   H15145753   1.037   1.020   8.039  1.7745 -0.4082 -2.2570
  152MOL   C15245754   0.780   0.740   7.724 -0.1830 -0.2690 -0.2691
  152MOL   C15345755   0.764   0.810   7.591 -0.6115 -0.7806 -0.1425
  152MOL   C15445756   0.887   0.780   7.497  0.5928 -0.0647 -0.2216
  152MOL   C15545757   0.956   0.885   7.436  0.5534  0.0129  0.0330
  152MOL   C15645758   1.061   0.842   7.348 -0.1765 -0.3879  0.3496
  152MOL   C15745759   1.100   0.703   7.345  0.7021 -0.0658 -0.0186
  152MOL   C15845760   1.029   0.613   7.422 -0.4459 -0.1021 -0.0129
  152MOL   N15945761   0.916   0.648   7.495 -0.3798  0.4206  0.1725
  152MOL   H16045762   0.747   0.638   7.706 -2.3465  0.3059  0.3033
  152MOL   H16145763   0.886   0.729   7.747 -0.5912  1.0603  2.3755
  152MOL   H16245764   0.771   0.917   7.607  1.2886 -0.9381  0.2228
  152MOL   H16345765   0.914   0.985   7.440 -1.7368 -0.9910  2.5020
  152MOL   H16445766   1.118   0.912   7.290 -2.1620 -0.6188 -1.9925
  152MOL   H16545767   1.183   0.663   7.289 -0.4771  0.8194 -2.4896
  152MOL   H16645768   1.059   0.510   7.424  0.5426  0.1983  0.9954
  152MOL   C16745769   0.626   0.781   7.519 -0.0872  0.0174  0.4129
  152MOL   C16845770   0.524   0.897   7.532 -0.5123  0.2798 -0.2679
  152MOL   C16945771   0.572   1.014   7.448 -0.1509  0.1150  0.1301
  152MOL   C17045772   0.638   1.114   7.512 -0.0949  0.0145  0.1757
  152MOL   C17145773   0.689   1.222   7.431 -0.2255 -0.0146  0.3350
  152MOL   C17245774   0.662   1.224   7.291  0.0276 -0.0619 -0.5771
  152MOL   C17345775   0.590   1.115   7.239 -0.5061  0.8791 -0.0555
  152MOL   N17445776   0.544   1.013   7.312 -0.1250  0.0812 -0.1478
  152MOL   H17545777   0.587   0.685   7.554 -0.6765 -0.2587 -0.9538
  152MOL   H17645778   0.654   0.770   7.414  0.8012  1.4738  0.4832
  152MOL   H17745779   0.514   0.921   7.638  2.4620 -1.1816  0.4026
  152MOL   H17845780   0.649   1.126   7.619  1.0060  1.0851 -0.0432
  152MOL   H17945781   0.746   1.304   7.473 -0.5462 -0.3530  1.4553
  152MOL   H18045782   0.691   1.307   7.228 -0.9889  0.3258 -0.5432
  152MOL   H18145783   0.568   1.100   7.134 -2.7406  1.9029  0.2309
  152MOL   C18245784   0.382   0.843   7.494  0.2824  0.1465 -0.4388
  152MOL   C18345785   0.272   0.941   7.477 -0.5611 -0.2973 -0.0575
  152MOL   C18445786   0.150   0.873   7.419  0.2460  0.3668 -0.2661
  152MOL   C18545787   0.117   0.900   7.284 -1.0177  0.6818 -0.2626
  152MOL   C18645788   8.147   0.843   7.232 -0.1878 -0.6249  0.5786
  152MOL   C18745789   8.071   0.763   7.317  0.0381  0.1668  0.7805
  152MOL   C18845790   8.112   0.749   7.451  0.2503 -0.3253  0.9328
  152MOL   N18945791   0.076   0.796   7.500  0.4072  0.2441  0.5091
  152MOL   H19045792   0.340   0.767   7.560  0.7143  0.6092  0.3767
  152MOL   H19145793   0.393   0.799   7.396  1.8053  2.1813 -1.2174
  152MOL   H19245794   0.307   1.017   7.408 -1.5295  0.0375 -0.1849
  152MOL   H19345795   0.171   0.968   7.219 -0.6259  0.1753 -0.4737
  152MOL   H19445796   8.114   0.865   7.132 -0.6976 -1.1227  0.6314
  152MOL   H19545797   7.977   0.733   7.272  0.0645  1.9175 -0.4512
  152MOL   H19645798   8.047   0.686   7.510 -3.4677 -0.8790 -3.4568
  152MOL   C19745799   0.243   1.018   7.604 -0.8213 -0.7863 -0.0770
  152MOL   C19845800   0.160   1.140   7.574  0.2111 -0.5460  0.0975
  152MOL   C19945801   0.051   1.158   7.681  0.2308 -0.2507  0.0294
  152MOL   C20045802   8.067   1.142   7.641 -0.6431  0.1976  0.1326
  152MOL   C20145803   7.967   1.167   7.735  1.1329 -0.3528  0.4428
  152MOL   C20245804   8.008   1.209   7.859  0.0112  0.1570  0.2981
  152MOL   C20345805   8.146   1.228   7.887  0.1143  0.2372  0.2444
  152MOL   N20445806   0.089   1.189   7.806 -0.0697 -0.6160 -0.2383
  152MOL   H20545807   0.339   1.048   7.646 -1.2610  0.6282 -0.0511
  152MOL   H20645808   0.195   0.956   7.680 -2.6000  2.6799  1.7686
  152MOL   H20745809   0.098   1.114   7.488  1.2086 -1.9316 -0.2204
  152MOL   H20845810   8.046   1.116   7.538  1.5910 -1.2404  0.0054
  152MOL   H20945811   7.867   1.140   7.704  1.1344  0.4960 -0.3181
  152MOL   H21045812   7.931   1.220   7.934  0.1548  0.6611  0.3779
  152MOL   H21145813   0.021   1.258   7.987  0.3246  1.1368 -0.0754
  152MOL   C21245814   0.250   1.264   7.552  0.1640  0.0578 -0.5190
  152MOL   C21345815   0.188   1.379   7.482 -0.2013 -0.3400  0.1497
  152MOL   C21445816   0.271   1.507   7.497 -0.3887 -0.0850  0.2654
  152MOL   C21545817   0.220   1.610   7.573 -0.7238 -0.4155  0.0760
  152MOL   C21645818   0.283   1.734   7.570 -0.1131  0.1453  0.0159
  152MOL   C21745819   0.407   1.742   7.500 -0.0213 -0.0563 -0.2322
  152MOL   C21845820   0.455   1.633   7.429 -0.5070 -0.5002 -0.2930
  152MOL   N21945821   0.386   1.515   7.430  0.0152  0.4136  0.6849
  152MOL   H22045822   0.330   1.243   7.481 -0.6675  3.7545 -2.7076
  152MOL   H22145823   0.293   1.292   7.648  1.8051 -0.4166 -1.0877
  152MOL   H22245824   0.096   1.394   7.539  0.0689 -0.3690  0.6025
  152MOL   H22345825   0.123   1.588   7.616 -2.1691 -0.6119 -3.1234
  152MOL   H22445826   0.248   1.822   7.622  1.5882  0.3720  0.8261
  152MOL   H22545827   0.462   1.835   7.502  0.1321 -0.1537  0.1821
  152MOL   H22645828   0.555   1.626   7.389 -1.1726  1.4137 -2.3805
  152MOL   C22745829   0.166   1.347   7.329  0.4448  0.1854  0.3229
  152MOL   C22845830   0.055   1.440   7.270 -0.5697  0.0932  0.3712
  152MOL   C22945831   0.082   1.480   7.120  0.6612 -0.0565 -0.2287
  152MOL   C23045832   0.204   1.550   7.091 -0.2936  0.1162  0.4809
  152MOL   C23145833   0.223   1.582   6.957 -0.0764  0.3647  0.2714
  152MOL   C23245834   0.137   1.531   6.858  0.1367  0.0460  0.1954
  152MOL   C23345835   0.026   1.453   6.895 -0.1646  0.4554 -0.8357
  152MOL   N23445836   8.147   1.432   7.025  0.9381  0.1147 -0.7510
  152MOL   H23545837   0.134   1.243   7.318  1.0883  0.4480 -5.3177
  152MOL   H23645838   0.259   1.353   7.272 -0.3528  0.6575 -0.9367
  152MOL   H23745839   0.053   1.534   7.325 -0.3675 -0.5844  1.5635
  152MOL   H23845840   0.279   1.567   7.167  2.6323 -0.0885 -2.2945
  152MOL   H23945841   0.312   1.634   6.923  0.0534 -0.8474 -1.3127
  152MOL   H24045842   0.163   1.547   6.754  0.8588 -0.6314  0.2636
  152MOL   H24145843   8.114   1.401   6.826 -0.7135 -0.3882  0.3009
  152MOL   C24245844   8.066   1.386   7.286 -0.5787  0.8542 -0.1752
  152MOL   C24345845   7.940   1.474   7.260 -0.3691 -0.0780  0.3948
  152MOL   C24445846   7.805   1.396   7.273  0.0615  0.0170  0.1821
  152MOL   C24545847   7.713   1.403   7.173 -0.4350 -0.1362 -0.0253
  152MOL   C24645848   7.592   1.328   7.177  0.0456  0.0380  0.3705
  152MOL   C24745849   7.570   1.271   7.307 -0.5257  0.5668  0.3975
  152MOL   C24845850   7.662   1.270   7.409 -0.1126  0.4740  0.0313
  152MOL   N24945851   7.782   1.330   7.387  0.0769 -0.0683 -0.5091
  152MOL   H25045852   8.051   1.347   7.386  0.8315  0.8212  0.0328
  152MOL   H25145853   8.058   1.298   7.222 -1.7777 -0.7634  2.1480
  152MOL   H25245854   7.936   1.504   7.155 -0.0156  1.4885  0.8066
  152MOL   H25345855   7.742   1.451   7.081 -1.1718 -1.1036 -0.7696
  152MOL   H25445856   7.520   1.331   7.096  0.5213 -1.3054 -0.1254
  152MOL   H25545857   7.480   1.215   7.324  0.5076 -0.8970  1.2309
  152MOL   H25645858   7.638   1.215   7.498 -3.9478  1.2752 -0.4009
  152MOL   C25745859   7.944   1.608   7.342 -0.1663 -0.3896  0.5147
  152MOL   C25845860   8.018   1.728   7.275 -0.2018  0.7420  0.0018
  152MOL   C25945861   7.965   1.770   7.141 -0.1436 -0.3495 -1.0249
  152MOL   C26045862   8.045   1.766   7.021 -0.1538  0.3557 -0.0619
  152MOL   C26145863   7.988   1.803   6.897 -0.0156  0.7657  0.0455
  152MOL   C26245864   7.849   1.834   6.898 -0.6646  0.3077 -0.3082
  152MOL   C26345865   7.775   1.817   7.018  0.2076  0.4812 -0.3000
  152MOL   N26445866   7.831   1.796   7.136 -0.2684 -0.4355 -0.0203
  152MOL   H26545867   7.995   1.589   7.437  1.7277 -0.7036 -0.5625
  152MOL   H26645868   7.841   1.637   7.366 -0.7361 -1.6205 -0.3634
  152MOL   H26745869   8.118   1.691   7.251 -1.0391 -0.7584 -1.3244
  152MOL   H26845870   8.149   1.734   7.023  0.0687  1.1480  2.7221
  152MOL   H26945871   8.036   1.799   6.801 -0.3297 -2.1350 -0.0380
  152MOL   H27045872   7.805   1.860   6.802  0.0003 -0.0814 -0.7196
  152MOL   H27145873   7.670   1.842   7.017  0.3718  1.5315  3.3499
  152MOL   C27245874   8.037   1.846   7.371 -0.3942  0.1474 -0.2002
  152MOL   C27345875   8.097   1.981   7.321 -0.6255  0.3999 -0.7322
  152MOL   C27445876   8.112   2.084   7.434  0.0004 -0.0202 -0.0247
  152MOL   C27545877   8.063   2.214   7.427 -0.1036 -0.9494  0.1298
  152MOL   C27645878   8.081   2.303   7.535  0.1549 -0.0287  0.5619
  152MOL   C27745879   0.019   2.261   7.635 -0.6054 -0.3942 -0.3156
  152MOL   C27845880   0.066   2.131   7.634  0.0750  0.3626  1.0034
  152MOL   N27945881   0.036   2.041   7.538  0.4186  0.1383  0.1159
  152MOL   H28045882   8.094   1.810   7.457  0.6142 -2.8780 -2.0620
  152MOL   H28145883   7.937   1.871   7.408 -0.1532 -0.8074  1.1260
  152MOL   H28245884   8.024   2.017   7.249 -2.5143  0.5091  1.1908
  152MOL   H28345885   8.009   2.252   7.342 -1.4579  1.3100  1.9452
  152MOL   H28445886   8.037   2.401   7.533 -1.5457 -0.7621  1.0535
  152MOL   H28545887   0.060   2.325   7.711  1.2648 -2.7324  0.7283
  152MOL   H28645888   0.136   2.107   7.712 -0.1687 -1.7911  0.5803
  152MOL   C28745889   0.086   1.948   7.265 -0.3579 -0.2363 -0.4123
  152MOL   C28845890   0.170   2.075   7.247  0.1838 -0.5793 -0.5432
  152MOL   C28945891   0.296   2.062   7.161  0.0690  0.1733  0.6454
  152MOL   C29045892   0.428   2.051   7.209  0.3997 -0.1644 -0.0103
  152MOL   C29145893   0.531   2.035   7.118 -0.4509  0.3322 -0.8842
  152MOL   C29245894   0.499   2.046   6.980  0.0738 -0.1063 -0.3252
  152MOL   C29345895   0.369   2.067   6.938 -0.7428 -0.2791 -0.3424
  152MOL   N29445896   0.267   2.070   7.032 -0.1291  0.9485 -0.2559
  152MOL   H29545897   0.083   1.883   7.177  2.5380 -1.5589  0.3922
  152MOL   H29645898   0.134   1.888   7.342  0.6977  0.8117 -0.2420
  152MOL   H29745899   0.196   2.128   7.338  0.8122 -1.0639 -0.4439
  152MOL   H29845900   0.448   2.054   7.315 -1.3919  0.9394  0.3124
  152MOL   H29945901   0.634   2.015   7.144 -0.2769  0.1989 -1.6748
  152MOL   H30045902   0.573   2.047   6.902  0.9096 -0.5297  0.4600
  152MOL   H30145903   0.340   2.055   6.835 -1.7487 -4.9537  0.3774
  152MOL   H30245904   0.105   2.148   7.198  2.5410  1.7447 -0.3133
  153MOL     C145905   0.930   5.553   7.735  0.1855 -0.7920 -0.0844
  153MOL     C245906   0.913   5.461   7.861  0.5082 -0.1415 -0.1714
  153MOL     C345907   0.766   5.420   7.876 -0.1453  0.2783  0.4788
  153MOL     C445908   0.691   5.477   7.981  1.2866  0.2764  0.0660
  153MOL     C545909   0.552   5.456   7.979 -1.0219  0.2082  0.4747
  153MOL     C645910   0.497   5.380   7.871  0.1476  0.5393 -0.1417
  153MOL     C745911   0.580   5.336   7.767 -0.0925  0.0822 -0.5558
  153MOL     N845912   0.710   5.351   7.775  0.9535 -0.1864  0.3695
  153MOL     H945913   1.023   5.611   7.738 -0.5692  0.3772  1.4227
  153MOL    H1045914   0.939   5.497   7.642  2.0382  0.7287 -0.8596
  153MOL    H1145915   0.936   5.520   7.950  0.9653 -0.5591 -0.0054
  153MOL    H1245916   0.734   5.542   8.056  1.1002  0.4226  0.0457
  153MOL    H1345917   0.494   5.496   8.061  0.2273  1.4964  0.7610
  153MOL    H1445918   0.390   5.369   7.866  0.2766 -0.7422 -0.1353
  153MOL    H1545919   0.536   5.289   7.680  0.0083 -0.8130 -0.1298
  153MOL    H1645920   0.845   5.622   7.733  1.3948  0.7088 -1.7066
  153MOL    C1745921   1.007   5.333   7.867 -0.0452  0.4999  0.2430
  153MOL    C1845922   1.000   5.235   7.993  0.2405  0.0986 -0.3338
  153MOL    C1945923   1.088   5.104   7.971  0.2245 -0.3888  0.5052
  153MOL    C2045924   1.027   4.979   7.947 -0.4968 -0.1217 -0.1427
  153MOL    C2145925   1.103   4.860   7.936 -0.0231 -0.4691  0.0965
  153MOL    C2245926   1.244   4.884   7.934  0.3814 -0.0516  0.5431
  153MOL    C2345927   1.294   5.009   7.950  0.2340  0.1706  0.1734
  153MOL    N2445928   1.221   5.122   7.967  0.6064  0.2996 -0.2772
  153MOL    H2545929   1.111   5.355   7.841 -0.1355  3.1111  1.8724
  153MOL    H2645930   0.976   5.265   7.788 -0.8476  1.8324 -0.6190
  153MOL    H2745931   0.895   5.206   7.989  0.3299 -0.5776  1.7853
  153MOL    H2845932   0.920   4.971   7.960 -0.4474 -1.4666 -0.4443
  153MOL    H2945933   1.060   4.761   7.939  2.3528 -1.5530 -0.2221
  153MOL    H3045934   1.317   4.806   7.918  0.8420  0.7874 -1.6692
  153MOL    H3145935   1.400   5.023   7.941  0.5259 -1.9607  0.0717
  153MOL    C3245936   1.019   5.296   8.131  0.0432 -0.1531  0.2282
  153MOL    C3345937   1.009   5.198   0.106  0.1965 -0.4005 -0.0574
  153MOL    C3445938   1.056   5.264   0.235 -1.3097 -1.3006  0.0169
  153MOL    C3545939   1.155   5.218   0.322  0.3691  0.2667  0.5789
  153MOL    C3645940   1.173   5.277   0.441 -0.3168 -0.0965 -0.0430
  153MOL    C3745941   1.097   5.391   0.470 -0.2094  0.5055  0.5388
  153MOL    C3845942   1.012   5.439   0.371  0.4800 -0.4967 -0.7703
  153MOL    N3945943   0.985   5.375   0.260  0.0845 -0.1452 -0.2470
  153MOL    H4045944   0.956   5.382   0.002 -1.8983 -1.3165 -0.6737
  153MOL    H4145945   1.125   5.323   8.125  0.4650 -1.8023  0.0011
  153MOL    H4245946   1.091   5.126   0.100  0.4923  0.0234 -1.2050
  153MOL    H4345947   1.212   5.130   0.296 -1.4227 -0.7589  0.0426
  153MOL    H4445948   1.242   5.240   0.515 -1.7846  2.5923  2.7877
  153MOL    H4545949   1.112   5.447   0.561 -1.2248  0.4122  0.7759
  153MOL    H4645950   0.962   5.531   0.398  0.2849 -0.5033 -1.1139
  153MOL    C4745951   0.882   5.109   0.108  0.3619  0.2040  0.3021
  153MOL    C4845952   0.833   5.068   0.250  0.7904  0.1609 -0.1745
  153MOL    C4945953   0.683   5.055   0.255  0.2735 -0.2048 -0.3265
  153MOL    C5045954   0.608   5.134   0.348  0.3453  0.4718  0.2050
  153MOL    C5145955   0.471   5.106   0.364  0.2131 -0.1024 -0.4746
  153MOL    C5245956   0.408   5.017   0.278  0.3552  0.4615  0.2236
  153MOL    C5345957   0.490   4.955   0.177  0.2432  0.1248 -0.9078
  153MOL    N5445958   0.626   4.971   0.168 -0.1020 -0.1842 -0.4984
  153MOL    H5545959   0.885   5.022   0.042  0.3003 -0.0265  0.5978
  153MOL    H5645960   0.805   5.179   0.077  0.4093 -0.2190 -0.7874
  153MOL    H5745961   0.854   5.148   0.321 -0.6350  0.5881 -0.2173
  153MOL    H5845962   0.668   5.195   0.415  1.4269  0.1308 -0.4383
  153MOL    H5945963   0.411   5.152   0.442 -0.2994 -1.1056 -0.2572
  153MOL    H6045964   0.305   4.992   0.299  0.0882  1.3096 -0.0634
  153MOL    H6145965   0.441   4.872   0.129  0.1279 -0.9642  1.0408
  153MOL    C6245966   0.900   4.937   0.303  0.1549 -0.4515  0.3748
  153MOL    C6345967   0.887   4.892   0.442  0.5485  0.5721  0.0283
  153MOL    C6445968   0.924   4.750   0.448 -0.2696  0.3735  0.2011
  153MOL    C6545969   0.846   4.654   0.513  0.0349 -0.0763  0.2543
  153MOL    C6645970   0.890   4.523   0.531  0.0077  0.2585  0.3118
  153MOL    C6745971   1.009   4.483   0.469  0.8008 -0.6335 -0.6388
  153MOL    C6845972   1.086   4.583   0.402  0.0638 -0.3387 -0.2425
  153MOL    N6945973   1.044   4.713   0.396 -0.1709 -0.1858 -0.2355
  153MOL    H7045974   1.007   4.944   0.284  0.1577 -1.2127  0.0883
  153MOL    H7145975   0.865   4.852   0.244 -3.2671 -1.5907  3.8813
  153MOL    H7245976   0.780   4.899   0.462  0.4406 -0.8125 -0.0573
  153MOL    H7345977   0.748   4.666   0.557  0.8469 -2.6341  3.0060
  153MOL    H7445978   0.826   4.452   0.580  0.6796 -0.3386  0.3296
  153MOL    H7545979   1.052   4.384   0.478 -1.5399 -1.7094 -1.1734
  153MOL    H7645980   1.178   4.566   0.348 -0.9403 -0.3992 -1.9724
  153MOL    C7745981   0.962   4.986   0.547  0.1818  0.1117  0.5921
  153MOL    C7845982   0.918   4.972   0.695  0.1351  0.0676 -0.1090
  153MOL    C7945983   1.028   5.012   0.795 -0.0522 -0.3907 -0.2017
  153MOL    C8045984   1.106   4.928   0.875 -0.2891 -0.4249  0.1052
  153MOL    C8145985   1.212   4.977   0.957  0.6913 -0.3892  0.5317
  153MOL    C8245986   1.216   5.116   0.961  0.1702  0.3510 -0.1008
  153MOL    C8345987   1.130   5.199   0.885 -0.1541 -0.2057 -0.4344
  153MOL    N8445988   1.039   5.146   0.806  0.1391  0.1239 -0.0052
  153MOL    H8545989   0.960   5.092   0.521  1.5807 -0.2423 -1.0015
  153MOL    H8645990   1.066   4.954   0.553  0.3543  0.3732 -0.9313
  153MOL    H8745991   0.915   4.864   0.707  1.0059 -0.3976 -3.4786
  153MOL    H8845992   1.084   4.823   0.866 -2.0035  0.0270 -1.2006
  153MOL    H8945993   1.270   4.909   1.018  0.6668  0.4521  1.5056
  153MOL    H9045994   1.283   5.164   1.031  1.0296  0.1247 -0.7519
  153MOL    H9145995   1.132   5.307   0.886  0.6363 -0.2213 -0.2545
  153MOL    C9245996   0.785   5.032   0.724  1.0274 -0.4603  0.3318
  153MOL    C9345997   0.718   4.999   0.862 -0.1974  0.7767 -0.3377
  153MOL    C9445998   0.603   5.097   0.885 -0.0401  0.2960 -1.2742
  153MOL    C9545999   0.606   5.184   1.001 -0.4817  0.4780 -0.2655
  153MOL    C9646000   0.514   5.292   1.003  0.1753 -0.0566  1.3522
  153MOL    C9746001   0.426   5.305   0.889 -1.0461 -0.5439 -0.0105
  153MOL    C9846002   0.419   5.204   0.793 -0.3760  0.4081 -0.3030
  153MOL    N9946003   0.511   5.106   0.793  0.3626  0.0132  0.4680
  153MOL   H10046004   0.712   5.010   0.646  0.1419  0.5731  0.8567
  153MOL   H10146005   0.795   5.140   0.713  2.8440 -0.3681  2.4146
  153MOL   H10246006   0.794   5.020   0.937 -1.1061  1.7489  0.3358
  153MOL   H10346007   0.682   5.179   1.077  0.7592 -0.6587 -1.5592
  153MOL   H10446008   0.525   5.370   1.077 -0.3413 -1.2929  2.7567
  153MOL   H10546009   0.365   5.394   0.886  1.5260  1.3293  1.3328
  153MOL   H10646010   0.357   5.204   0.705  0.2210 -0.8783 -0.7356
  153MOL   C10746011   0.670   4.854   0.872  0.6534  0.0714 -0.0697
  153MOL   C10846012   0.750   4.777   0.979  1.0819  0.0914  0.0403
  153MOL   C10946013   0.690   4.803   1.120  0.7157  0.8845 -0.3253
  153MOL   C11046014   0.758   4.892   1.194  0.8493 -0.6261 -0.4196
  153MOL   C11146015   0.709   4.921   1.319 -0.8969  0.0782 -0.9296
  153MOL   C11246016   0.594   4.852   1.364  0.7728  0.4208  0.5358
  153MOL   C11346017   0.528   4.762   1.279  0.0927 -0.4900  0.1294
  153MOL   N11446018   0.577   4.734   1.159  0.0070  0.1648  0.5423
  153MOL   H11546019   0.682   4.809   0.773 -2.1922 -0.6204 -0.1543
  153MOL   H11646020   0.562   4.843   0.885  0.5118  0.6272 -0.7057
  153MOL   H11746021   0.851   4.819   0.974  1.7614 -1.5807 -1.0177
  153MOL   H11846022   0.853   4.936   1.166  1.8866 -2.7460 -0.3348
  153MOL   H11946023   0.759   4.995   1.379  0.7849 -0.4594 -1.6241
  153MOL   H12046024   0.565   4.869   1.467 -1.3863 -0.6481  0.1317
  153MOL   H12146025   0.453   4.691   1.309  0.8135 -1.5683 -0.5650
  153MOL   C12246026   0.741   4.627   0.930  0.3565  0.0354 -0.3028
  153MOL   C12346027   0.799   4.514   1.027  0.6333  0.1853  0.2265
  153MOL   C12446028   0.787   4.378   0.966 -0.0587  0.3041  0.5151
  153MOL   C12546029   0.676   4.299   0.998  0.3690  0.5465  0.0636
  153MOL   C12646030   0.661   4.179   0.920  0.2580  0.2495 -0.1184
  153MOL   C12746031   0.758   4.143   0.827  0.5767  0.1289  0.1099
  153MOL   C12846032   0.865   4.232   0.804 -0.2939 -0.3017 -0.0435
  153MOL   N12946033   0.880   4.348   0.868 -0.3116  0.0473 -0.5214
  153MOL   H13046034   0.795   4.615   0.836  0.5827 -2.9767  0.1753
  153MOL   H13146035   0.637   4.606   0.905 -1.0874  1.5194  4.0618
  153MOL   H13246036   0.728   4.524   1.109  0.8647 -0.2656  0.4881
  153MOL   H13346037   0.618   4.324   1.086 -0.1430 -2.6109  0.6676
  153MOL   H13446038   0.587   4.103   0.943  1.3950 -0.8224  0.0548
  153MOL   H13546039   0.748   4.054   0.767  0.2134  0.9653 -1.0843
  153MOL   H13646040   0.950   4.200   0.745  0.3614 -2.8311  2.1523
  153MOL   C13746041   0.939   4.551   1.069 -0.6149 -0.0601  0.5630
  153MOL   C13846042   1.007   4.452   1.168  0.2450 -0.1937 -1.0014
  153MOL   C13946043   1.148   4.504   1.187  0.2309  0.1600 -0.8067
  153MOL   C14046044   1.252   4.433   1.129 -0.9486 -0.8177 -0.2170
  153MOL   C14146045   1.382   4.487   1.139  0.0808  0.5251 -0.1084
  153MOL   C14246046   1.405   4.607   1.214  0.4360  0.0685  0.6382
  153MOL   C14346047   1.291   4.671   1.266  0.5248 -0.9316  0.8181
  153MOL   N14446048   1.167   4.620   1.253 -0.3085 -0.0765  1.2344
  153MOL   H14546049   0.927   4.651   1.112  1.3808 -0.5005  2.2502
  153MOL   H14646050   1.003   4.568   0.983  0.8134  0.2107  1.6570
  153MOL   H14746051   1.011   4.364   1.103  0.1820 -1.5008  0.7071
  153MOL   H14846052   1.235   4.335   1.087  2.6120 -1.9371  0.7829
  153MOL   H14946053   1.463   4.437   1.090  0.0108  0.5176 -0.2158
  153MOL   H15046054   1.501   4.640   1.251 -0.1424 -0.2389  2.4503
  153MOL   H15146055   1.300   4.753   1.335  0.2916  0.5194 -0.8500
  153MOL   C15246056   0.932   4.420   1.297 -0.8392  0.2177  0.5514
  153MOL   C15346057   0.982   4.285   1.358 -0.7574  0.0403 -0.2750
  153MOL   C15446058   1.131   4.270   1.402 -0.7203 -0.7172  0.4765
  153MOL   C15546059   1.211   4.174   1.345  0.2532 -0.0429  0.3553
  153MOL   C15646060   1.339   4.160   1.390  0.0194 -0.4764 -0.6840
  153MOL   C15746061   1.386   4.249   1.485 -0.1188  0.9482  0.0360
  153MOL   C15846062   1.303   4.345   1.538 -0.5904 -0.3689  0.3573
  153MOL   N15946063   1.177   4.359   1.496 -0.0685 -0.3971 -0.3104
  153MOL   H16046064   0.825   4.416   1.278 -0.3612  0.7301 -2.4474
  153MOL   H16146065   0.949   4.503   1.366 -0.2837  0.5528  0.0170
  153MOL   H16246066   0.967   4.205   1.286  3.4851 -0.5734 -0.6256
  153MOL   H16346067   1.170   4.104   1.273  0.0088 -0.2576  0.7038
  153MOL   H16446068   1.395   4.074   1.355 -0.5885 -1.1549 -0.0086
  153MOL   H16546069   1.492   4.240   1.503 -0.2006  1.6396  0.8593
  153MOL   H16646070   1.349   4.408   1.612 -2.4168  1.5733 -0.1249
  153MOL   C16746071   0.889   4.243   1.479  0.9145 -0.2506  0.5036
  153MOL   C16846072   0.938   4.129   1.567 -0.1940 -0.4060 -0.2864
  153MOL   C16946073   0.856   4.129   1.694  0.8217 -0.0066  0.0481
  153MOL   C17046074   0.901   4.195   1.810 -1.0181  0.2554  0.2717
  153MOL   C17146075   0.820   4.194   1.923  0.5050 -0.4932  0.2883
  153MOL   C17246076   0.696   4.125   1.911 -0.3440  0.3430 -0.0860
  153MOL   C17346077   0.658   4.065   1.791  0.1024  0.2627  0.3070
  153MOL   N17446078   0.736   4.074   1.680 -0.1731 -0.1464 -0.4157
  153MOL   H17546079   0.788   4.223   1.443  0.1105 -0.2116  2.7004
  153MOL   H17646080   0.874   4.337   1.533 -1.1556 -1.3926  1.9958
  153MOL   H17746081   1.037   4.157   1.604 -1.7690  2.5355  1.8352
  153MOL   H17846082   0.998   4.242   1.814 -0.3456 -0.7985 -2.6822
  153MOL   H17946083   0.864   4.238   2.011  0.1711  0.6995 -0.1230
  153MOL   H18046084   0.625   4.127   1.992 -1.2590 -0.9784 -0.8519
  153MOL   H18146085   0.566   4.012   1.775 -0.5415  1.7474 -0.9337
  153MOL   C18246086   0.953   3.988   1.503 -0.4327 -0.2315  0.3199
  153MOL   C18346087   0.997   3.861   1.588  0.1156  0.3016  0.1879
  153MOL   C18446088   1.143   3.863   1.618  0.9972 -0.4710 -0.6139
  153MOL   C18546089   1.189   3.921   1.741  0.0327  0.0967 -0.1049
  153MOL   C18646090   1.326   3.904   1.771 -0.6491  0.1024  0.1116
  153MOL   C18746091   1.408   3.832   1.685  0.4756 -0.4221  0.1125
  153MOL   C18846092   1.354   3.786   1.566  1.0956  0.4130 -1.0472
  153MOL   N18946093   1.224   3.795   1.533  0.2485 -0.2644 -0.3016
  153MOL   H19046094   1.032   3.998   1.428  0.7586  0.5357  1.6460
  153MOL   H19146095   0.870   3.957   1.440  0.3362  1.8672 -1.7669
  153MOL   H19246096   0.997   3.780   1.514  1.6498 -0.3143  0.8484
  153MOL   H19346097   1.121   3.953   1.818 -0.2307 -0.5093 -0.0765
  153MOL   H19446098   1.369   3.954   1.857  0.2917  0.5557 -0.6160
  153MOL   H19546099   1.513   3.817   1.704  1.0089  1.9269 -0.7291
  153MOL   H19646100   1.409   3.737   1.486  2.6479 -1.2139  0.9697
  153MOL   C19746101   0.895   3.804   1.689 -0.4583 -0.1385  0.8812
  153MOL   C19846102   0.891   3.647   1.692  0.0361 -0.5619  0.3164
  153MOL   C19946103   1.022   3.591   1.744 -0.0061 -0.1474  0.0793
  153MOL   C20046104   1.108   3.508   1.674  0.8521 -0.8713 -0.4882
  153MOL   C20146105   1.221   3.456   1.737 -0.3433  0.7944  0.3972
  153MOL   C20246106   1.237   3.478   1.872  0.0395  0.2970 -0.2415
  153MOL   C20346107   1.146   3.564   1.936  0.9643 -0.2865  0.1718
  153MOL   N20446108   1.048   3.625   1.872  0.0073  0.1936  0.0262
  153MOL   H20546109   0.792   3.818   1.658 -0.6557  2.9254  2.7378
  153MOL   H20646110   0.900   3.835   1.793 -4.7352  0.7444  0.8868
  153MOL   H20746111   0.881   3.601   1.594  1.5656 -1.9468  0.7955
  153MOL   H20846112   1.080   3.490   1.571 -1.2552  2.3958 -0.5638
  153MOL   H20946113   1.291   3.395   1.682 -1.7289 -0.4765  0.0046
  153MOL   H21046114   1.318   3.437   1.930  0.1491 -0.4712 -0.9284
  153MOL   H21146115   1.165   3.593   2.038  0.2590 -0.1154  0.2580
  153MOL   C21246116   0.782   3.574   1.772 -0.6940  0.3968 -0.1592
  153MOL   C21346117   0.643   3.607   1.717 -0.0631  0.2644  0.1166
  153MOL   C21446118   0.630   3.570   1.568  0.1304  0.1324 -0.1247
  153MOL   C21546119   0.585   3.663   1.478  0.6629 -0.1484 -0.1801
  153MOL   C21646120   0.577   3.634   1.346 -0.2930  0.1518 -0.0174
  153MOL   C21746121   0.617   3.504   1.300 -0.3033  0.6748 -0.0794
  153MOL   C21846122   0.663   3.411   1.400 -0.1873 -0.4725 -0.2880
  153MOL   N21946123   0.679   3.449   1.531  0.3547  0.2448 -0.5129
  153MOL   H22046124   0.785   3.600   1.878 -1.5894  1.5868 -0.4112
  153MOL   H22146125   0.807   3.469   1.762  0.1886  0.4758  1.0638
  153MOL   H22246126   0.620   3.714   1.714 -0.4606  0.1484 -1.4384
  153MOL   H22346127   0.543   3.755   1.516 -4.5293 -1.8640 -1.3309
  153MOL   H22446128   0.546   3.715   1.282 -1.1710 -1.4355 -1.6489
  153MOL   H22546129   0.613   3.485   1.194  1.5261  1.7329 -0.3557
  153MOL   H22646130   0.691   3.310   1.373 -0.3218 -1.0689  1.7036
  153MOL   C22746131   0.533   3.533   1.801  0.0581 -0.3132 -0.8724
  153MOL   C22846132   0.491   3.605   1.935  0.2224 -0.6216  0.2700
  153MOL   C22946133   0.404   3.725   1.898  0.4893  1.0959 -0.3308
  153MOL   C23046134   0.418   3.851   1.957  0.0470 -0.2844  0.5442
  153MOL   C23146135   0.334   3.957   1.917 -0.4731 -0.2574  0.9585
  153MOL   C23246136   0.231   3.924   1.835  0.3112  0.4010  0.3771
  153MOL   C23346137   0.212   3.790   1.796  0.2514  0.1578 -0.1408
  153MOL   N23446138   0.298   3.693   1.820 -0.4404 -0.3615  0.4985
  153MOL   H23546139   0.552   3.427   1.814  1.3241  0.0367  0.2202
  153MOL   H23646140   0.447   3.524   1.735 -0.2561  0.3844 -0.5608
  153MOL   H23746141   0.574   3.638   1.997  0.0207  0.3042  0.0653
  153MOL   H23846142   0.502   3.880   2.018  0.1361  1.3558 -0.3265
  153MOL   H23946143   0.335   4.062   1.944  0.4977 -0.0639  0.1974
  153MOL   H24046144   0.161   4.000   1.800 -1.4594 -2.1222 -1.7670
  153MOL   H24146145   0.130   3.766   1.730 -0.8809  1.1369  0.8863
  153MOL   C24246146   0.419   3.525   2.043  0.0016 -0.1564  0.7329
  153MOL   C24346147   0.486   3.395   2.088  0.0309  0.5737 -0.2393
  153MOL   C24446148   0.629   3.414   2.121  0.2205  0.1369 -0.1800
  153MOL   C24546149   0.726   3.351   2.040 -0.2691  0.0779  0.4633
  153MOL   C24646150   0.859   3.359   2.082 -0.6497 -0.3081  0.0236
  153MOL   C24746151   0.884   3.436   2.196  0.1987  0.0298  0.1464
  153MOL   C24846152   0.784   3.496   2.272  0.6021 -0.4558  0.5967
  153MOL   N24946153   0.659   3.484   2.231 -0.0136 -0.3321  1.0538
  153MOL   H25046154   0.318   3.509   2.006 -0.1998  0.6038  0.9330
  153MOL   H25146155   0.417   3.586   2.134 -1.6856  3.0605 -1.3644
  153MOL   H25246156   0.485   3.325   2.004  0.6791 -2.2182  1.9905
  153MOL   H25346157   0.704   3.301   1.947 -0.0025 -0.1300  0.5114
  153MOL   H25446158   0.937   3.314   2.022 -0.5598 -0.4625  0.2539
  153MOL   H25546159   0.986   3.441   2.232  0.4041 -0.6376 -0.3302
  153MOL   H25646160   0.813   3.555   2.358  2.7322 -0.2917 -0.2010
  153MOL   C25746161   0.404   3.328   2.204 -0.8469 -0.3211  0.0982
  153MOL   C25846162   0.452   3.193   2.262 -0.1530 -0.4163 -0.2759
  153MOL   C25946163   0.394   3.186   2.402  0.1532  0.3694  0.0992
  153MOL   C26046164   0.480   3.161   2.517  0.5477 -0.5066 -0.4543
  153MOL   C26146165   0.408   3.140   2.642  0.3933 -0.5540  0.0808
  153MOL   C26246166   0.270   3.141   2.648  0.4088 -0.4452  0.7845
  153MOL   C26346167   0.200   3.179   2.529  0.3813  0.2059 -0.5923
  153MOL   N26446168   0.257   3.199   2.416  0.2894 -0.3059  0.8215
  153MOL   H26546169   0.298   3.317   2.181 -1.1894  1.7519  0.5335
  153MOL   H26646170   0.413   3.399   2.287 -0.8294  0.9031 -0.9341
  153MOL   H26746171   0.559   3.185   2.280 -0.3349 -1.8510  0.2492
  153MOL   H26846172   0.588   3.157   2.525  0.4755 -0.5332  0.6891
  153MOL   H26946173   0.463   3.110   2.729  1.5495  0.0329 -0.4330
  153MOL   H27046174   0.227   3.140   2.747 -1.8347 -0.3613 -0.1551
  153MOL   H27146175   0.101   3.221   2.538 -0.0016 -0.7336 -0.3855
  153MOL   C27246176   0.413   3.081   2.162  1.0798 -0.1197 -0.5676
  153MOL   C27346177   0.268   3.074   2.102  0.0487  0.1141  0.3544
  153MOL   C27446178   0.264   3.147   1.963  0.1761 -0.5072  0.7841
  153MOL   C27546179   0.191   3.264   1.946  0.3003 -0.0444 -0.3028
  153MOL   C27646180   0.209   3.335   1.830 -0.1480  0.1897 -0.0592
  153MOL   C27746181   0.287   3.283   1.720 -0.7428 -0.3615 -0.6807
  153MOL   C27846182   0.361   3.168   1.746  0.2957  0.1166  0.0150
  153MOL   N27946183   0.354   3.105   1.867 -0.1646  0.2270 -0.4231
  153MOL   H28046184   0.434   2.990   2.219  2.1714 -1.5338 -3.1557
  153MOL   H28146185   0.487   3.087   2.082  1.1153 -1.6319 -0.6699
  153MOL   H28246186   0.204   3.121   2.176 -1.0671 -0.4655 -0.2364
  153MOL   H28346187   0.136   3.305   2.029 -1.8007 -1.1992 -1.0558
  153MOL   H28446188   0.163   3.429   1.807  0.4834  0.0417 -2.0287
  153MOL   H28546189   0.303   3.347   1.634 -1.7031  1.3699  0.3890
  153MOL   H28646190   0.424   3.131   1.667  0.0039 -0.4454  0.0455
  153MOL   C28746191   0.227   2.927   2.086 -0.3111  0.3188  0.0647
  153MOL   C28846192   0.074   2.909   2.087  0.2637 -1.0267  0.2348
  153MOL   C28946193   0.031   2.846   2.217  0.7617  0.7005 -0.3871
  153MOL   C29046194   0.031   2.912   2.341 -0.1652  0.2482 -0.1338
  153MOL   C29146195   8.149   2.835   2.452  0.2678 -0.2845 -0.1470
  153MOL   C29246196   8.106   2.705   2.440 -0.5530  0.3330 -0.2325
  153MOL   C29346197   8.111   2.654   2.312 -0.2780  0.0414 -0.0149
  153MOL   N29446198   8.151   2.717   2.206 -0.0269  0.1877  0.5389
  153MOL   H29546199   0.267   2.860   2.161 -1.1791 -0.2942 -0.0035
  153MOL   H29646200   0.275   2.891   1.995  0.9843 -0.6186  1.1178
  153MOL   H29746201   0.063   2.846   1.998  0.3122  0.7646 -1.0654
  153MOL   H29846202   0.047   3.018   2.345 -0.6732  0.4358 -2.3774
  153MOL   H29946203   8.142   2.879   2.551  0.9299 -1.1574  0.2968
  153MOL   H30046204   8.067   2.646   2.522 -0.0577 -0.5944 -0.6583
  153MOL   H30146205   8.090   2.548   2.306  0.2965 -0.0117 -1.3835
  153MOL   H30246206   0.008   2.993   2.068 -2.0619 -3.3397 -2.2983
  154MOL     C146207   2.167   8.084   1.200 -0.4848 -1.0337 -0.8685
  154MOL     C246208   2.010   8.099   1.217 -0.0363 -0.1429 -0.2112
  154MOL     C346209   1.983   8.108   1.362 -0.6163  0.9763  0.3756
  154MOL     C446210   1.919   8.002   1.433 -0.2445  0.1845  0.4819
  154MOL     C546211   1.885   8.021   1.569 -0.7424 -0.6767  0.4403
  154MOL     C646212   1.919   8.145   1.635  0.7123 -0.0214  0.2340
  154MOL     C746213   1.977   0.088   1.550  0.2824 -0.3871 -0.6140
  154MOL     N846214   2.012   0.072   1.421  0.0182  0.2657  0.1796
  154MOL     H946215   2.210   0.029   1.225 -1.0430 -1.0968  0.4098
  154MOL    H1046216   2.211   8.011   1.269 -0.2810 -0.3184 -0.2390
  154MOL    H1146217   1.972   8.009   1.168 -1.8861 -0.6082  1.9952
  154MOL    H1246218   1.877   7.911   1.392  1.5107 -0.4036 -0.0893
  154MOL    H1346219   1.821   7.945   1.613 -2.5363  0.6970  0.2523
  154MOL    H1446220   1.889   0.028   1.733 -0.2498 -0.4080  0.0799
  154MOL    H1546221   1.993   0.185   1.595 -2.2182 -0.1337 -0.1668
  154MOL    H1646222   2.188   8.064   1.095 -1.2062 -0.6694 -1.0870
  154MOL    C1746223   1.959   0.073   1.136  0.2492  0.1938 -0.6574
  154MOL    C1846224   2.002   0.095   0.985  0.3452 -0.2270 -0.3641
  154MOL    C1946225   1.985   8.132   0.889  0.8882 -0.2518 -0.4519
  154MOL    C2046226   1.857   8.102   0.841 -0.0886 -0.7245 -0.4760
  154MOL    C2146227   1.847   8.006   0.735 -0.1875 -0.2366  0.3070
  154MOL    C2246228   1.961   7.939   0.688 -0.3044 -0.1467 -0.2883
  154MOL    C2346229   2.087   7.965   0.754  0.1484 -0.9216 -0.0383
  154MOL    N2446230   2.095   8.067   0.846 -0.2593  0.5870  0.3582
  154MOL    H2546231   1.994   0.166   1.180  1.0373 -1.3542  2.0792
  154MOL    H2646232   1.850   0.074   1.136  0.2263 -1.3731  0.4784
  154MOL    H2746233   2.111   0.099   0.989  0.3077  0.1993  0.2897
  154MOL    H2846234   1.776   0.013   0.874  1.8579  1.2956  0.5687
  154MOL    H2946235   1.749   7.990   0.694 -0.4402  3.4142 -0.6867
  154MOL    H3046236   1.952   7.864   0.610  2.1744 -0.4186 -0.3769
  154MOL    H3146237   2.177   7.922   0.712  0.9005 -0.2202  0.8405
  154MOL    C3246238   1.942   0.229   0.926  0.3724  0.5422 -0.8052
  154MOL    C3346239   1.949   0.254   0.779 -0.1188  0.4944 -0.2533
  154MOL    C3446240   1.846   0.347   0.725 -0.3916  0.0793 -1.0470
  154MOL    C3546241   1.753   0.318   0.626  0.5182  0.1449 -0.1530
  154MOL    C3646242   1.676   0.418   0.582  1.0573  0.0375 -0.5337
  154MOL    C3746243   1.669   0.545   0.646 -0.6166  0.2395 -0.4435
  154MOL    C3846244   1.755   0.560   0.754 -0.1493  0.0428  0.0965
  154MOL    N3946245   1.848   0.466   0.783  0.3145 -0.1169 -0.4216
  154MOL    H4046246   1.994   0.314   0.970  0.8494  1.1925 -2.5758
  154MOL    H4146247   1.839   0.228   0.962  0.5935  0.9560 -0.1600
  154MOL    H4246248   1.925   0.161   0.727 -0.1931 -0.5007  1.5414
  154MOL    H4346249   1.753   0.223   0.575  0.1559 -0.6429  1.2965
  154MOL    H4446250   1.614   0.408   0.494 -0.9443  0.7550  0.7597
  154MOL    H4546251   1.594   0.618   0.620  0.9400  1.7022 -0.8771
  154MOL    H4646252   1.771   0.652   0.809  1.8459 -0.9585  1.2489
  154MOL    C4746253   2.095   0.284   0.734 -0.2137 -0.3447  0.4215
  154MOL    C4846254   2.144   0.249   0.595 -0.0380  0.6878  1.1670
  154MOL    C4946255   2.057   0.296   0.481 -0.2016  0.9503 -0.4519
  154MOL    C5046256   2.030   0.434   0.458 -0.1216 -0.2914  0.0227
  154MOL    C5146257   1.931   0.468   0.367  0.1557  0.2872  0.1531
  154MOL    C5246258   1.867   0.371   0.290  0.0386 -0.3908  0.2598
  154MOL    C5346259   1.899   0.238   0.314 -0.2068  0.2782 -0.3154
  154MOL    N5446260   1.989   0.201   0.408  0.2947 -0.3697 -0.0257
  154MOL    H5546261   2.164   0.224   0.793 -0.3018 -2.0523 -1.1629
  154MOL    H5646262   2.124   0.388   0.748  2.2762 -0.6880 -1.8627
  154MOL    H5746263   2.141   0.140   0.600  0.8044  0.6847  1.6732
  154MOL    H5846264   2.084   0.508   0.514  0.4948 -0.9916  0.3619
  154MOL    H5946265   1.897   0.570   0.358 -2.3755 -0.3991  1.5903
  154MOL    H6046266   1.779   0.392   0.232  1.6842  1.3624 -1.6495
  154MOL    H6146267   1.825   0.170   0.276 -1.1467  1.2768 -0.2924
  154MOL    C6246268   2.289   0.286   0.566  0.6834 -1.0415  0.3536
  154MOL    C6346269   2.400   0.239   0.655 -0.0841 -0.8579 -0.2986
  154MOL    C6446270   2.460   0.098   0.609  0.4128 -0.4813 -0.5742
  154MOL    C6546271   2.500   8.150   0.701  0.2525  0.6391 -0.0122
  154MOL    C6646272   2.557   8.034   0.662  0.5228  0.3739  0.0048
  154MOL    C6746273   2.571   8.018   0.526  0.3836  0.4033  0.3794
  154MOL    C6846274   2.510   8.108   0.432 -0.3111  0.3662 -0.2633
  154MOL    N6946275   2.463   0.074   0.476 -0.5396  0.1071  0.7565
  154MOL    H7046276   2.289   0.395   0.569  3.9695 -0.9744  0.0262
  154MOL    H7146277   2.321   0.267   0.463  2.2067 -2.5662  1.1053
  154MOL    H7246278   2.367   0.219   0.757 -0.5745  4.4471  0.7233
  154MOL    H7346279   2.485   0.020   0.806  0.2089 -0.7127  0.2720
  154MOL    H7446280   2.590   7.964   0.737  0.3864  0.2036 -0.0948
  154MOL    H7546281   2.628   7.933   0.491 -1.7055 -0.5444 -0.8253
  154MOL    H7646282   2.512   8.090   0.326  1.7031  0.2212 -0.2172
  154MOL    C7746283   2.517   0.336   0.669  0.0256  0.5289  0.1200
  154MOL    C7846284   2.481   0.446   0.776  0.4847  0.4383 -1.2187
  154MOL    C7946285   2.446   0.385   0.909  0.8190  0.5629 -0.8639
  154MOL    C8046286   2.321   0.410   0.968  0.0339 -0.6475 -0.7378
  154MOL    C8146287   2.300   0.340   1.087  0.8304 -0.6808 -0.4916
  154MOL    C8246288   2.402   0.269   1.155  0.5521  0.0033  1.1312
  154MOL    C8346289   2.522   0.249   1.086  0.4776 -0.4938 -0.6702
  154MOL    N8446290   2.541   0.304   0.966 -0.0159  0.7341 -0.5682
  154MOL    H8546291   2.535   0.386   0.573 -2.4541  0.4232 -0.4331
  154MOL    H8646292   2.605   0.279   0.699  0.5863  1.3705  0.0618
  154MOL    H8746293   2.393   0.505   0.749 -0.9355 -0.8700  0.4876
  154MOL    H8846294   2.248   0.476   0.924  0.4502  0.1385 -0.2514
  154MOL    H8946295   2.210   0.356   1.144 -1.1291  0.3423 -3.7964
  154MOL    H9046296   2.378   0.217   1.246  0.3081  0.9103  1.5824
  154MOL    H9146297   2.606   0.189   1.118  1.8809  0.0918 -3.1235
  154MOL    C9246298   2.601   0.544   0.791  0.9340  0.7342  0.1874
  154MOL    C9346299   2.646   0.623   0.666  0.1676 -0.4397 -0.4491
  154MOL    C9446300   2.530   0.687   0.590  0.0666  0.4875  0.1725
  154MOL    C9546301   2.477   0.629   0.476  0.1841  0.1631  0.5304
  154MOL    C9646302   2.381   0.704   0.404 -0.2960 -0.4017 -0.8836
  154MOL    C9746303   2.325   0.823   0.459  0.0053 -0.3945  1.2897
  154MOL    C9846304   2.374   0.860   0.589 -0.5027 -0.5516  0.1069
  154MOL    N9946305   2.476   0.798   0.648 -0.6286 -0.5800  1.3274
  154MOL   H10046306   2.688   0.500   0.840 -0.3935 -1.3771  0.7190
  154MOL   H10146307   2.565   0.612   0.868 -0.4679  1.0957 -0.7814
  154MOL   H10246308   2.689   0.547   0.601  2.2034  2.1238 -2.1892
  154MOL   H10346309   2.514   0.537   0.433 -0.3213  0.1220  0.1779
  154MOL   H10446310   2.345   0.666   0.309  1.0772 -0.5719 -1.3416
  154MOL   H10546311   2.259   0.886   0.402  2.8684 -0.9276 -2.8206
  154MOL   H10646312   2.332   0.944   0.642  0.5210  0.2183 -0.2961
  154MOL   C10746313   2.768   0.725   0.687  0.2795  0.1128 -0.4047
  154MOL   C10846314   2.903   0.653   0.711 -0.5669 -0.4738  0.2405
  154MOL   C10946315   2.918   0.528   0.626 -0.4521  0.1012 -0.0593
  154MOL   C11046316   2.926   0.405   0.692  0.3165 -0.2694 -0.3568
  154MOL   C11146317   2.933   0.287   0.621  0.0611  0.1693  0.3762
  154MOL   C11246318   2.928   0.292   0.478  0.2193 -0.0590 -0.1968
  154MOL   C11346319   2.948   0.421   0.425 -0.7382 -0.4205 -0.1398
  154MOL   N11446320   2.933   0.540   0.491  0.3360  0.3357  0.0067
  154MOL   H11546321   2.753   0.805   0.759  2.6627 -0.3556  0.6300
  154MOL   H11646322   2.778   0.779   0.593  1.2520  0.9448  0.1748
  154MOL   H11746323   2.916   0.627   0.816 -0.2975 -0.9325  0.0930
  154MOL   H11846324   2.913   0.412   0.799 -2.0863  1.2493 -0.6994
  154MOL   H11946325   2.946   0.188   0.662  0.5827  0.8640  1.9178
  154MOL   H12046326   2.921   0.199   0.424 -2.6942  0.9144 -1.6291
  154MOL   H12146327   2.962   0.422   0.318 -3.0068  0.2202 -0.4589
  154MOL   C12246328   3.025   0.742   0.669  0.3842  0.2654 -0.4946
  154MOL   C12346329   3.086   0.825   0.783 -0.3780 -0.2156  0.2177
  154MOL   C12446330   3.192   0.746   0.856  0.2883  0.0950 -0.0025
  154MOL   C12546331   3.152   0.687   0.975  0.2854  0.2063 -0.3663
  154MOL   C12646332   3.248   0.625   1.058 -0.0792  0.1637 -0.3121
  154MOL   C12746333   3.377   0.622   1.012 -0.0863  0.1480 -0.2798
  154MOL   C12846334   3.406   0.680   0.886  0.0911  0.5822 -0.6030
  154MOL   N12946335   3.314   0.740   0.807 -0.7615 -0.6749 -0.6211
  154MOL   H13046336   3.001   0.813   0.590  2.6591  0.0936 -1.3855
  154MOL   H13146337   3.104   0.677   0.631  1.1400 -0.2214  1.8041
  154MOL   H13246338   3.006   0.854   0.852 -0.2859  0.0044  0.2327
  154MOL   H13346339   3.049   0.691   1.006  0.0808 -2.6809 -0.5583
  154MOL   H13446340   3.233   0.575   1.152 -1.8111 -0.1467 -0.7442
  154MOL   H13546341   3.450   0.565   1.068  0.8624  1.7173  0.1021
  154MOL   H13646342   3.505   0.669   0.845  0.1846  0.6453 -0.3944
  154MOL   C13746343   3.149   0.956   0.737  0.8361  0.1821  0.2877
  154MOL   C13846344   3.059   1.074   0.683 -0.6674 -0.4679 -0.1594
  154MOL   C13946345   2.929   1.090   0.768  0.4409  0.9354 -0.4648
  154MOL   C14046346   2.803   1.068   0.717 -0.7852  0.0202 -0.1238
  154MOL   C14146347   2.694   1.097   0.803  0.8760  0.3295  0.2106
  154MOL   C14246348   2.711   1.138   0.933  0.0498  0.7960 -0.0961
  154MOL   C14346349   2.842   1.169   0.968  0.3143  1.2415 -0.3045
  154MOL   N14446350   2.947   1.142   0.891 -0.8293 -0.4551 -0.9691
  154MOL   H14546351   3.224   0.937   0.660 -0.8837 -2.5189 -0.7816
  154MOL   H14646352   3.203   1.001   0.821 -0.2898 -0.6021  1.4426
  154MOL   H14746353   3.023   1.038   0.587 -4.1906  3.1615 -0.3126
  154MOL   H14846354   2.794   1.031   0.616 -0.2930 -0.2876 -0.0583
  154MOL   H14946355   2.595   1.081   0.762  0.8667  0.9999 -0.0275
  154MOL   H15046356   2.625   1.168   0.991  0.2749  1.3997 -0.0679
  154MOL   H15146357   2.870   1.210   1.064  1.0384 -1.2781  0.6239
  154MOL   C15246358   3.126   1.209   0.645 -0.1165 -0.5573  0.4825
  154MOL   C15346359   3.053   1.316   0.570 -0.0608  0.9018 -0.6660
  154MOL   C15446360   2.945   1.388   0.652 -0.5694 -0.5694  0.4827
  154MOL   C15546361   2.983   1.453   0.778 -0.6248  0.0335  0.2318
  154MOL   C15646362   2.882   1.506   0.856 -0.0238 -0.1764  0.1712
  154MOL   C15746363   2.750   1.504   0.807 -0.1231  0.3278  0.5288
  154MOL   C15846364   2.722   1.445   0.680  0.1843  0.4134  0.8690
  154MOL   N15946365   2.815   1.394   0.604 -0.5183  0.0253  0.7379
  154MOL   H16046366   3.205   1.173   0.579 -0.8738 -2.0531  0.3516
  154MOL   H16146367   3.180   1.250   0.731 -0.7303  0.1030  0.5528
  154MOL   H16246368   3.010   1.253   0.492  1.4990  0.1932 -0.9599
  154MOL   H16346369   3.084   1.474   0.810 -0.4153 -0.6614  0.0325
  154MOL   H16446370   2.899   1.561   0.947  0.6678  1.9698 -1.2228
  154MOL   H16546371   2.668   1.541   0.866  0.3326  1.8939  0.2164
  154MOL   H16646372   2.627   1.455   0.629 -0.1866 -1.3765  1.1710
  154MOL   C16746373   3.136   1.427   0.490 -0.0105  0.0885  0.5615
  154MOL   C16846374   3.248   1.372   0.398  0.5721 -0.5334 -0.1730
  154MOL   C16946375   3.187   1.303   0.275 -0.3790  0.4753 -0.6172
  154MOL   C17046376   3.183   1.161   0.275 -0.1291  0.2110 -0.0961
  154MOL   C17146377   3.120   1.093   0.166 -0.8918  0.6827 -0.5845
  154MOL   C17246378   3.059   1.168   0.073 -0.1138 -0.1884  0.7227
  154MOL   C17346379   3.057   1.309   0.089  0.1642 -0.1381 -0.7363
  154MOL   N17446380   3.124   1.377   0.186 -0.2700 -0.4763 -0.1733
  154MOL   H17546381   3.182   1.503   0.553 -0.7397  0.8915  0.1232
  154MOL   H17646382   3.063   1.488   0.438 -1.1444 -0.9977  0.8421
  154MOL   H17746383   3.303   1.297   0.455  3.2131  2.1062  0.8718
  154MOL   H17846384   3.226   1.108   0.358 -2.3227  0.2659  1.1174
  154MOL   H17946385   3.113   0.988   0.145  1.7018 -0.0965  2.2173
  154MOL   H18046386   3.012   1.129   8.136  0.7928  0.1073  0.1068
  154MOL   H18146387   2.994   1.363   0.019 -0.2862  2.8729  1.8807
  154MOL   C18246388   3.356   1.471   0.356  0.4851 -0.3311  0.1367
  154MOL   C18346389   3.468   1.415   0.264  0.1957  0.3398  0.4767
  154MOL   C18446390   3.574   1.524   0.243 -0.0528 -0.2392  0.1173
  154MOL   C18546391   3.600   1.571   0.111 -0.2809 -0.1994  0.3225
  154MOL   C18646392   3.715   1.645   0.086  0.1262  0.2451  0.2030
  154MOL   C18746393   3.815   1.642   0.185 -0.1165  0.2216 -0.2552
  154MOL   C18846394   3.770   1.604   0.312 -0.0041  0.7142 -0.4931
  154MOL   N18946395   3.651   1.547   0.348 -0.3471 -0.9090 -0.5804
  154MOL   H19046396   3.409   1.502   0.446  2.1789  1.8129 -1.5388
  154MOL   H19146397   3.307   1.554   0.306 -1.1831 -0.5955  1.2836
  154MOL   H19246398   3.434   1.399   0.162  2.4166  0.9616 -0.3895
  154MOL   H19346399   3.525   1.550   0.036 -1.5598  0.2207  1.4680
  154MOL   H19446400   3.731   1.686   8.139  2.0190  0.8986  0.7578
  154MOL   H19546401   3.914   1.683   0.170 -0.3614  0.2286 -2.0211
  154MOL   H19646402   3.838   1.631   0.391  2.7525  2.2001 -3.2689
  154MOL   C19746403   3.538   1.291   0.322 -0.3151 -0.2251 -0.1664
  154MOL   C19846404   3.662   1.233   0.247  0.3374 -0.5204  0.3987
  154MOL   C19946405   3.729   1.121   0.333  0.6243 -0.0122 -0.2299
  154MOL   C20046406   3.851   1.144   0.400 -0.1882  0.4800 -0.3754
  154MOL   C20146407   3.899   1.056   0.501  0.5613 -0.2064  0.7200
  154MOL   C20246408   3.821   0.932   0.500  0.3452 -0.2454 -0.4551
  154MOL   C20346409   3.711   0.914   0.420  1.4940 -0.0366 -0.2111
  154MOL   N20446410   3.658   1.008   0.343 -0.0730 -0.2636 -0.3125
  154MOL   H20546411   3.463   1.212   0.329 -2.0623  1.2730 -1.4122
  154MOL   H20646412   3.560   1.300   0.429 -2.7313  1.9420  0.2113
  154MOL   H20746413   3.739   1.310   0.245 -0.4163  0.2096 -0.9779
  154MOL   H20846414   3.910   1.233   0.384  1.8874 -1.0433 -1.4578
  154MOL   H20946415   3.992   1.069   0.554  0.3955 -2.6948  1.7071
  154MOL   H21046416   3.849   0.855   0.571 -1.1362  0.2481  0.6873
  154MOL   H21146417   3.679   0.811   0.414  0.4785  0.1857  1.1541
  154MOL   C21246418   3.633   1.189   0.104 -0.0297 -0.0791 -0.3510
  154MOL   C21346419   3.744   1.129   0.021  0.0637  0.2846  0.2486
  154MOL   C21446420   3.689   1.044   8.058 -0.1686 -0.3208  0.1087
  154MOL   C21546421   3.710   0.907   8.049 -0.2105 -0.0861 -0.0314
  154MOL   C21646422   3.627   0.839   7.957 -0.5732 -0.4750  0.6358
  154MOL   C21746423   3.559   0.906   7.862 -0.3810 -0.0993  0.6137
  154MOL   C21846424   3.567   1.049   7.862  0.6033 -0.2323  0.0515
  154MOL   N21946425   3.620   1.114   7.965  0.4356 -0.5524 -0.8304
  154MOL   H22046426   3.597   1.265   0.035  1.8057  0.6589 -0.5375
  154MOL   H22146427   3.546   1.125   0.094  0.1824 -0.1183 -2.2740
  154MOL   H22246428   3.809   1.060   0.076  0.3856  2.0356  2.0990
  154MOL   H22346429   3.786   0.860   8.110 -0.1027 -1.0990 -0.9306
  154MOL   H22446430   3.621   0.731   7.953 -1.7086 -0.4230  0.8216
  154MOL   H22546431   3.498   0.847   7.795  0.3527  0.2718 -0.3854
  154MOL   H22646432   3.501   1.098   7.792 -0.9531 -1.8315  0.3594
  154MOL   C22746433   3.839   1.237   8.117  0.2323 -0.1315 -0.1762
  154MOL   C22846434   3.980   1.181   8.100 -0.2097 -0.1919 -0.3259
  154MOL   C22946435   4.063   1.274   8.010 -0.3758 -1.0489 -0.6383
  154MOL   C23046436   4.122   1.234   7.889 -0.3511 -0.2181 -1.1994
  154MOL   C23146437   4.183   1.330   7.811  0.0828  0.2649 -0.3895
  154MOL   C23246438   4.201   1.463   7.853 -0.1882  0.0041  0.2132
  154MOL   C23346439   4.170   1.484   7.988  1.5640 -0.0235  0.9989
  154MOL   N23446440   4.097   1.396   8.062 -0.3449  0.4407  0.7583
  154MOL   H23546441   3.841   1.327   0.027  1.8651 -0.2586 -0.0194
  154MOL   H23646442   3.808   1.271   8.019  0.0256 -0.7818 -0.3394
  154MOL   H23746443   3.972   1.086   8.046  1.0757 -0.3673 -0.2355
  154MOL   H23846444   4.096   1.141   7.841  1.0438 -1.2744  0.0304
  154MOL   H23946445   4.215   1.299   7.712  0.2688 -0.8753  0.0196
  154MOL   H24046446   4.242   1.535   7.784 -1.9402 -0.7772 -1.6698
  154MOL   H24146447   4.200   1.575   8.037  1.1556 -0.2603  1.6831
  154MOL   C24246448   4.055   1.165   0.089 -0.5357  0.0933  0.0711
  154MOL   C24346449   4.163   1.052   0.098 -0.4453 -0.3187  0.3216
  154MOL   C24446450   4.104   0.919   0.155  0.3353  0.4486  0.5638
  154MOL   C24546451   4.128   0.885   0.289 -0.6998  0.4629 -0.2790
  154MOL   C24646452   4.072   0.766   0.347 -0.8869 -0.4174 -0.4726
  154MOL   C24746453   3.998   0.686   0.258 -0.0240 -0.2253 -0.4652
  154MOL   C24846454   3.988   0.721   0.126 -0.1031  0.1848  0.5539
  154MOL   N24946455   4.032   0.841   0.074 -0.4026  0.2946  0.2353
  154MOL   H25046456   3.987   1.179   0.173 -0.9325  0.9361 -0.3823
  154MOL   H25146457   4.115   1.255   0.103 -0.6399 -0.0446  1.4481
  154MOL   H25246458   4.248   1.082   0.160 -0.5152 -1.8983  1.2151
  154MOL   H25346459   4.191   0.944   0.354  0.8554 -0.2712 -1.0841
  154MOL   H25446460   4.099   0.745   0.449  0.8754 -1.6943 -1.1946
  154MOL   H25546461   3.967   0.589   0.294  0.0629 -0.4456 -0.9830
  154MOL   H25646462   3.924   0.673   0.054  1.1691 -0.7881  0.0623
  154MOL   C25746463   4.242   1.034   8.122 -0.2044  0.1384  0.0420
  154MOL   C25846464   4.368   0.941   8.116  0.1982  0.2175  0.0454
  154MOL   C25946465   4.397   0.917   7.967  0.6781 -0.1489  0.2471
  154MOL   C26046466   4.379   0.785   7.918  0.3735 -0.4878 -0.2643
  154MOL   C26146467   4.397   0.760   7.781 -0.9197  0.0150  0.1120
  154MOL   C26246468   4.437   0.873   7.701  0.4911  0.4058  0.1819
  154MOL   C26346469   4.468   0.997   7.766 -0.7292 -0.3534  0.4018
  154MOL   N26446470   4.449   1.020   7.895 -0.2455 -0.9634  0.5562
  154MOL   H26546471   4.283   1.133   8.101 -1.1669  0.7595  1.0302
  154MOL   H26646472   4.169   1.008   8.046  0.7392 -1.8302 -0.2118
  154MOL   H26746473   4.341   0.848   0.013  1.2558  0.7157  1.6250
  154MOL   H26846474   4.339   0.712   7.987 -1.3362  2.4983  1.9806
  154MOL   H26946475   4.391   0.664   7.732 -0.6537 -0.1699  0.4287
  154MOL   H27046476   4.441   0.854   7.595 -1.1778 -1.5793  0.4264
  154MOL   H27146477   4.501   1.079   7.702 -1.1793  0.7249  1.5328
  154MOL   C27246478   4.495   0.986   0.036  0.4080  0.3278 -0.6422
  154MOL   C27346479   4.618   0.892   0.027  0.2470 -0.2828  0.2117
  154MOL   C27446480   4.738   0.976   0.060 -0.0055 -0.4658 -0.0365
  154MOL   C27546481   4.809   1.048   8.111  0.5675 -0.0671 -0.3456
  154MOL   C27646482   4.909   1.142   8.148  0.4616 -0.0889  0.2151
  154MOL   C27746483   4.947   1.149   0.132  0.0557 -0.7520 -0.2160
  154MOL   C27846484   4.859   1.083   0.223 -0.2832  0.3839  0.7203
  154MOL   N27946485   4.761   1.000   0.185  0.1599 -0.5504 -0.1586
  154MOL   H28046486   4.473   1.025   0.135  1.8946  0.4262 -0.3439
  154MOL   H28146487   4.529   1.075   8.135  1.6590  0.4036  0.2898
  154MOL   H28246488   4.620   0.859   8.075 -1.2354  0.1967  0.0284
  154MOL   H28346489   4.766   1.046   8.012  1.0523  0.4098 -0.5701
  154MOL   H28446490   4.962   1.206   8.080  0.4257  2.3791  2.4229
  154MOL   H28546491   5.028   1.218   0.151 -0.2078 -0.2930 -0.7653
  154MOL   H28646492   4.870   1.104   0.328 -2.1603 -2.8095  1.6493
  154MOL   C28746493   4.608   0.768   0.124  0.1829  0.3154 -0.7460
  154MOL   C28846494   4.711   0.659   0.090  0.3745 -0.2512  0.6481
  154MOL   C28946495   4.730   0.548   0.194 -0.0890  0.0039  0.2550
  154MOL   C29046496   4.622   0.467   0.228  0.4831 -0.1017 -0.3809
  154MOL   C29146497   4.645   0.356   0.307  0.5543 -0.3449  0.5878
  154MOL   C29246498   4.779   0.327   0.345  1.0893 -0.0875 -0.0348
  154MOL   C29346499   4.880   0.416   0.304  0.5807  0.0250 -0.2252
  154MOL   N29446500   4.855   0.523   0.224  0.1188 -0.5829  0.5195
  154MOL   H29546501   4.508   0.724   0.116  0.3422  0.1994 -2.2355
  154MOL   H29646502   4.612   0.802   0.228 -0.2732 -1.9496  0.0426
  154MOL   H29746503   4.806   0.706   0.063 -1.4591  3.6564  0.5983
  154MOL   H29846504   4.528   0.470   0.175 -0.2970 -0.6484  0.9521
  154MOL   H29946505   4.556   0.298   0.327 -0.8782  1.3307 -0.7345
  154MOL   H30046506   4.808   0.235   0.394  0.0595 -0.1243  0.5171
  154MOL   H30146507   4.982   0.392   0.331  0.0923 -2.3470 -0.4370
  154MOL   H30246508   4.690   0.608   8.148  0.6772 -2.0224  1.5177
  155MOL     C146509   1.050   7.741   2.292  1.5281 -0.4793 -0.4008
  155MOL     C246510   0.931   7.826   2.234 -0.3401 -0.2597  0.5074
  155MOL     C346511   0.854   7.908   2.342 -0.4085  0.4075  0.0564
  155MOL     C446512   0.717   7.878   2.365 -0.2369  0.3201 -0.0571
  155MOL     C546513   0.661   7.924   2.483 -0.1218  0.2683  0.1152
  155MOL     C646514   0.726   8.019   2.557  0.4825 -0.4124  0.1306
  155MOL     C746515   0.857   8.058   2.514 -0.7800  0.3423  0.3534
  155MOL     N846516   0.926   7.994   2.415 -0.5683 -0.4736 -0.1448
  155MOL     H946517   1.010   7.678   2.372 -1.1872  1.7077  0.0675
  155MOL    H1046518   1.115   7.687   2.224  2.6404 -1.7322  1.6196
  155MOL    H1146519   0.858   7.757   2.191  1.8394 -1.7236 -0.9689
  155MOL    H1246520   0.671   7.806   2.299 -2.2882  0.7180  0.9282
  155MOL    H1346521   0.560   7.890   2.500  0.5526  0.0675  4.1679
  155MOL    H1446522   0.692   8.061   2.650 -0.2323  0.3479 -0.4684
  155MOL    H1546523   0.918   8.127   2.570  0.2077  0.0471 -0.3555
  155MOL    H1646524   1.120   7.797   2.354  0.3750  0.1019  0.4004
  155MOL    C1746525   0.973   7.917   2.119  0.1004 -0.6638  0.1134
  155MOL    C1846526   0.867   7.998   2.036  0.4927 -0.6748 -0.2251
  155MOL    C1946527   0.905   8.144   2.028 -0.0507 -0.0151  0.0411
  155MOL    C2046528   0.817   0.091   2.069  0.5794 -0.6678 -0.0439
  155MOL    C2146529   0.865   0.217   2.066  0.3566 -0.3394 -0.0237
  155MOL    C2246530   0.989   0.247   2.009 -0.2395 -0.8312  0.7552
  155MOL    C2346531   1.064   0.142   1.959  0.2171 -0.2469  0.3908
  155MOL    N2446532   1.027   0.013   1.971 -0.0387  0.5543  0.3340
  155MOL    H2546533   1.045   7.872   2.050  0.5304 -0.7446  0.6096
  155MOL    H2646534   1.030   7.997   2.167 -0.7027  1.6187 -2.6063
  155MOL    H2746535   0.770   7.990   2.085  0.1826  2.2646 -0.2746
  155MOL    H2846536   0.723   0.052   2.105  0.2747  0.0595 -0.0342
  155MOL    H2946537   0.807   0.298   2.108  2.6451  0.4037  1.8650
  155MOL    H3046538   1.025   0.348   2.013 -0.4960 -0.6388 -1.5727
  155MOL    H3146539   1.168   0.163   1.940  0.2165  1.8851  2.4763
  155MOL    C3246540   0.849   7.945   1.891  0.2333  0.9729  0.1645
  155MOL    C3346541   0.781   7.809   1.861 -0.4413 -0.4154  0.8489
  155MOL    C3446542   0.643   7.803   1.920  0.3138  0.7187 -0.5619
  155MOL    C3546543   0.533   7.881   1.875 -0.0786 -0.2837  0.8845
  155MOL    C3646544   0.402   7.850   1.924 -0.2171  0.7507  0.0173
  155MOL    C3746545   0.389   7.752   2.018  0.1953 -0.0762  0.4425
  155MOL    C3846546   0.503   7.693   2.066 -0.1318 -0.0339 -0.0907
  155MOL    N3946547   0.622   7.722   2.030 -0.0754  0.2184 -0.0373
  155MOL    H4046548   0.951   7.946   1.852  1.1014 -1.3870  2.2480
  155MOL    H4146549   0.798   8.026   1.838  1.4301  0.4972 -1.7863
  155MOL    H4246550   0.841   7.731   1.908 -0.9997 -1.1106  0.4261
  155MOL    H4346551   0.553   7.968   1.814 -0.2421 -0.6209  0.3499
  155MOL    H4446552   0.313   7.899   1.888 -1.9956 -1.4970  1.2702
  155MOL    H4546553   0.290   7.714   2.040 -0.1493  1.1881  1.1178
  155MOL    H4646554   0.501   7.620   2.146 -1.6949  0.8541  0.7078
  155MOL    C4746555   0.777   7.776   1.707 -0.1757 -0.6584  0.0505
  155MOL    C4846556   0.909   7.763   1.637 -0.0221  0.0613 -0.7490
  155MOL    C4946557   1.009   7.675   1.717  0.6910  0.5012  0.4097
  155MOL    C5046558   1.140   7.718   1.747  0.3203  0.0924 -0.5308
  155MOL    C5146559   1.234   7.620   1.790 -0.2115 -0.3459 -0.5410
  155MOL    C5246560   1.194   7.480   1.812  0.0635 -0.8148  0.0103
  155MOL    C5346561   1.059   7.453   1.776  0.0388 -0.5543  0.1120
  155MOL    N5446562   0.966   7.544   1.735  0.2357  0.0780  0.2318
  155MOL    H5546563   0.713   7.848   1.655  0.8416  0.5247  0.4280
  155MOL    H5646564   0.724   7.681   1.698  2.1890 -2.1449  1.4494
  155MOL    H5746565   0.953   7.863   1.634  0.3657 -0.0911 -0.3339
  155MOL    H5846566   1.166   7.821   1.727  2.3861  0.0964  1.9477
  155MOL    H5946567   1.340   7.639   1.801 -0.6543  1.5291  0.5915
  155MOL    H6046568   1.269   7.411   1.848  0.5746 -0.7878 -0.9881
  155MOL    H6146569   1.030   7.349   1.781  1.1128 -0.9085 -0.8000
  155MOL    C6246570   0.893   7.714   1.488  0.3570 -0.1149 -0.0091
  155MOL    C6346571   0.797   7.788   1.388 -0.3129 -0.3210 -0.4621
  155MOL    C6446572   0.855   7.926   1.372 -0.2081  0.2110  0.0560
  155MOL    C6546573   0.780   8.039   1.405 -0.4340  0.6790  0.2022
  155MOL    C6646574   0.833   0.018   1.390  0.2901 -0.2237 -0.1022
  155MOL    C6746575   0.959   0.030   1.333  0.8644  0.3401 -0.1034
  155MOL    C6846576   1.035   8.066   1.297 -0.2385 -0.0981  0.0276
  155MOL    N6946577   0.978   7.943   1.307  0.5095  0.0883 -0.5877
  155MOL    H7046578   0.869   7.608   1.485 -1.0060  0.2318 -1.4945
  155MOL    H7146579   0.993   7.707   1.445  0.1695 -0.4256 -0.3924
  155MOL    H7246580   0.705   7.790   1.446  1.1808 -1.7192  2.0718
  155MOL    H7346581   0.691   8.022   1.463 -0.0645 -0.3777  0.4652
  155MOL    H7446582   0.789   0.107   1.432 -0.2707 -0.2251 -0.6843
  155MOL    H7546583   1.007   0.126   1.332  2.6269 -0.4425  3.0360
  155MOL    H7646584   1.132   8.083   1.251 -1.6081  2.0579 -2.1924
  155MOL    C7746585   0.768   7.705   1.264  0.4827 -0.2205  0.1922
  155MOL    C7846586   0.657   7.760   1.176  0.1891 -0.4227  0.1362
  155MOL    C7946587   0.652   7.699   1.035 -0.7442  0.7320  0.3061
  155MOL    C8046588   0.659   7.790   0.930  0.2780 -0.1895 -1.0329
  155MOL    C8146589   0.634   7.738   0.799  0.2357  0.4217 -0.0754
  155MOL    C8246590   0.604   7.601   0.786  0.2471 -0.7531  0.2334
  155MOL    C8346591   0.602   7.515   0.897 -0.4683 -0.2956 -0.1047
  155MOL    N8446592   0.627   7.565   1.027  0.0335  0.2481  0.0095
  155MOL    H8546593   0.736   7.603   1.288  3.6352 -1.3721 -0.1592
  155MOL    H8646594   0.859   7.697   1.205 -0.7759 -0.3798 -1.7723
  155MOL    H8746595   0.701   7.859   1.167  1.1277 -0.8984 -0.5182
  155MOL    H8846596   0.693   7.892   0.941  0.6944 -0.4728  0.5089
  155MOL    H8946597   0.651   7.795   0.709 -0.3013  0.8060  0.0695
  155MOL    H9046598   0.599   7.561   0.686  1.6029 -1.5166  0.4624
  155MOL    H9146599   0.596   7.407   0.889  1.5794 -0.4468  0.1135
  155MOL    C9246600   0.518   7.785   1.241 -0.3815  0.0724 -0.2962
  155MOL    C9346601   0.425   7.658   1.265  0.4607  0.8844 -0.3564
  155MOL    C9446602   0.455   7.597   1.406 -0.7146 -0.7311 -0.1450
  155MOL    C9546603   0.541   7.493   1.432 -0.0915  0.4325 -0.0803
  155MOL    C9646604   0.569   7.472   1.564  1.1286 -0.0507 -0.4907
  155MOL    C9746605   0.504   7.546   1.666  0.0839 -0.2981 -0.4482
  155MOL    C9846606   0.421   7.653   1.632  0.1187  1.0643 -0.3876
  155MOL    N9946607   0.403   7.676   1.504 -0.7026 -0.1998  0.6103
  155MOL   H10046608   0.470   7.855   1.173  0.9774  1.3231  0.0143
  155MOL   H10146609   0.519   7.842   1.334  0.4310  0.9030 -0.8115
  155MOL   H10246610   0.447   7.586   1.186  0.5606  0.5449 -0.0197
  155MOL   H10346611   0.590   7.437   1.354 -0.0590  2.0149 -1.2287
  155MOL   H10446612   0.639   7.393   1.588  0.6930  0.2598  1.8638
  155MOL   H10546613   0.523   7.528   1.771  0.0635 -1.6817 -0.6771
  155MOL   H10646614   0.382   7.710   1.715 -1.5215 -0.9902  0.2829
  155MOL   C10746615   0.278   7.690   1.241  0.1704  0.5237 -0.0943
  155MOL   C10846616   0.242   7.752   1.101  0.2177 -0.2483  0.1358
  155MOL   C10946617   0.132   7.682   1.019 -0.4913  0.9171  0.7002
  155MOL   C11046618   0.138   7.642   0.884 -0.3149  0.1361  0.9329
  155MOL   C11146619   0.024   7.596   0.821 -0.9345  0.3306  0.4682
  155MOL   C11246620   8.057   7.583   0.891 -0.2171 -0.1914 -0.5810
  155MOL   C11346621   8.060   7.619   1.023  0.3066  0.4122  0.3390
  155MOL   N11446622   0.020   7.665   1.083  0.2174  0.4548 -0.2929
  155MOL   H11546623   0.237   7.749   1.323  0.4548 -0.6635  0.9217
  155MOL   H11646624   0.222   7.597   1.249 -2.0448  1.9264  1.0565
  155MOL   H11746625   0.328   7.742   1.034  0.4240 -2.1497  0.6437
  155MOL   H11846626   0.225   7.651   0.821 -1.5596  1.2268 -0.6702
  155MOL   H11946627   0.018   7.579   0.714  2.2399 -0.7624  0.4069
  155MOL   H12046628   7.961   7.562   0.846  0.8333 -3.4925 -1.4128
  155MOL   H12146629   7.968   7.627   1.080 -0.0315  1.2207 -0.2967
  155MOL   C12246630   0.201   7.899   1.120  0.0967  0.3546  0.1057
  155MOL   C12346631   0.177   7.980   0.988  0.0029 -0.0394 -0.2597
  155MOL   C12446632   0.081   8.098   1.020 -0.9596  0.0774  0.5244
  155MOL   C12546633   8.106   8.103   0.957 -0.6725  0.8991 -0.1891
  155MOL   C12646634   8.017   0.051   0.999 -0.6402  0.6380  0.9211
  155MOL   C12746635   8.067   0.147   1.093 -0.8142 -0.7083 -0.4252
  155MOL   C12846636   0.043   0.131   1.148 -0.3458 -0.3620  0.1411
  155MOL   N12946637   0.122   0.034   1.112 -0.2986  0.9276 -0.1568
  155MOL   H13046638   0.259   7.961   1.189 -1.4455 -0.2711  2.0066
  155MOL   H13146639   0.109   7.890   1.177  1.2320 -2.8317  1.5743
  155MOL   H13246640   0.115   7.919   0.922  3.0328 -2.3796 -1.0223
  155MOL   H13346641   8.074   8.036   0.878 -0.4159  1.0958 -0.4622
  155MOL   H13446642   7.915   0.053   0.963  0.0891 -0.4419 -1.3540
  155MOL   H13546643   7.997   0.225   1.117  0.7687  0.2953  1.0013
  155MOL   H13646644   0.088   0.212   1.203 -0.9487 -0.8858  1.4352
  155MOL   C13746645   0.313   8.022   0.926 -0.1912 -0.0590 -0.0261
  155MOL   C13846646   0.310   8.079   0.776 -0.0421 -0.0495  0.1725
  155MOL   C13946647   0.440   8.151   0.741  0.2543  0.5292  0.4708
  155MOL   C14046648   0.444   0.106   0.656  0.0413 -0.3071 -0.6617
  155MOL   C14146649   0.567   0.153   0.613  0.0558 -0.0122 -1.1408
  155MOL   C14246650   0.685   0.097   0.663  0.3622  0.7271 -0.1991
  155MOL   C14346651   0.674   8.136   0.744  0.0742  0.5174 -0.5353
  155MOL   N14446652   0.554   8.082   0.771 -0.1307  0.3751  0.0680
  155MOL   H14546653   0.379   7.935   0.929  0.4064  0.3988  0.1287
  155MOL   H14646654   0.350   8.095   0.998 -0.3185  0.7385 -0.7517
  155MOL   H14746655   0.240   0.010   0.781 -0.4381 -0.2378 -1.8578
  155MOL   H14846656   0.360   0.167   0.629  0.2630 -0.2098 -1.1369
  155MOL   H14946657   0.570   0.243   0.552 -0.3911  0.7069 -0.1236
  155MOL   H15046658   0.780   0.139   0.632  1.5271 -0.9272  1.0589
  155MOL   H15146659   0.766   8.088   0.775 -0.8697 -0.6967  0.4052
  155MOL   C15246660   0.285   7.960   0.674  0.3193  0.9849  0.2039
  155MOL   C15346661   0.137   7.958   0.627 -0.5873  0.5022  0.2538
  155MOL   C15446662   0.109   8.085   0.557 -0.2715  0.4323 -0.4108
  155MOL   C15546663   0.171   8.110   0.435  0.3266  0.9007 -0.3537
  155MOL   C15646664   0.132   0.076   0.365  0.2475  0.6077  0.2570
  155MOL   C15746665   0.039   0.160   0.425 -0.8609 -0.0795  0.4169
  155MOL   C15846666   8.151   0.134   0.554  0.1097  0.4867  0.6454
  155MOL   N15946667   0.026   0.019   0.617  0.0529  0.2776 -0.8644
  155MOL   H16046668   0.304   7.868   0.728  0.5955  1.2712  0.6000
  155MOL   H16146669   0.351   7.959   0.587  0.0452 -2.7473 -0.0269
  155MOL   H16246670   0.063   7.951   0.706  0.9327 -0.1595  1.6391
  155MOL   H16346671   0.231   8.037   0.383 -0.7741  0.2513 -0.7240
  155MOL   H16446672   0.165   0.093   0.263 -0.8171 -1.2256 -0.4117
  155MOL   H16546673   8.149   0.237   0.363 -0.8453 -2.2856 -2.4201
  155MOL   H16646674   8.070   0.189   0.600 -2.8315 -0.8713 -2.6780
  155MOL   C16746675   0.111   7.835   0.540 -0.2597 -0.6000  0.4523
  155MOL   C16846676   8.131   7.825   0.457  0.1110 -0.3100 -0.7310
  155MOL   C16946677   8.116   7.696   0.377 -0.8663 -0.0233  0.0869
  155MOL   C17046678   8.103   7.703   0.238  0.6267  0.5049 -0.2365
  155MOL   C17146679   8.083   7.587   0.161  0.2855 -0.9228  0.4420
  155MOL   C17246680   8.073   7.466   0.237 -0.4108 -0.2673 -0.1359
  155MOL   C17346681   8.086   7.473   0.376 -0.7738  0.2555 -0.3873
  155MOL   N17446682   8.123   7.584   0.450 -0.3139  0.1432  0.1747
  155MOL   H17546683   0.136   7.751   0.605  2.6517 -0.8939 -0.9484
  155MOL   H17646684   0.183   7.827   0.458 -1.3305 -2.7676 -0.3504
  155MOL   H17746685   8.134   7.907   0.386 -0.3368  2.0792  1.9324
  155MOL   H17846686   8.092   7.796   0.184 -1.8632  0.8018  0.7353
  155MOL   H17946687   8.081   7.580   0.053  2.2038  2.5748  0.1235
  155MOL   H18046688   8.062   7.376   0.179  1.5958  0.0355 -1.0385
  155MOL   H18146689   8.081   7.385   0.438  0.5878  0.8250  0.5555
  155MOL   C18246690   8.002   7.842   0.542 -0.2537 -0.0881  0.2875
  155MOL   C18346691   7.907   7.959   0.508 -0.0715  0.4054 -0.1241
  155MOL   C18446692   7.859   7.946   0.362  0.0601  0.5712 -0.6710
  155MOL   C18546693   7.885   8.045   0.267  1.0262  1.0057  0.0915
  155MOL   C18646694   7.828   8.030   0.139 -0.3318 -0.1123 -0.0489
  155MOL   C18746695   7.739   7.924   0.107 -0.2589  0.0300 -0.2969
  155MOL   C18846696   7.722   7.831   0.209  0.1543 -0.4117 -0.3958
  155MOL   N18946697   7.784   7.840   0.327 -0.4068 -0.7268  0.2714
  155MOL   H19046698   8.035   7.849   0.645 -1.1607 -0.3282  0.5943
  155MOL   H19146699   7.944   7.750   0.545 -0.8104  0.2182 -0.7682
  155MOL   H19246700   7.967   8.048   0.525  0.1435  0.3039 -0.3553
  155MOL   H19346701   7.942   8.131   0.299  2.4297  0.1965 -0.1859
  155MOL   H19446702   7.850   8.112   0.073  2.6416 -0.3474  0.6084
  155MOL   H19546703   7.681   7.912   0.017 -0.9731 -1.1236  0.3023
  155MOL   H19646704   7.649   7.752   0.198  0.3585 -1.0332  2.3434
  155MOL   C19746705   7.787   7.954   0.607 -0.4978 -0.2924  0.7889
  155MOL   C19846706   7.689   8.077   0.578  0.4875  0.1714  0.3418
  155MOL   C19946707   7.550   8.044   0.633  0.9955 -0.2139 -0.8029
  155MOL   C20046708   7.444   8.035   0.543 -0.4850  0.5449  0.0949
  155MOL   C20146709   7.319   7.996   0.590  0.5627 -0.5603 -0.0742
  155MOL   C20246710   7.295   7.963   0.726  0.1483  0.1869  0.1638
  155MOL   C20346711   7.407   7.987   0.808 -0.2293 -0.4312  0.1278
  155MOL   N20446712   7.535   8.024   0.766  0.0421 -0.3935 -0.5735
  155MOL   H20546713   7.829   7.945   0.707  0.1143  1.1109  0.6789
  155MOL   H20646714   7.740   7.859   0.583 -0.5195  0.1860 -1.1659
  155MOL   H20746715   7.683   8.092   0.470 -1.5933 -0.8388  0.2993
  155MOL   H20846716   7.457   8.064   0.440  3.6024  0.6729  0.5522
  155MOL   H20946717   7.230   7.988   0.530  0.8568  2.3142 -0.9837
  155MOL   H21046718   7.201   7.927   0.765 -0.3582  2.4898  1.1166
  155MOL   H21146719   7.395   7.950   0.909  0.5803 -2.2116 -0.4083
  155MOL   C21246720   7.755   0.048   0.637 -0.9909 -0.6181  0.4866
  155MOL   C21346721   7.690   0.187   0.635  0.3193 -0.3865  1.1467
  155MOL   C21446722   7.744   0.277   0.739  0.4962 -0.1548  1.1990
  155MOL   C21546723   7.659   0.302   0.843  0.4316  0.6792 -0.2846
  155MOL   C21646724   7.711   0.378   0.954  0.0663 -0.1464 -0.0036
  155MOL   C21746725   7.850   0.415   0.953  0.6669  0.5719  0.1229
  155MOL   C21846726   7.924   0.384   0.837  0.1834  0.8460 -0.6398
  155MOL   N21946727   7.871   0.330   0.729  0.1725 -0.6672  0.3741
  155MOL   H22046728   7.859   0.058   0.605 -0.5731 -1.0042  1.6775
  155MOL   H22146729   7.766   0.021   0.742 -0.4860  2.1739  1.1824
  155MOL   H22246730   7.585   0.165   0.656  0.0191 -2.0815 -1.7348
  155MOL   H22346731   7.557   0.265   0.843  0.4456  0.6385 -0.6524
  155MOL   H22446732   7.657   0.414   1.040 -1.3802  2.6526 -2.0002
  155MOL   H22546733   7.903   0.471   1.028 -0.0222  0.8300  0.4169
  155MOL   H22646734   8.028   0.413   0.835  0.5801 -0.6031 -1.7787
  155MOL   C22746735   7.686   0.241   0.492 -0.1725 -0.0201  0.8529
  155MOL   C22846736   7.574   0.190   0.395 -0.1179 -0.4339 -0.6805
  155MOL   C22946737   7.448   0.271   0.419 -0.0118  0.2227  0.9355
  155MOL   C23046738   7.433   0.400   0.369 -0.6187  0.6373  0.6479
  155MOL   C23146739   7.312   0.471   0.385 -0.4526 -0.3916 -0.0451
  155MOL   C23246740   7.210   0.403   0.461  0.7057 -0.0452  0.1956
  155MOL   C23346741   7.234   0.275   0.506  0.5003 -0.2568 -0.5947
  155MOL   N23446742   7.353   0.211   0.494 -0.7015 -0.0549  0.5450
  155MOL   H23546743   7.786   0.237   0.449 -0.7516  1.5313 -0.7336
  155MOL   H23646744   7.677   0.350   0.487  0.6275 -0.0265 -0.9150
  155MOL   H23746745   7.546   0.086   0.415 -0.5602 -0.1542  0.2267
  155MOL   H23846746   7.511   0.455   0.318 -1.2341  0.9481  0.0219
  155MOL   H23946747   7.299   0.571   0.347  1.6943  0.0094  0.2063
  155MOL   H24046748   7.110   0.444   0.461 -0.4052 -2.6294 -0.6330
  155MOL   H24146749   7.152   0.236   0.564  1.0648  0.7952  0.9477
  155MOL   C24246750   7.618   0.199   0.250 -0.9457  0.5271 -0.3828
  155MOL   C24346751   7.519   0.156   0.140 -0.5979 -0.1369  0.6015
  155MOL   C24446752   7.567   0.202   0.001 -0.5397  0.2546  0.0610
  155MOL   C24546753   7.475   0.277   8.075  0.2398 -0.4581 -0.6150
  155MOL   C24646754   7.508   0.293   7.939  0.2597 -0.2617  0.1505
  155MOL   C24746755   7.630   0.252   7.896 -0.1825  0.1293 -0.5466
  155MOL   C24846756   7.716   0.182   7.986 -0.1624 -0.0532  0.5429
  155MOL   N24946757   7.680   0.152   8.110  0.1043 -0.2206  0.1767
  155MOL   H25046758   7.708   0.140   0.235 -1.2860 -0.2111  0.4283
  155MOL   H25146759   7.655   0.298   0.223 -1.6727  0.9400  0.1328
  155MOL   H25246760   7.425   0.208   0.157 -1.2493 -0.6803 -1.2590
  155MOL   H25346761   7.384   0.318   8.117 -0.0613 -0.8942 -0.8387
  155MOL   H25446762   7.445   0.343   7.867  0.7073  0.1843  0.0725
  155MOL   H25546763   7.661   0.270   7.794  0.9412  0.7191 -0.1133
  155MOL   H25646764   7.811   0.144   7.952  0.0435 -0.1295  1.1840
  155MOL   C25746765   7.476   0.008   0.146  0.5027 -0.6551  0.2564
  155MOL   C25846766   7.408   8.098   0.011 -0.2886 -0.4166 -0.3914
  155MOL   C25946767   7.407   7.940   0.020 -0.0843 -0.7331  0.0853
  155MOL   C26046768   7.373   7.871   0.145 -0.4546  0.5497  0.1809
  155MOL   C26146769   7.395   7.733   0.149 -0.2778 -0.2726  1.0132
  155MOL   C26246770   7.448   7.662   0.037  0.0313 -0.1811  0.6312
  155MOL   C26346771   7.485   7.742   8.078  0.3082  0.0606  0.0665
  155MOL   N26446772   7.460   7.875   8.066  0.2758 -0.6074  1.0384
  155MOL   H26546773   7.408   8.139   0.229 -0.7001 -0.3785 -0.6294
  155MOL   H26646774   7.562   8.096   0.165  1.6830  0.5834 -0.8207
  155MOL   H26746775   7.472   8.121   8.078  1.6748  2.3777  1.7203
  155MOL   H26846776   7.322   7.917   0.228  0.3340 -2.6497  2.5312
  155MOL   H26946777   7.376   7.682   0.242  0.3103  1.1573  1.9250
  155MOL   H27046778   7.468   7.556   0.032 -0.2997 -0.2516  0.8491
  155MOL   H27146779   7.512   7.690   7.987 -0.3156  1.1152 -0.7291
  155MOL   C27246780   7.275   0.007   8.126  0.2170 -0.3999  0.6654
  155MOL   C27346781   7.176   8.083   8.029 -1.2267  0.1536 -0.6403
  155MOL   C27446782   7.044   0.002   8.024  0.1477 -0.1592 -0.5231
  155MOL   C27546783   6.930   8.074   8.068 -0.2539 -0.2444  0.1673
  155MOL   C27646784   6.804   8.130   8.048  0.8443 -0.1859 -0.8282
  155MOL   C27746785   6.798   0.103   7.992  0.4603  0.3786 -0.0950
  155MOL   C27846786   6.914   0.172   7.960 -0.1374 -0.0263 -0.4600
  155MOL   N27946787   7.040   0.124   7.979 -0.3974  0.2142  0.3212
  155MOL   H28046788   7.290   0.104   8.080  2.3054 -0.1231  1.8211
  155MOL   H28146789   7.216   0.022   0.065 -0.5602 -0.1768  0.1173
  155MOL   H28246790   7.177   7.982   8.071 -0.8343  1.7829  3.4363
  155MOL   H28346791   6.938   7.971   8.098 -1.7549 -0.4124  0.0134
  155MOL   H28446792   6.710   8.081   8.068  0.4062  1.5039  1.4303
  155MOL   H28546793   6.704   0.149   7.967 -1.1200 -2.2557  0.7668
  155MOL   H28646794   6.905   0.277   7.934 -0.0042 -0.2959 -1.5875
  155MOL   C28746795   7.233   8.062   7.891  0.4961 -0.5680 -0.5124
  155MOL   C28846796   7.141   7.983   7.793  0.1201 -0.2256 -0.3947
  155MOL   C28946797   7.088   8.056   7.677  0.1571  0.5056 -0.1291
  155MOL   C29046798   6.957   8.106   7.668 -0.2082 -0.0900 -0.6990
  155MOL   C29146799   6.915   0.029   7.556  0.3164  0.0656 -0.1798
  155MOL   C29246800   7.000   0.047   7.449  0.2259 -0.0472  0.8061
  155MOL   C29346801   7.129   8.150   7.463  0.2625 -0.0738 -0.4953
  155MOL   N29446802   7.171   8.074   7.571  0.1776 -0.0106 -0.6983
  155MOL   H29546803   7.327   8.008   7.900 -0.0200 -1.7229 -1.8965
  155MOL   H29646804   7.262   0.004   7.843  0.1848 -1.0221 -1.6053
  155MOL   H29746805   7.058   7.946   7.853  1.2340 -1.2789  0.5018
  155MOL   H29846806   6.895   8.110   7.756  1.5870 -2.5986  0.7442
  155MOL   H29946807   6.816   0.072   7.557  1.4694  2.8178  0.3963
  155MOL   H30046808   6.971   0.110   7.366  0.9378  1.3262  1.5637
  155MOL   H30146809   7.193   8.148   7.376  1.0060  0.4964  0.0279
  155MOL   H30246810   7.208   7.903   7.762 -0.8657 -1.0801 -0.3522
  156MOL     C146811   5.833   6.181   4.035  0.1863 -0.2405 -0.1679
  156MOL     C246812   5.804   6.037   4.005 -0.0128  0.0706  0.5815
  156MOL     C346813   5.899   5.985   3.905 -0.8397  1.0771 -0.7705
  156MOL     C446814   5.854   5.914   3.793 -0.1098  0.5281 -0.3281
  156MOL     C546815   5.956   5.855   3.712  0.8338 -0.3388  0.0171
  156MOL     C646816   6.090   5.890   3.732  0.4636 -0.3077 -0.0158
  156MOL     C746817   6.123   5.972   3.842 -0.0507  0.5047  0.8492
  156MOL     N846818   6.033   6.014   3.928 -0.4267 -0.2847 -0.2694
  156MOL     H946819   5.830   6.240   3.944  2.9701  3.0341  1.7461
  156MOL    H1046820   5.761   6.219   4.108 -0.4568 -0.5339 -0.6504
  156MOL    H1146821   5.709   6.027   3.952 -0.0644  0.3831  0.6122
  156MOL    H1246822   5.752   5.885   3.776  0.5449 -1.8713 -0.3039
  156MOL    H1346823   5.938   5.799   3.622  2.3706  0.9047 -1.0914
  156MOL    H1446824   6.173   5.852   3.674  1.8609  2.4172  0.1021
  156MOL    H1546825   6.226   6.000   3.855 -0.7186  1.4754  4.6808
  156MOL    H1646826   5.935   6.192   4.071 -0.4230 -2.2447  2.3501
  156MOL    C1746827   5.800   5.944   4.139 -0.0789  0.1164 -0.0668
  156MOL    C1846828   5.674   5.971   4.232 -0.1148 -0.4211 -0.2990
  156MOL    C1946829   5.545   5.993   4.152  0.4581 -0.3341 -0.1695
  156MOL    C2046830   5.449   6.098   4.170  0.4428  0.3546 -0.6837
  156MOL    C2146831   5.329   6.099   4.104 -0.2389  0.1897 -0.0500
  156MOL    C2246832   5.299   5.988   4.025  0.4104  0.8726 -0.2685
  156MOL    C2346833   5.394   5.887   4.014  0.5609  0.0641  0.7259
  156MOL    N2446834   5.517   5.892   4.067  0.3335  0.0613 -0.0290
  156MOL    H2546835   5.895   5.935   4.191  1.2606 -1.0458 -2.6025
  156MOL    H2646836   5.784   5.844   4.099 -1.0925 -1.3961  3.9292
  156MOL    H2746837   5.701   6.069   4.273 -0.0615  0.2528 -1.8943
  156MOL    H2846838   5.467   6.174   4.245 -2.6084  1.2471 -0.8029
  156MOL    H2946839   5.268   6.188   4.104 -0.0491  0.3256 -1.0848
  156MOL    H3046840   5.204   5.965   3.979  0.8869  0.8059 -1.2211
  156MOL    H3146841   5.383   5.795   3.958  0.1616  0.6843 -0.2357
  156MOL    C3246842   5.654   5.870   4.347  0.2271  0.1196  0.1921
  156MOL    C3346843   5.778   5.849   4.445 -0.5045  0.0965  0.5621
  156MOL    C3446844   5.840   5.984   4.487 -1.1441  0.0795 -0.3070
  156MOL    C3546845   5.977   6.019   4.459  0.7954 -0.2704  0.4479
  156MOL    C3646846   6.023   6.143   4.510 -0.3349  0.2541 -0.2351
  156MOL    C3746847   5.932   6.230   4.574 -0.2344 -0.9185  0.0281
  156MOL    C3846848   5.802   6.183   4.604  0.3542  0.1227  0.2069
  156MOL    N3946849   5.758   6.066   4.552 -0.2175  0.2617 -0.2887
  156MOL    H4046850   5.632   5.775   4.299 -0.0746 -0.4542  1.4713
  156MOL    H4146851   5.569   5.910   4.402 -0.4549  0.3839 -1.0249
  156MOL    H4246852   5.851   5.783   4.398 -1.2696 -0.1590 -0.2828
  156MOL    H4346853   6.049   5.955   4.411 -1.4504 -2.6034  0.0831
  156MOL    H4446854   6.125   6.173   4.492  0.8376 -3.3999 -0.2058
  156MOL    H4546855   5.956   6.329   4.610 -1.8729  0.5547 -2.7971
  156MOL    H4646856   5.737   6.224   4.680  0.7856  1.3998 -0.0917
  156MOL    C4746857   5.754   5.757   4.566  0.1168  0.1083 -0.3152
  156MOL    C4846858   5.703   5.616   4.537 -0.0667  0.1960 -0.5895
  156MOL    C4946859   5.788   5.531   4.441 -0.5356  0.0245  0.6602
  156MOL    C5046860   5.726   5.508   4.314 -0.9200  0.1626 -0.4427
  156MOL    C5146861   5.793   5.419   4.224  0.0665 -0.0941 -0.3074
  156MOL    C5246862   5.914   5.355   4.265 -0.6056  0.1468  0.4639
  156MOL    C5346863   5.959   5.386   4.394 -0.0354 -0.0735  0.5722
  156MOL    N5446864   5.902   5.475   4.479 -0.0771  0.0004  0.1320
  156MOL    H5546865   5.687   5.802   4.639 -1.0663  2.5804 -2.8235
  156MOL    H5646866   5.850   5.746   4.617  0.9366  1.0746 -1.6040
  156MOL    H5746867   5.613   5.631   4.477  0.5304 -0.7605 -1.7501
  156MOL    H5846868   5.634   5.560   4.292 -1.4808 -1.5849 -2.3452
  156MOL    H5946869   5.748   5.392   4.130  1.4932 -0.0689 -1.0100
  156MOL    H6046870   5.973   5.284   4.210 -2.6319 -1.6655  0.5488
  156MOL    H6146871   6.038   5.331   4.443  2.0004  2.1289 -0.1572
  156MOL    C6246872   5.645   5.534   4.659  0.1314  0.0397 -0.6109
  156MOL    C6346873   5.541   5.424   4.630  0.3226  0.1994 -0.7224
  156MOL    C6446874   5.594   5.284   4.647 -0.1662  0.2950 -0.6818
  156MOL    C6546875   5.664   5.216   4.545  0.5497  0.0879  0.3013
  156MOL    C6646876   5.727   5.091   4.570 -0.4342 -0.6433 -0.2718
  156MOL    C6746877   5.714   5.043   4.700  1.1638  0.3586  0.5197
  156MOL    C6846878   5.641   5.113   4.798 -0.2759  0.5376 -0.2975
  156MOL    N6946879   5.583   5.233   4.769 -0.5444 -0.1961  0.7458
  156MOL    H7046880   5.595   5.603   4.728 -1.8990 -0.8250 -1.1997
  156MOL    H7146881   5.724   5.487   4.716  0.0233  0.9321  0.2976
  156MOL    H7246882   5.521   5.417   4.523  0.7123 -0.9434 -0.7239
  156MOL    H7346883   5.674   5.251   4.444 -0.2637  0.8777  0.4813
  156MOL    H7446884   5.792   5.040   4.500  1.5198 -0.8947  1.6606
  156MOL    H7546885   5.766   4.953   4.728  0.3964 -1.1783 -2.7418
  156MOL    H7646886   5.622   5.079   4.898  1.8217  2.2598  0.7272
  156MOL    C7746887   5.404   5.451   4.690 -0.3365  0.1379 -0.4177
  156MOL    C7846888   5.331   5.574   4.635  0.1760  0.3935 -0.1690
  156MOL    C7946889   5.282   5.549   4.498 -0.2178 -0.3687  0.1560
  156MOL    C8046890   5.173   5.463   4.467 -0.3876  0.3526  0.3459
  156MOL    C8146891   5.149   5.441   4.332 -0.9206  0.0130  0.4105
  156MOL    C8246892   5.206   5.516   4.231  0.4265  0.2283  0.6368
  156MOL    C8346893   5.319   5.592   4.270 -0.0166 -0.4108  0.2465
  156MOL    N8446894   5.346   5.613   4.397 -0.3087 -0.5578 -0.3463
  156MOL    H8546895   5.417   5.469   4.796  2.1282 -1.0281 -0.5000
  156MOL    H8646896   5.343   5.362   4.705 -0.3743  0.1536 -0.4723
  156MOL    H8746897   5.392   5.663   4.620  0.2515  0.7249  1.8875
  156MOL    H8846898   5.112   5.413   4.541  0.3372  0.8034  1.2603
  156MOL    H8946899   5.073   5.370   4.302 -0.8599  0.0923  0.0677
  156MOL    H9046900   5.174   5.502   4.129 -0.4133 -0.3139  0.9661
  156MOL    H9146901   5.362   5.664   4.202 -0.9903 -0.1872 -0.1350
  156MOL    C9246902   5.209   5.621   4.717 -0.3874 -0.0336  0.4711
  156MOL    C9346903   5.246   5.687   4.851 -0.9992  0.2459  0.5735
  156MOL    C9446904   5.375   5.766   4.852 -0.0135 -0.3056  0.5919
  156MOL    C9546905   5.484   5.718   4.922 -0.2886  0.5204  0.5223
  156MOL    C9646906   5.603   5.794   4.923 -0.0056 -0.2745 -0.0215
  156MOL    C9746907   5.608   5.915   4.846 -0.5821  0.3055 -0.4278
  156MOL    C9846908   5.490   5.954   4.782  0.1720 -0.1430  0.5724
  156MOL    N9946909   5.378   5.878   4.779  0.0337 -0.3679  0.0477
  156MOL   H10046910   5.139   5.538   4.727 -0.5010 -0.0931 -0.7593
  156MOL   H10146911   5.154   5.687   4.650 -1.0887  0.7745  1.8039
  156MOL   H10246912   5.259   5.608   4.925  1.2652 -0.4264 -0.4915
  156MOL   H10346913   5.477   5.629   4.983 -1.0379  0.3119  0.1412
  156MOL   H10446914   5.696   5.774   4.974 -0.1801 -1.1862 -0.0594
  156MOL   H10546915   5.700   5.972   4.836  0.2460 -0.5302  2.0702
  156MOL   H10646916   5.481   6.039   4.716 -2.2580 -1.6659 -1.1402
  156MOL   C10746917   5.131   5.776   4.902 -0.4262  0.6960 -0.2110
  156MOL   C10846918   5.018   5.698   4.975  0.2713 -0.4412  0.9953
  156MOL   C10946919   5.067   5.643   5.112 -0.1670 -0.6106  0.1563
  156MOL   C11046920   5.035   5.506   5.151 -0.1559 -0.7125  0.9979
  156MOL   C11146921   5.049   5.465   5.283 -0.3743 -0.3073  0.3623
  156MOL   C11246922   5.110   5.557   5.375 -0.1407  0.3201 -0.6037
  156MOL   C11346923   5.140   5.684   5.326  0.2590 -0.0094 -0.1311
  156MOL   N11446924   5.115   5.730   5.202  0.0832  0.0042  0.3158
  156MOL   H11546925   5.082   5.828   4.820  1.2576  0.2461 -1.5537
  156MOL   H11646926   5.177   5.852   4.965  0.8609  0.7078 -1.1341
  156MOL   H11746927   4.996   5.617   4.906  1.0681  1.6973 -1.8605
  156MOL   H11846928   5.002   5.440   5.072 -3.1213  1.6432  0.1586
  156MOL   H11946929   5.030   5.361   5.306 -1.4271 -0.8377 -2.6925
  156MOL   H12046930   5.139   5.517   5.471 -1.2030 -2.7477 -1.4936
  156MOL   H12146931   5.168   5.763   5.393  0.6763  0.5247 -0.9287
  156MOL   C12246932   4.886   5.780   4.977  0.1536 -0.5606 -0.0854
  156MOL   C12346933   4.765   5.722   5.060 -0.8187 -0.6483  0.0273
  156MOL   C12446934   4.672   5.840   5.104 -0.0358 -0.1774  0.3176
  156MOL   C12546935   4.683   5.892   5.236 -0.2764  0.2152 -0.2266
  156MOL   C12646936   4.592   5.989   5.278  0.2490 -0.0466 -0.3535
  156MOL   C12746937   4.488   6.024   5.194 -0.4454 -0.2802 -0.2163
  156MOL   C12846938   4.491   5.973   5.062  0.1534  0.0767 -0.2411
  156MOL   N12946939   4.580   5.882   5.014  0.0671 -0.2414  0.7914
  156MOL   H13046940   4.858   5.821   4.880  2.3451  1.6566  0.1684
  156MOL   H13146941   4.922   5.872   5.023 -0.2844 -0.0016 -0.8427
  156MOL   H13246942   4.812   5.679   5.148  0.3449 -1.1345 -0.8273
  156MOL   H13346943   4.762   5.871   5.306  0.4781 -0.6064 -1.3183
  156MOL   H13446944   4.599   6.023   5.380 -0.1439  0.8183 -0.6034
  156MOL   H13546945   4.420   6.101   5.226 -0.8380 -1.6862  2.4461
  156MOL   H13646946   4.408   5.995   4.996  0.3058 -1.5797 -1.0017
  156MOL   C13746947   4.705   5.621   4.961 -0.0295 -0.1167  0.4220
  156MOL   C13846948   4.586   5.541   5.022  0.2327  0.4414  0.6569
  156MOL   C13946949   4.520   5.453   4.915 -0.1962  0.0520  0.0613
  156MOL   C14046950   4.389   5.486   4.873  0.4468  0.0103  0.0526
  156MOL   C14146951   4.333   5.420   4.754  0.2676 -0.1377 -0.4117
  156MOL   C14246952   4.405   5.315   4.706  0.4783 -0.3249  0.4617
  156MOL   C14346953   4.534   5.274   4.767  0.2318 -0.8588 -0.4065
  156MOL   N14446954   4.591   5.346   4.863  0.4368 -0.5049 -0.2787
  156MOL   H14546955   4.785   5.550   4.941  0.6867  0.6369  0.5591
  156MOL   H14646956   4.670   5.671   4.870 -0.1776  0.3131  0.7112
  156MOL   H14746957   4.509   5.614   5.049  2.0619  2.7825 -0.3445
  156MOL   H14846958   4.334   5.569   4.915  0.3003  0.3753 -0.8425
  156MOL   H14946959   4.238   5.449   4.711  1.0092  2.8705 -0.1606
  156MOL   H15046960   4.369   5.258   4.622  0.3208  0.6449 -0.1322
  156MOL   H15146961   4.587   5.195   4.716 -0.2129 -1.4387  0.0301
  156MOL   C15246962   4.607   5.448   5.143 -0.2674  0.4086  0.3773
  156MOL   C15346963   4.532   5.491   5.268  0.0191 -0.0501 -0.1131
  156MOL   C15446964   4.392   5.443   5.256 -0.5140 -0.2288  0.0487
  156MOL   C15546965   4.285   5.535   5.221  0.0724  0.4784 -0.4442
  156MOL   C15646966   4.158   5.493   5.236  0.5460  0.5597  0.5894
  156MOL   C15746967   4.138   5.361   5.269  0.1426  0.2192 -0.9656
  156MOL   C15846968   4.248   5.272   5.278 -0.0909 -0.1535 -0.2866
  156MOL   N15946969   4.376   5.311   5.279 -0.8384  0.1565  0.0109
  156MOL   H16046970   4.713   5.427   5.158 -0.5101 -0.4261  0.9241
  156MOL   H16146971   4.583   5.346   5.114  1.1020 -0.0074  0.6280
  156MOL   H16246972   4.556   5.597   5.260  0.6248 -0.2281 -0.6986
  156MOL   H16346973   4.320   5.633   5.193  0.9983  0.1908 -0.3290
  156MOL   H16446974   4.079   5.562   5.212 -0.0081 -0.6990 -1.3378
  156MOL   H16546975   4.036   5.330   5.286  0.7999 -0.6241  1.6598
  156MOL   H16646976   4.233   5.166   5.291 -1.5889 -0.1031 -1.4678
  156MOL   C16746977   4.593   5.450   5.402 -0.0373 -0.4786  0.1674
  156MOL   C16846978   4.517   5.499   5.523 -0.1056 -0.0306 -0.2738
  156MOL   C16946979   4.604   5.461   5.641  0.3038 -0.0256  0.1726
  156MOL   C17046980   4.552   5.389   5.748 -0.1410 -0.0674 -0.4263
  156MOL   C17146981   4.622   5.347   5.860  0.4845  0.3680  0.2892
  156MOL   C17246982   4.757   5.391   5.868 -0.5850  0.4974  0.1622
  156MOL   C17346983   4.799   5.474   5.758  0.8164  0.7248 -0.0642
  156MOL   N17446984   4.729   5.502   5.648 -0.6071 -0.1082 -0.3806
  156MOL   H17546985   4.698   5.480   5.403 -0.5131  1.2259  1.2480
  156MOL   H17646986   4.608   5.343   5.413  1.4241 -0.2339  0.6077
  156MOL   H17746987   4.423   5.444   5.528 -0.6719  0.8652 -0.9647
  156MOL   H17846988   4.449   5.356   5.741 -0.0428 -0.6671  0.7818
  156MOL   H17946989   4.574   5.287   5.935  1.2272 -0.8508 -0.1954
  156MOL   H18046990   4.826   5.369   5.948  0.1992 -0.0097 -0.6403
  156MOL   H18146991   4.901   5.509   5.748  0.6312  1.1131 -0.6412
  156MOL   C18246992   4.490   5.659   5.529 -0.0403  0.7098  0.4354
  156MOL   C18346993   4.415   5.706   5.650 -0.0968 -0.3773  0.3238
  156MOL   C18446994   4.434   5.861   5.669  0.2375  0.9875 -0.3140
  156MOL   C18546995   4.494   5.913   5.782 -0.4707  0.4689 -0.1521
  156MOL   C18646996   4.479   6.049   5.802  0.1289  0.0702 -0.1411
  156MOL   C18746997   4.419   6.128   5.703 -0.0983  0.0274  0.0578
  156MOL   C18846998   4.369   6.068   5.583 -0.0500  0.3028 -0.5275
  156MOL   N18946999   4.379   5.937   5.576  0.2638  0.5634 -0.0159
  156MOL   H19047000   4.433   5.697   5.444 -0.1297 -0.2834  0.0457
  156MOL   H19147001   4.583   5.716   5.523  0.5770 -0.2020  1.2140
  156MOL   H19247002   4.467   5.665   5.737 -0.0789 -1.2718 -0.1022
  156MOL   H19347003   4.537   5.847   5.857  1.2667  1.1186 -0.5789
  156MOL   H19447004   4.521   6.096   5.889  0.0078 -1.6826  0.8807
  156MOL   H19547005   4.418   6.236   5.715 -1.3532 -0.2280  2.5135
  156MOL   H19647006   4.320   6.129   5.509  1.0721  0.3769 -1.2228
  156MOL   C19747007   4.270   5.660   5.663 -0.5859  0.5844  0.0372
  156MOL   C19847008   4.190   5.710   5.785 -0.0085 -0.7677 -0.2927
  156MOL   C19947009   4.079   5.802   5.741 -0.7386 -0.4987  0.3982
  156MOL   C20047010   4.098   5.947   5.749 -0.1652 -0.4427 -0.4254
  156MOL   C20147011   3.994   6.030   5.695  0.2523  0.5616 -0.1920
  156MOL   C20247012   3.868   5.969   5.659 -0.2411  0.1897 -0.5894
  156MOL   C20347013   3.857   5.832   5.667 -0.3570  0.8951 -0.7395
  156MOL   N20447014   3.962   5.745   5.695 -0.3102  0.0063  0.3693
  156MOL   H20547015   4.274   5.551   5.667  0.5211  0.4736 -2.9355
  156MOL   H20647016   4.234   5.693   5.566  1.7916  0.9900 -0.7447
  156MOL   H20747017   4.254   5.769   5.850  0.2571  0.4623 -1.6545
  156MOL   H20847018   4.189   5.984   5.795 -0.9717  1.9962 -0.7165
  156MOL   H20947019   4.003   6.138   5.699  2.5124  0.3844  0.0592
  156MOL   H21047020   3.777   6.023   5.638 -0.4012 -0.3575 -1.3109
  156MOL   H21147021   3.760   5.787   5.648 -0.1178 -0.7348  1.7537
  156MOL   C21247022   4.121   5.603   5.869 -0.3022  0.1095  0.1734
  156MOL   C21347023   4.221   5.515   5.955  0.5165  0.0412  0.0867
  156MOL   C21447024   4.304   5.599   6.046  0.1316 -0.1483  0.2465
  156MOL   C21547025   4.255   5.662   6.164  0.0757  0.4069  0.6488
  156MOL   C21647026   4.343   5.732   6.244 -0.1775  0.0172 -0.7984
  156MOL   C21747027   4.473   5.749   6.205  0.0671  0.4535  0.1653
  156MOL   C21847028   4.513   5.682   6.085  0.3851 -0.0911  0.0819
  156MOL   N21947029   4.431   5.617   6.006 -0.0415  0.6325  0.3825
  156MOL   H22047030   4.062   5.552   5.792  1.8568 -1.6247 -0.3998
  156MOL   H22147031   4.058   5.649   5.944 -1.6319 -0.2983 -0.6768
  156MOL   H22247032   4.284   5.468   5.879 -0.1905 -0.7320 -0.0361
  156MOL   H22347033   4.150   5.659   6.190 -0.4477 -0.1182 -1.4034
  156MOL   H22447034   4.306   5.762   6.341  0.8152 -1.5635  0.0911
  156MOL   H22547035   4.539   5.790   6.280  0.1600  2.0352 -0.7596
  156MOL   H22647036   4.610   5.704   6.042  0.9498  0.1684  1.4782
  156MOL   C22747037   4.150   5.403   6.030  0.2915  0.3172  0.0009
  156MOL   C22847038   4.071   5.303   5.942 -0.4278  0.0588 -0.1499
  156MOL   C22947039   4.153   5.220   5.848  0.1503 -0.1061 -0.4346
  156MOL   C23047040   4.143   5.237   5.712  0.4456  0.6798  0.0021
  156MOL   C23147041   4.232   5.161   5.630  0.0194 -0.7363 -0.4797
  156MOL   C23247042   4.320   5.067   5.694 -0.6132  0.2481  0.2906
  156MOL   C23347043   4.325   5.061   5.837  0.2027 -0.6108  0.4003
  156MOL   N23447044   4.239   5.140   5.911  0.2580 -0.3246  0.1949
  156MOL   H23547045   4.085   5.449   6.104  2.0934  0.8470  1.2991
  156MOL   H23647046   4.224   5.356   6.095 -0.4883 -0.2517  0.4887
  156MOL   H23747047   4.012   5.360   5.870 -0.4873  0.1449 -0.0317
  156MOL   H23847048   4.079   5.304   5.657  2.3144  1.2787 -1.5190
  156MOL   H23947049   4.214   5.172   5.524 -0.8914 -2.2804 -0.5036
  156MOL   H24047050   4.384   5.009   5.630  1.6630  1.7401  1.1484
  156MOL   H24147051   4.385   4.997   5.900  2.5868 -1.0658 -2.2260
  156MOL   C24247052   3.962   5.227   6.021  0.0924  0.0945 -0.0019
  156MOL   C24347053   3.828   5.195   5.952  0.7366 -0.3898 -0.7053
  156MOL   C24447054   3.757   5.316   5.893 -0.0377  0.3906  0.1582
  156MOL   C24547055   3.674   5.393   5.976  0.1958  0.0800  0.8587
  156MOL   C24647056   3.610   5.500   5.923  0.1870 -0.3866  0.4858
  156MOL   C24747057   3.636   5.537   5.790 -0.1309  0.1832 -0.5265
  156MOL   C24847058   3.715   5.450   5.718 -0.1810 -0.3509 -0.9106
  156MOL   N24947059   3.784   5.347   5.770 -0.0300  0.1838  0.6343
  156MOL   H25047060   3.928   5.289   6.104  0.9770  0.3469  0.1750
  156MOL   H25147061   4.009   5.142   6.071  0.5296  1.1677  1.4694
  156MOL   H25247062   3.760   5.175   6.034 -1.7048  0.5248 -2.4580
  156MOL   H25347063   3.657   5.376   6.082  0.4859 -2.5363  0.5105
  156MOL   H25447064   3.550   5.561   5.989  2.1609  1.6200  0.4854
  156MOL   H25547065   3.591   5.623   5.741 -2.9151 -0.5752  0.5721
  156MOL   H25647066   3.729   5.480   5.615  2.1536  1.6891 -0.0481
  156MOL   C25747067   3.831   5.062   5.866  0.3982  0.5760  0.1118
  156MOL   C25847068   3.697   5.011   5.803 -0.0473  0.2997  0.7466
  156MOL   C25947069   3.723   4.885   5.727 -0.2867  0.2638 -0.1024
  156MOL   C26047070   3.696   4.870   5.591  0.4726  0.8458 -0.4036
  156MOL   C26147071   3.733   4.749   5.524  0.4944  0.0756  0.6259
  156MOL   C26247072   3.791   4.642   5.603 -0.1472 -0.0215  0.4657
  156MOL   C26347073   3.799   4.668   5.741 -0.1771 -0.2526 -0.2115
  156MOL   N26447074   3.770   4.784   5.804 -0.0794  0.2336 -0.2190
  156MOL   H26547075   3.874   4.983   5.929 -2.0046 -0.4075  0.5732
  156MOL   H26647076   3.909   5.071   5.791 -1.3787  1.8731 -1.6238
  156MOL   H26747077   3.660   5.083   5.731  0.2360 -2.1914 -1.9699
  156MOL   H26847078   3.657   4.954   5.534 -1.4916  0.3409  0.1686
  156MOL   H26947079   3.720   4.739   5.417 -0.3898 -1.5174  0.8713
  156MOL   H27047080   3.824   4.549   5.559  2.3920  0.4757  1.2727
  156MOL   H27147081   3.836   4.593   5.809  1.0412  1.3357  0.9158
  156MOL   C27247082   3.592   4.985   5.913  0.6709 -0.2015  0.2701
  156MOL   C27347083   3.491   5.098   5.935 -0.3271 -0.2179 -0.6247
  156MOL   C27447084   3.428   5.154   5.807 -0.1416 -0.0921 -0.4005
  156MOL   C27547085   3.385   5.293   5.795  0.3528 -0.0422 -0.2377
  156MOL   C27647086   3.328   5.332   5.674 -0.3687 -0.3587 -0.7604
  156MOL   C27747087   3.319   5.243   5.569 -0.6037 -0.5407 -0.6036
  156MOL   C27847088   3.347   5.108   5.593  0.5658 -0.6489  0.2769
  156MOL   N27947089   3.401   5.069   5.706 -0.0742  0.2500 -0.5168
  156MOL   H28047090   3.646   4.962   6.005 -1.9918 -1.5895  1.5391
  156MOL   H28147091   3.533   4.893   5.912  0.2841  0.0243  2.1077
  156MOL   H28247092   3.532   5.183   5.990 -1.8216 -1.5353  2.6078
  156MOL   H28347093   3.399   5.361   5.878  1.1448 -0.1849 -0.2539
  156MOL   H28447094   3.320   5.437   5.654 -3.1570 -0.4227 -0.1462
  156MOL   H28547095   3.269   5.267   5.477  0.1441 -0.9489 -1.1273
  156MOL   H28647096   3.331   5.033   5.517 -0.7577  0.2597 -0.3474
  156MOL   C28747097   3.380   5.047   6.039  0.3420 -0.6327  0.3165
  156MOL   C28847098   3.263   5.137   6.086 -0.5692  0.5704 -0.4072
  156MOL   C28947099   3.146   5.045   6.120 -0.2720  0.1302  0.0025
  156MOL   C29047100   3.168   4.923   6.188  0.0211  0.1252 -0.0534
  156MOL   C29147101   3.062   4.843   6.221  0.2509  0.5733 -0.4334
  156MOL   C29247102   2.930   4.893   6.206 -0.2487  0.4521 -0.1905
  156MOL   C29347103   2.919   5.018   6.143  0.4726  0.2075  0.3266
  156MOL   N29447104   3.023   5.095   6.097 -0.1321 -0.0644 -0.4165
  156MOL   H29547105   3.425   4.981   6.113 -0.7929 -2.2918 -0.4373
  156MOL   H29647106   3.339   4.974   5.969 -2.8240  3.6966 -2.6440
  156MOL   H29747107   3.242   5.195   5.996  2.2476 -0.4695 -1.7814
  156MOL   H29847108   3.267   4.882   6.204 -0.4106 -1.5968 -1.5699
  156MOL   H29947109   3.065   4.746   6.270  0.7480  1.3662  1.1372
  156MOL   H30047110   2.842   4.845   6.245  1.3189 -1.6389  0.8624
  156MOL   H30147111   2.828   5.075   6.131 -0.4834 -1.4741 -0.5515
  156MOL   H30247112   3.291   5.199   6.171  0.2918 -1.9226  1.1786
  157MOL     C147113   1.176   7.919   6.727  0.7888  0.1129  0.0447
  157MOL     C247114   1.070   7.859   6.626 -0.3913 -0.9226  0.4488
  157MOL     C347115   1.014   7.732   6.680  0.4766  0.8105  0.1416
  157MOL     C447116   1.034   7.618   6.601 -0.7431  0.1750 -0.5115
  157MOL     C547117   0.985   7.500   6.661 -0.0808  0.3487 -0.6780
  157MOL     C647118   0.926   7.494   6.788  0.0664  0.1180 -0.7582
  157MOL     C747119   0.919   7.614   6.857  0.2061  0.1509  0.0715
  157MOL     N847120   0.946   7.734   6.801 -0.7307  0.4293  0.2953
  157MOL     H947121   1.220   8.009   6.683  1.1022 -0.3523 -0.6005
  157MOL    H1047122   1.122   7.938   6.820  1.1624 -0.0957  0.3057
  157MOL    H1147123   1.123   7.846   6.532  0.6289  1.5837  0.6261
  157MOL    H1247124   1.076   7.634   6.504 -0.2072  1.0192 -0.1419
  157MOL    H1347125   0.985   7.409   6.603 -1.0561  0.4303 -0.8218
  157MOL    H1447126   0.887   7.400   6.824 -1.4431  0.4045 -1.6230
  157MOL    H1547127   0.882   7.621   6.958  0.6920  0.3217  0.2427
  157MOL    H1647128   1.254   7.846   6.746  1.2270  0.1981 -1.3377
  157MOL    C1747129   0.968   7.969   6.597 -0.3169 -0.7140 -0.1278
  157MOL    C1847130   0.857   7.939   6.489 -0.1874  0.6842 -0.2647
  157MOL    C1947131   0.906   7.929   6.343 -0.2284 -0.8896 -0.1980
  157MOL    C2047132   0.888   8.030   6.254 -0.3095 -0.8516 -0.1835
  157MOL    C2147133   0.911   8.005   6.117  0.5033  0.5764  0.3354
  157MOL    C2247134   0.965   7.880   6.082 -0.5714 -0.5834  0.0163
  157MOL    C2347135   0.991   7.788   6.182  0.5114 -0.0488 -0.3927
  157MOL    N2447136   0.969   7.811   6.312 -0.0348 -0.1928 -0.3215
  157MOL    H2547137   1.015   8.064   6.569  1.0719 -0.9953  1.2039
  157MOL    H2647138   0.928   8.004   6.692 -1.3835 -0.6945 -0.5825
  157MOL    H2747139   0.797   8.030   6.488 -1.9669 -0.4547 -0.1188
  157MOL    H2847140   0.825   8.113   6.285  1.5828  0.3576  0.5981
  157MOL    H2947141   0.886   8.072   6.037 -2.1564 -0.9931 -0.2180
  157MOL    H3047142   0.966   7.839   5.982  0.0067  0.0724 -0.2515
  157MOL    H3147143   1.023   7.687   6.161  0.2770  0.0093 -1.0570
  157MOL    C3247144   0.747   7.837   6.519  0.1402  0.1227  0.0114
  157MOL    C3347145   0.670   7.853   6.653 -0.3313  1.3104 -0.4371
  157MOL    C3447146   0.597   7.984   6.670 -0.2802 -1.0396 -0.0053
  157MOL    C3547147   0.643   8.081   6.763  0.7558 -0.1171 -0.6020
  157MOL    C3647148   0.580   0.059   6.769 -0.3733  0.4550  0.1423
  157MOL    C3747149   0.475   0.088   6.684  0.1989 -0.1038  0.2574
  157MOL    C3847150   0.429   8.138   6.597  0.2555  0.1707 -0.4465
  157MOL    N3947151   0.496   8.017   6.581  0.5445  0.4501  0.0880
  157MOL    H4047152   0.801   7.743   6.512  0.8464  0.5383 -0.1950
  157MOL    H4147153   0.677   7.839   6.436 -1.7577 -1.8100  1.5144
  157MOL    H4247154   0.745   7.854   6.732 -1.1519 -1.2874  0.4257
  157MOL    H4347155   0.715   8.062   6.841 -0.1597  0.3438  0.3828
  157MOL    H4447156   0.620   0.135   6.834  1.0318 -0.4000  0.3032
  157MOL    H4547157   0.414   0.177   6.688 -0.3950 -0.4440 -0.7731
  157MOL    H4647158   0.357   0.012   6.521 -1.4885 -1.6648  0.5389
  157MOL    C4747159   0.571   7.728   6.677 -0.2791  0.4829  0.1008
  157MOL    C4847160   0.474   7.737   6.790  0.1832  0.4039  0.0416
  157MOL    C4947161   0.376   7.625   6.760  0.7426  0.0029  0.0718
  157MOL    C5047162   0.235   7.649   6.746 -0.0113 -0.2191 -0.8174
  157MOL    C5147163   0.154   7.545   6.723 -0.3250  0.2667 -0.1931
  157MOL    C5247164   0.210   7.415   6.699 -0.2338  0.1741 -0.2426
  157MOL    C5347165   0.347   7.398   6.706  0.0120  0.1258 -0.2898
  157MOL    N5447166   0.428   7.501   6.738 -0.0689  0.2834  0.2371
  157MOL    H5547167   0.618   7.630   6.679 -1.5986 -0.1708 -0.6653
  157MOL    H5647168   0.513   7.726   6.585  1.8078  0.6179 -1.2765
  157MOL    H5747169   0.429   7.836   6.785  0.4201  0.7272  2.9602
  157MOL    H5847170   0.202   7.749   6.770  0.3537  0.1560 -1.8304
  157MOL    H5947171   0.046   7.556   6.716 -0.1399  1.2039 -2.0785
  157MOL    H6047172   0.147   7.332   6.670 -0.4314 -0.1924  1.1952
  157MOL    H6147173   0.400   7.304   6.704  1.0616  0.7031 -0.0045
  157MOL    C6247174   0.547   7.722   6.927  0.1270 -0.2940 -0.0039
  157MOL    C6347175   0.507   7.838   7.024 -0.0811 -0.2932 -0.2263
  157MOL    C6447176   0.356   7.861   7.047 -0.0559  0.1303 -0.0886
  157MOL    C6547177   0.289   7.983   7.011  0.3940 -0.0069  0.6263
  157MOL    C6647178   0.151   7.988   7.040 -0.3787 -0.6505  0.3324
  157MOL    C6747179   0.087   7.872   7.091  0.2237  0.0939 -0.4867
  157MOL    C6847180   0.167   7.758   7.129  0.0228  0.2253 -0.1667
  157MOL    N6947181   0.302   7.754   7.105  0.6864 -0.4701 -0.4185
  157MOL    H7047182   0.655   7.728   6.915 -0.0474  2.8147 -0.4219
  157MOL    H7147183   0.536   7.621   6.966  2.9741 -1.1817 -1.3772
  157MOL    H7247184   0.529   7.933   6.974  0.3524 -0.3601 -0.1691
  157MOL    H7347185   0.346   8.066   6.973  1.9499 -0.4335  1.9515
  157MOL    H7447186   0.096   8.078   7.019 -0.7465 -0.5374  1.7237
  157MOL    H7547187   8.137   7.880   7.126 -0.1717 -2.5477 -0.9057
  157MOL    H7647188   0.127   7.673   7.183 -1.0369  0.7770 -0.0707
  157MOL    C7747189   0.576   7.812   7.164  0.2868  0.5095  0.4240
  157MOL    C7847190   0.716   7.866   7.174 -0.7486  0.2963  0.5228
  157MOL    C7947191   0.727   8.017   7.164  0.6813 -0.2248 -0.0733
  157MOL    C8047192   0.819   8.071   7.069  0.1495  0.7155  0.1525
  157MOL    C8147193   0.837   0.055   7.059 -0.1230  0.4881 -0.2227
  157MOL    C8247194   0.757   0.138   7.150 -0.0434 -0.1622 -0.1961
  157MOL    C8347195   0.665   0.073   7.240  0.7628 -0.2789 -0.1029
  157MOL    N8447196   0.661   8.093   7.244  0.8991 -0.1850 -0.2348
  157MOL    H8547197   0.564   7.704   7.173  0.8294  0.5654  1.7988
  157MOL    H8647198   0.524   7.862   7.245 -1.1121  1.1913 -0.8580
  157MOL    H8747199   0.777   7.824   7.094  0.9793  2.9618  0.3612
  157MOL    H8847200   0.868   8.010   6.994 -2.6308 -1.2378 -0.1423
  157MOL    H8947201   0.904   0.103   6.989  0.6362 -1.1011 -0.6011
  157MOL    H9047202   0.779   0.244   7.153  2.5971 -0.7009  0.4501
  157MOL    H9147203   0.608   0.133   7.310 -0.7785 -1.2169 -0.5436
  157MOL    C9247204   0.781   7.812   7.305 -1.2350  0.3590  0.0760
  157MOL    C9347205   0.926   7.763   7.292  0.5087  0.4060 -0.6250
  157MOL    C9447206   1.009   7.880   7.246  0.3144  0.1035  0.5353
  157MOL    C9547207   1.080   7.864   7.126  0.7398 -0.3640  0.0823
  157MOL    C9647208   1.164   7.974   7.092  0.4783 -0.4694  0.3751
  157MOL    C9747209   1.170   8.086   7.176  0.4560 -0.0283 -0.1324
  157MOL    C9847210   1.099   8.089   7.300 -0.0903  0.3481 -0.3632
  157MOL    N9947211   1.021   7.984   7.328 -0.3169  0.3038  0.3081
  157MOL   H10047212   0.724   7.725   7.339 -0.0075 -0.4244  0.1385
  157MOL   H10147213   0.767   7.883   7.386  0.1571 -0.5150  1.1071
  157MOL   H10247214   0.932   7.682   7.220 -0.4845  0.4879 -0.8061
  157MOL   H10347215   1.086   7.775   7.064 -0.5080  2.0298 -3.6290
  157MOL   H10447216   1.229   7.972   7.005  3.7063 -3.0865  2.7112
  157MOL   H10547217   1.229   0.019   7.143 -0.0898  0.0057 -1.0592
  157MOL   H10647218   1.105   0.021   7.368 -0.3380  0.1583 -0.1084
  157MOL   C10747219   0.969   7.718   7.431  0.1925 -0.1589 -0.0809
  157MOL   C10847220   1.116   7.685   7.453 -0.8689  0.4383  0.0987
  157MOL   C10947221   1.159   7.741   7.587  0.0688 -0.4913  0.0233
  157MOL   C11047222   1.227   7.861   7.596 -0.5244 -0.7085  0.1801
  157MOL   C11147223   1.252   7.919   7.721  0.2286  0.5617 -0.3844
  157MOL   C11247224   1.218   7.850   7.837 -0.9365  0.0260  0.4281
  157MOL   C11347225   1.137   7.730   7.818  0.1911 -0.3059  0.2002
  157MOL   N11447226   1.112   7.676   7.698 -0.2400 -0.4940  0.3831
  157MOL   H11547227   0.908   7.639   7.475  2.9578 -0.8039  2.7439
  157MOL   H11647228   0.942   7.797   7.500 -4.5292  0.3951 -2.3587
  157MOL   H11747229   1.172   7.731   7.372 -1.9576  1.0343 -0.3165
  157MOL   H11847230   1.258   7.910   7.505  0.4218 -2.4066 -0.4112
  157MOL   H11947231   1.314   8.007   7.723  2.5349 -1.0376  1.6843
  157MOL   H12047232   1.238   7.889   7.935 -0.6488 -0.1361  0.4346
  157MOL   H12147233   1.090   7.675   7.899  0.4782 -0.9504 -0.0719
  157MOL   C12247234   1.149   7.541   7.457 -0.7268  0.0485 -0.1626
  157MOL   C12347235   1.183   7.479   7.326  0.1239 -0.3212  0.1787
  157MOL   C12447236   1.315   7.534   7.261  1.0654 -0.4147  0.1212
  157MOL   C12547237   1.320   7.618   7.150 -0.1679 -0.8594  0.7183
  157MOL   C12647238   1.449   7.652   7.098  0.2623  0.0940  0.3873
  157MOL   C12747239   1.561   7.616   7.175 -0.6167 -0.1402 -0.0113
  157MOL   C12847240   1.548   7.556   7.297  0.4485  0.3378  0.0652
  157MOL   N12947241   1.425   7.509   7.337 -0.0833 -0.2457 -0.9601
  157MOL   H13047242   1.068   7.499   7.516 -1.1657 -0.8930 -1.4226
  157MOL   H13147243   1.235   7.532   7.524 -1.3639 -2.1149  0.4169
  157MOL   H13247244   1.102   7.520   7.266 -0.8592  0.4330  1.9743
  157MOL   H13347245   1.230   7.626   7.091  0.4513 -2.3405 -0.4498
  157MOL   H13447246   1.449   7.701   7.002 -0.6962  1.3723  1.0216
  157MOL   H13547247   1.660   7.626   7.135 -1.1679  1.0400 -1.1293
  157MOL   H13647248   1.629   7.514   7.356 -0.8926 -0.8608  1.1037
  157MOL   C13747249   1.177   7.325   7.319  0.5783 -0.4096 -0.1307
  157MOL   C13847250   1.051   7.253   7.378 -0.7176 -0.3101  0.6561
  157MOL   C13947251   0.921   7.320   7.346  1.1669 -0.5271 -0.4285
  157MOL   C14047252   0.823   7.369   7.439  0.2560 -0.2917 -0.4064
  157MOL   C14147253   0.708   7.436   7.382 -0.0029  0.0719 -0.4522
  157MOL   C14247254   0.687   7.441   7.246  0.6687 -0.0387 -0.3579
  157MOL   C14347255   0.786   7.380   7.165  0.0293  0.2455  0.0221
  157MOL   N14447256   0.896   7.323   7.215 -0.3572 -0.0786 -0.1873
  157MOL   H14547257   1.266   7.286   7.368  0.6757  0.2917  0.2594
  157MOL   H14647258   1.182   7.298   7.214  0.6664 -1.2102  0.0726
  157MOL   H14747259   1.054   7.264   7.486  2.3152 -0.1333  0.5961
  157MOL   H14847260   0.832   7.354   7.546 -1.4748  0.3575 -0.1463
  157MOL   H14947261   0.629   7.474   7.445 -0.0776  1.8102 -1.5742
  157MOL   H15047262   0.604   7.493   7.202 -0.7522 -0.8095  1.3401
  157MOL   H15147263   0.779   7.385   7.057 -0.4319 -1.9924 -0.0878
  157MOL   C15247264   1.054   7.102   7.335 -1.0864  0.3609 -0.3477
  157MOL   C15347265   1.131   7.016   7.438  0.6372  0.5205 -0.1117
  157MOL   C15447266   1.039   7.002   7.572 -0.5766 -0.1189  0.4270
  157MOL   C15547267   0.906   6.950   7.569 -0.1385  0.0976  0.0321
  157MOL   C15647268   0.841   6.940   7.689 -1.0904  0.6770  0.5238
  157MOL   C15747269   0.899   6.992   7.802  0.5576 -0.4552 -0.2054
  157MOL   C15847270   1.031   7.049   7.797  0.2228 -0.0540  0.1579
  157MOL   N15947271   1.096   7.053   7.681  0.2210 -0.3464 -0.6521
  157MOL   H16047272   1.071   7.098   7.228  0.7891  0.7893 -0.0843
  157MOL   H16147273   0.953   7.064   7.347 -0.8147 -0.1235  0.4015
  157MOL   H16247274   1.220   7.075   7.461  0.7368 -0.3982  2.0530
  157MOL   H16347275   0.861   6.910   7.479 -2.3207  0.2038  1.0420
  157MOL   H16447276   0.744   6.894   7.694 -0.8167 -0.2454 -2.1980
  157MOL   H16547277   0.857   6.993   7.902 -0.7142  0.5245 -0.7412
  157MOL   H16647278   1.091   7.085   7.880  4.8337 -3.2585 -1.5721
  157MOL   C16747279   1.163   6.874   7.392  0.0581 -0.0992 -0.1474
  157MOL   C16847280   1.256   6.862   7.266 -0.7450  0.1202 -0.2653
  157MOL   C16947281   1.393   6.919   7.298  0.7959 -0.4684  0.1060
  157MOL   C17047282   1.435   7.039   7.244 -0.0716  0.3718  0.9323
  157MOL   C17147283   1.563   7.094   7.270  0.2830 -0.0943  0.5156
  157MOL   C17247284   1.649   7.021   7.348  0.2907 -0.3382 -0.3393
  157MOL   C17347285   1.601   6.895   7.389  0.0740  0.1604 -0.1341
  157MOL   N17447286   1.479   6.843   7.370 -0.3597 -0.5079  0.2007
  157MOL   H17547287   1.071   6.819   7.376  0.0460 -0.0953 -0.0930
  157MOL   H17647288   1.200   6.803   7.467  2.3788  0.7690 -0.4435
  157MOL   H17747289   1.213   6.934   7.196 -1.6113 -0.4509 -0.3269
  157MOL   H17847290   1.372   7.101   7.183 -0.1739 -1.9758 -1.4702
  157MOL   H17947291   1.590   7.188   7.224  0.4791  0.1627  1.1518
  157MOL   H18047292   1.749   7.059   7.365  0.8267 -1.3447 -1.1932
  157MOL   H18147293   1.667   6.830   7.445  1.7511  0.0737 -2.1166
  157MOL   C18247294   1.257   6.720   7.205  0.7543  0.8788 -0.0877
  157MOL   C18347295   1.175   6.692   7.074  0.3397 -0.8913  0.6257
  157MOL   C18447296   1.027   6.733   7.094 -0.0968  0.4030  0.0034
  157MOL   C18547297   0.934   6.640   7.144 -0.5932 -0.2413  0.1669
  157MOL   C18647298   0.800   6.684   7.157  0.4761 -0.5871  0.2485
  157MOL   C18747299   0.768   6.813   7.112  0.0352  0.0085  0.5224
  157MOL   C18847300   0.873   6.890   7.070  0.5400 -0.4525 -0.0418
  157MOL   N18947301   0.999   6.857   7.061 -0.2923 -0.0459  0.6537
  157MOL   H19047302   1.215   6.656   7.283  2.0626 -0.7275 -0.6840
  157MOL   H19147303   1.354   6.671   7.204 -1.2537 -3.3677  1.4274
  157MOL   H19247304   1.157   6.585   7.066 -0.1382 -0.8189  0.6919
  157MOL   H19347305   0.957   6.544   7.187  0.6235 -0.2943 -0.5975
  157MOL   H19447306   0.717   6.625   7.193 -0.2451  0.1087 -0.2372
  157MOL   H19547307   0.662   6.833   7.118 -0.1955  0.2068 -2.8979
  157MOL   H19647308   0.862   6.998   7.065  0.5056 -0.2838  2.6693
  157MOL   C19747309   1.236   6.746   6.943 -0.0572  0.5717 -0.6074
  157MOL   C19847310   1.367   6.669   6.908  0.3039  0.2779  0.3301
  157MOL   C19947311   1.348   6.516   6.902 -0.3285  0.2971 -0.0752
  157MOL   C20047312   1.400   6.429   6.998  0.4842 -0.3093 -0.9244
  157MOL   C20147313   1.397   6.295   6.978  0.4967 -0.0250 -0.2822
  157MOL   C20247314   1.325   6.245   6.870  0.8967 -0.4618 -0.2026
  157MOL   C20347315   1.269   6.340   6.781 -0.6137 -0.0299  0.3232
  157MOL   N20447316   1.285   6.468   6.793 -0.0289 -0.0878  0.0238
  157MOL   H20547317   1.255   6.852   6.957 -0.7584  0.6294 -0.0918
  157MOL   H20647318   1.161   6.737   6.865 -0.0286 -2.7503 -0.3236
  157MOL   H20747319   1.434   6.691   6.991  0.7868 -0.1637  0.0562
  157MOL   H20847320   1.453   6.467   7.084  1.3032 -0.8805 -1.1712
  157MOL   H20947321   1.450   6.229   7.045  2.2498  1.3875 -0.2429
  157MOL   H21047322   1.296   6.142   6.854 -0.0701 -0.5341  1.8506
  157MOL   H21147323   1.221   6.302   6.692 -0.0244 -1.0419  0.4223
  157MOL   C21247324   1.428   6.718   6.780  0.3182  0.2418  0.2542
  157MOL   C21347325   1.516   6.845   6.804 -0.5162  0.2078 -0.5100
  157MOL   C21447326   1.650   6.803   6.867 -0.2752 -0.2483 -0.7580
  157MOL   C21547327   1.672   6.826   7.004  0.1373  1.0006 -0.5448
  157MOL   C21647328   1.781   6.764   7.059 -0.4100  0.8695 -0.5140
  157MOL   C21747329   1.866   6.681   6.977 -0.0722 -0.4329 -0.4415
  157MOL   C21847330   1.839   6.675   6.840 -0.1071 -0.0086 -0.0025
  157MOL   N21947331   1.726   6.730   6.789  0.3755 -0.3143 -0.9764
  157MOL   H22047332   1.354   6.750   6.707  0.6941 -1.6980 -1.0244
  157MOL   H22147333   1.494   6.646   6.731 -0.2058  0.5637 -0.9597
  157MOL   H22247334   1.461   6.910   6.872 -0.7373 -0.3987 -0.1058
  157MOL   H22347335   1.609   6.886   7.069 -0.3587  1.7085 -1.6602
  157MOL   H22447336   1.797   6.767   7.166  1.8533  1.4778 -0.8485
  157MOL   H22547337   1.943   6.612   7.009 -0.2013  0.1554  1.1602
  157MOL   H22647338   1.892   6.611   6.771  2.1071  0.1554  1.5043
  157MOL   C22747339   1.542   6.927   6.683 -0.1822 -0.3227 -0.3771
  157MOL   C22847340   1.433   7.017   6.646 -0.6240  0.3215 -0.0925
  157MOL   C22947341   1.389   7.115   6.757  0.1829 -0.3975 -0.2543
  157MOL   C23047342   1.258   7.111   6.809 -0.1667 -0.1641  0.9966
  157MOL   C23147343   1.219   7.196   6.916  0.3963 -0.2290  0.4799
  157MOL   C23247344   1.318   7.297   6.951 -0.6108  0.4356  0.2996
  157MOL   C23347345   1.451   7.282   6.905  0.4251  0.2823 -0.3894
  157MOL   N23447346   1.486   7.195   6.812  0.0903 -0.5946  0.0247
  157MOL   H23547347   1.561   6.858   6.601  1.7862 -0.2715  0.0268
  157MOL   H23647348   1.627   6.994   6.696 -1.4351  1.9426 -3.3356
  157MOL   H23747349   1.350   6.951   6.621 -1.1553  0.0610  2.2570
  157MOL   H23847350   1.190   7.029   6.790  2.3822 -2.4154  1.4069
  157MOL   H23947351   1.124   7.208   6.965 -0.2642  2.0929 -1.3022
  157MOL   H24047352   1.293   7.377   7.019 -0.7424 -0.8085  1.7498
  157MOL   H24147353   1.528   7.349   6.941  2.2202 -1.9360  0.0204
  157MOL   C24247354   1.475   7.103   6.522  0.6203  0.2095 -1.0018
  157MOL   C24347355   1.360   7.190   6.461 -0.3218 -0.1270 -0.7046
  157MOL   C24447356   1.410   7.334   6.430 -0.5091  0.2737 -0.1192
  157MOL   C24547357   1.342   7.443   6.492 -0.1801  0.2275  0.2306
  157MOL   C24647358   1.397   7.567   6.469  0.1711 -0.3197 -1.0431
  157MOL   C24747359   1.513   7.581   6.389 -0.2902 -0.5491 -0.7515
  157MOL   C24847360   1.574   7.467   6.342 -0.2233 -0.2573  0.2584
  157MOL   N24947361   1.526   7.344   6.361  0.2342  0.7412 -0.1479
  157MOL   H25047362   1.514   7.034   6.447  2.6443  0.3216 -0.0719
  157MOL   H25147363   1.567   7.160   6.529  1.3649 -1.0039 -0.7646
  157MOL   H25247364   1.281   7.212   6.532  0.7731  0.5755  0.3262
  157MOL   H25347365   1.253   7.420   6.549 -1.3435 -1.9729 -2.3754
  157MOL   H25447366   1.355   7.657   6.512  2.0829  0.0509  0.1069
  157MOL   H25547367   1.555   7.677   6.366 -2.0836  0.5027  0.1937
  157MOL   H25647368   1.667   7.475   6.287 -1.7031  0.6107 -2.1590
  157MOL   C25747369   1.300   7.124   6.330  0.8270 -0.2289  0.1565
  157MOL   C25847370   1.222   6.995   6.359 -0.6614  0.2900 -0.5033
  157MOL   C25947371   1.102   7.017   6.448  0.1919  0.3145  0.3621
  157MOL   C26047372   1.078   6.928   6.552  0.0543 -0.6912 -0.3117
  157MOL   C26147373   0.964   6.946   6.625  0.2191 -0.9071  0.1430
  157MOL   C26247374   0.884   7.057   6.602 -0.1428  1.1693  0.1004
  157MOL   C26347375   0.915   7.136   6.493 -0.2790  0.3148  0.3543
  157MOL   N26447376   1.018   7.113   6.408 -0.6157 -0.7057  0.2585
  157MOL   H26547377   1.376   7.101   6.256 -0.3312  1.3358 -1.5626
  157MOL   H26647378   1.244   7.202   6.278  1.9441  0.1468 -0.5015
  157MOL   H26747379   1.293   6.935   6.416  0.5624  1.3839 -0.8368
  157MOL   H26847380   1.128   6.833   6.564 -1.4570 -1.4396  0.1271
  157MOL   H26947381   0.940   6.885   6.711  0.4579 -1.4012 -0.1418
  157MOL   H27047382   0.796   7.078   6.662 -0.5986 -0.5256  0.0420
  157MOL   H27147383   0.852   7.220   6.467 -0.6648 -0.1387 -0.1970
  157MOL   C27247384   1.189   6.913   6.238 -0.1774  0.1193 -0.3164
  157MOL   C27347385   1.310   6.828   6.189 -0.2926 -0.3812 -0.2722
  157MOL   C27447386   1.356   6.730   6.293  0.0662  0.0051  0.0646
  157MOL   C27547387   1.266   6.658   6.372 -0.3599  0.3184 -0.5675
  157MOL   C27647388   1.315   6.567   6.465 -0.2450 -0.2763  0.6626
  157MOL   C27747389   1.453   6.555   6.474 -0.0975  0.1074  0.1357
  157MOL   C27847390   1.535   6.631   6.391 -0.4700  0.0172 -0.2802
  157MOL   N27947391   1.492   6.719   6.305 -0.2011 -0.1696 -0.2980
  157MOL   H28047392   1.145   6.972   6.158  0.4754 -1.2788 -1.7271
  157MOL   H28147393   1.106   6.853   6.275  0.5493 -0.9287 -0.3836
  157MOL   H28247394   1.391   6.899   6.174 -1.2188  1.1915  1.9565
  157MOL   H28347395   1.158   6.659   6.364 -0.2625  1.3584 -2.0485
  157MOL   H28447396   1.247   6.510   6.526 -0.1373  0.0226  1.0598
  157MOL   H28547397   1.500   6.484   6.541  3.1210  1.4149 -0.6257
  157MOL   H28647398   1.643   6.620   6.385 -0.3367  0.8406  0.5467
  157MOL   C28747399   1.273   6.752   6.064 -0.0964  0.0779 -0.0876
  157MOL   C28847400   1.325   6.817   5.934 -0.2545  0.3008  0.2190
  157MOL   C28947401   1.292   6.748   5.805  0.0828 -0.0866  0.5512
  157MOL   C29047402   1.391   6.673   5.738  0.3755  0.2122  0.5625
  157MOL   C29147403   1.353   6.601   5.627  0.6337  0.5421  0.0842
  157MOL   C29247404   1.222   6.624   5.581 -1.0791 -0.4182  0.3815
  157MOL   C29347405   1.142   6.714   5.642  0.7108 -0.3127 -0.1009
  157MOL   N29447406   1.169   6.766   5.755  0.4663  0.2653  0.4049
  157MOL   H29547407   1.166   6.741   6.049  0.2990 -0.2919 -2.9078
  157MOL   H29647408   1.297   6.646   6.064  0.9620  0.2952  1.6211
  157MOL   H29747409   1.434   6.812   5.942  0.1331  0.9721 -3.7269
  157MOL   H29847410   1.492   6.665   5.774  0.5099 -0.0522  0.1307
  157MOL   H29947411   1.413   6.527   5.577 -1.5630 -1.2362 -0.0137
  157MOL   H30047412   1.191   6.577   5.489  0.2995  1.7365 -1.2134
  157MOL   H30147413   1.042   6.736   5.606  1.1753  1.6722 -0.2058
  157MOL   H30247414   1.300   6.923   5.932 -0.1098  0.3276 -0.1988
  158MOL     C147415   2.911   7.532   5.635 -0.0454  0.9158 -0.2177
  158MOL     C247416   2.818   7.553   5.763 -0.3937  0.6233  0.2176
  158MOL     C347417   2.813   7.426   5.853 -0.1375  0.2853  0.0996
  158MOL     C447418   2.918   7.384   5.927 -0.6143  0.5040  0.2661
  158MOL     C547419   2.904   7.272   6.014 -0.5061  0.1453  1.0278
  158MOL     C647420   2.781   7.205   6.021 -0.0499  0.0226 -0.0503
  158MOL     C747421   2.680   7.251   5.934  0.1505 -0.1719  1.0561
  158MOL     N847422   2.699   7.356   5.848  0.2187 -0.0558  0.2943
  158MOL     H947423   2.882   7.443   5.578  1.3500  0.7064 -0.6004
  158MOL    H1047424   2.903   7.615   5.565 -0.1940 -0.3559 -1.7178
  158MOL    H1147425   2.724   7.563   5.709 -0.3778  3.3940  0.6214
  158MOL    H1247426   3.013   7.435   5.923  0.2631 -1.0255  0.7406
  158MOL    H1347427   2.983   7.240   6.080 -2.4788 -0.1085  3.3509
  158MOL    H1447428   2.757   7.114   6.074 -0.7261  1.4984  2.2117
  158MOL    H1547429   2.590   7.192   5.925 -1.3684  2.2212  0.2250
  158MOL    H1647430   3.012   7.528   5.674 -0.0639  2.9711  0.0951
  158MOL    C1747431   2.856   7.679   5.840 -0.2582 -0.3984 -0.7571
  158MOL    C1847432   2.743   7.728   5.931 -0.0879 -0.5871 -0.8527
  158MOL    C1947433   2.740   7.651   6.061  0.0243  0.2849  0.2668
  158MOL    C2047434   2.626   7.592   6.111  0.8738 -0.2820  0.2563
  158MOL    C2147435   2.619   7.538   6.242 -0.2265 -0.1941 -0.6293
  158MOL    C2247436   2.738   7.541   6.320 -0.6540 -0.2420  0.6046
  158MOL    C2347437   2.856   7.593   6.260 -0.1143 -0.4331 -0.5498
  158MOL    N2447438   2.856   7.644   6.139  0.3466 -0.7369  0.2490
  158MOL    H2547439   2.878   7.760   5.771 -0.4142  1.3090  1.1352
  158MOL    H2647440   2.955   7.672   5.885  0.3143 -1.2109 -2.1183
  158MOL    H2747441   2.644   7.704   5.892 -0.8339 -0.5310  0.9397
  158MOL    H2847442   2.535   7.590   6.053  0.5478 -1.4530  0.8017
  158MOL    H2947443   2.531   7.491   6.284 -0.4624 -0.3763 -1.3134
  158MOL    H3047444   2.747   7.510   6.423  0.1919  0.0525  0.6254
  158MOL    H3147445   2.942   7.607   6.325 -1.0775 -0.6663  0.8033
  158MOL    C3247446   2.767   7.880   5.958 -0.1709 -0.3188 -0.1391
  158MOL    C3347447   2.638   7.958   6.011  0.3290 -0.2660 -0.3114
  158MOL    C3447448   2.676   8.092   6.069 -0.5352 -0.0555  0.1235
  158MOL    C3547449   2.745   0.033   5.996 -0.1453 -0.3913  0.0858
  158MOL    C3647450   2.752   0.166   6.045 -0.2663 -0.3025  0.0054
  158MOL    C3747451   2.711   0.197   6.173 -0.8286  0.2473 -0.2151
  158MOL    C3847452   2.654   0.089   6.244  0.1296  0.5542  0.1946
  158MOL    N3947453   2.636   8.115   6.197 -0.4826  0.1884 -1.1727
  158MOL    H4047454   2.800   7.927   5.865 -1.2823  0.7826  0.0127
  158MOL    H4147455   2.847   7.886   6.031 -2.6104  1.9598  2.4344
  158MOL    H4247456   2.604   7.889   6.088 -0.9934  0.4366 -0.2505
  158MOL    H4347457   2.785   0.013   5.898  0.5563  1.1062  0.0454
  158MOL    H4447458   2.804   0.246   5.993 -2.0040  1.7658  1.3877
  158MOL    H4547459   2.710   0.299   6.209  0.6867  0.1256  0.2108
  158MOL    H4647460   2.601   0.118   6.334 -1.6551 -0.2955 -0.5479
  158MOL    C4747461   2.535   7.974   5.900 -0.1964 -0.7615  0.0364
  158MOL    C4847462   2.392   7.999   5.935 -0.2910 -0.1083  0.4472
  158MOL    C4947463   2.366   8.118   6.025  0.1352 -0.5469 -0.1263
  158MOL    C5047464   2.294   8.098   6.146 -0.4333 -0.4352  0.0625
  158MOL    C5147465   2.253   0.058   6.223 -0.4080  0.4487 -0.1919
  158MOL    C5247466   2.303   0.187   6.183 -0.4684  1.1442  0.1806
  158MOL    C5347467   2.368   0.197   6.058  0.4472 -0.0615 -0.0661
  158MOL    N5447468   2.401   0.093   5.984 -0.1455  0.2647 -0.6939
  158MOL    H5547469   2.523   7.882   5.843 -0.0901 -1.4595  1.1293
  158MOL    H5647470   2.572   8.060   5.844  2.1101 -1.3601  0.6093
  158MOL    H5747471   2.367   7.910   5.992 -0.9089 -1.0236 -1.2063
  158MOL    H5847472   2.252   8.001   6.164  0.3988 -0.3669  2.5495
  158MOL    H5947473   2.197   0.045   6.315 -1.9820  1.3754 -1.0037
  158MOL    H6047474   2.273   0.281   6.225 -0.2415  1.2001  0.2197
  158MOL    H6147475   2.379   0.294   6.012 -0.3515 -0.4865 -1.1730
  158MOL    C6247476   2.295   7.999   5.812 -0.3583 -0.0932  0.3237
  158MOL    C6347477   2.145   8.017   5.834 -0.2828  0.1916 -0.2545
  158MOL    C6447478   2.068   8.062   5.713 -0.7217  0.4464  0.5166
  158MOL    C6547479   2.118   8.038   5.584  0.0064 -0.7986  0.2566
  158MOL    C6647480   2.030   8.074   5.476  0.4239  0.6992  0.4113
  158MOL    C6747481   1.902   8.122   5.502 -0.1803  0.5374 -0.4585
  158MOL    C6847482   1.869   8.147   5.635 -0.2063 -0.2526  0.0482
  158MOL    N6947483   1.950   8.125   5.740  0.0115  0.2110  0.5651
  158MOL    H7047484   2.309   7.909   5.752  1.1828 -0.1609  0.7636
  158MOL    H7147485   2.329   8.083   5.752  2.6986  0.7284  3.0336
  158MOL    H7247486   2.135   8.099   5.905  0.8699 -0.1617  0.3305
  158MOL    H7347487   2.219   8.007   5.559  0.3161  0.8132 -0.5636
  158MOL    H7447488   2.056   8.060   5.372 -2.3619  0.4678 -0.2736
  158MOL    H7547489   1.833   0.006   5.426  0.7954 -0.2039 -1.7191
  158MOL    H7647490   1.782   0.053   5.665 -0.6783 -0.7710 -0.3138
  158MOL    C7747491   2.070   7.903   5.903 -0.2574 -0.4180  0.5890
  158MOL    C7847492   2.055   7.770   5.838 -0.6109  0.1043 -0.3934
  158MOL    C7947493   2.168   7.674   5.874 -0.2717  0.7532  0.1377
  158MOL    C8047494   2.171   7.610   5.998 -0.4924  0.0796 -0.5700
  158MOL    C8147495   2.249   7.496   6.017 -0.5878  0.3837  0.0116
  158MOL    C8247496   2.341   7.462   5.911  1.1062 -0.2208  0.1225
  158MOL    C8347497   2.347   7.545   5.798 -1.3146  0.2200 -0.8526
  158MOL    N8447498   2.255   7.636   5.775 -0.1407  1.1715  0.2391
  158MOL    H8547499   1.973   7.949   5.922  0.5723  0.7704  2.0771
  158MOL    H8647500   2.099   7.884   6.006 -0.8041 -1.9586  0.4707
  158MOL    H8747501   2.073   7.789   5.733 -1.1932 -0.9423 -0.6967
  158MOL    H8847502   2.101   7.637   6.075 -0.5600  0.6669 -0.8311
  158MOL    H8947503   2.244   7.440   6.109  0.4189 -0.2478 -0.3067
  158MOL    H9047504   2.403   7.373   5.911  2.0905  0.4552 -0.7230
  158MOL    H9147505   2.411   7.529   5.713  2.3501  1.9798  1.4442
  158MOL    C9247506   1.920   7.701   5.844 -0.0812  0.2915 -0.4219
  158MOL    C9347507   1.806   7.771   5.774 -0.7164  0.8800 -0.4005
  158MOL    C9447508   1.720   7.666   5.700 -0.0153  0.0513 -0.9850
  158MOL    C9547509   1.691   7.681   5.564 -0.8935  0.0828  0.5656
  158MOL    C9647510   1.620   7.576   5.503 -0.5518  0.0559  0.3716
  158MOL    C9747511   1.568   7.471   5.576  0.3370 -0.2216 -0.1285
  158MOL    C9847512   1.599   7.473   5.712  0.1942  0.1140 -0.0757
  158MOL    N9947513   1.677   7.563   5.775  0.4425  0.0220  0.7613
  158MOL   H10047514   1.889   7.667   5.943  0.2933  1.4067  0.0889
  158MOL   H10147515   1.932   7.606   5.794 -0.6032 -0.2359  0.4414
  158MOL   H10247516   1.849   7.819   5.686 -1.0403 -1.8706 -2.0995
  158MOL   H10347517   1.720   7.761   5.498  0.3576 -0.8276 -0.0091
  158MOL   H10447518   1.590   7.587   5.400  1.6811 -0.4453 -0.3607
  158MOL   H10547519   1.513   7.388   5.534  0.0610  0.9293 -2.0635
  158MOL   H10647520   1.572   7.397   5.783  1.2564  1.0007  1.3089
  158MOL   C10747521   1.717   7.874   5.857  0.2182 -0.5518  0.0037
  158MOL   C10847522   1.656   7.823   5.991  0.2512 -0.3902 -1.0441
  158MOL   C10947523   1.757   7.835   6.102  0.4155  0.2606  0.5003
  158MOL   C11047524   1.813   7.957   6.140 -0.5671  0.0776  0.0655
  158MOL   C11147525   1.885   7.970   6.258  0.0546 -0.1100 -0.2119
  158MOL   C11247526   1.920   7.856   6.324 -0.1059  0.2235  0.6182
  158MOL   C11347527   1.874   7.734   6.279 -0.1586  0.0367 -0.3360
  158MOL   N11447528   1.792   7.718   6.173 -0.6243  0.0033  0.0494
  158MOL   H11547529   1.632   7.897   5.793 -1.5411 -2.9300  1.4000
  158MOL   H11647530   1.768   7.969   5.867  2.0216 -1.0312 -3.6981
  158MOL   H11747531   1.635   7.716   5.992 -0.7185 -0.2027 -0.1170
  158MOL   H11847532   1.797   8.038   6.071  0.4820 -0.1343 -0.4416
  158MOL   H11947533   1.919   8.063   6.300  0.9115  0.6672 -2.5780
  158MOL   H12047534   1.973   7.854   6.419 -0.0337 -0.1734  0.5734
  158MOL   H12147535   1.907   7.640   6.320 -0.3849 -0.8590 -2.1767
  158MOL   C12247536   1.523   7.885   6.036  0.6208 -0.3402 -0.0417
  158MOL   C12347537   1.402   7.844   5.952  0.0009  0.5814  0.0238
  158MOL   C12447538   1.356   7.699   5.974  0.1071 -0.5770 -0.5037
  158MOL   C12547539   1.355   7.603   5.871 -0.5580 -0.3090 -0.3884
  158MOL   C12647540   1.313   7.472   5.899 -0.3179 -0.4429 -0.6751
  158MOL   C12747541   1.280   7.433   6.030  0.5449  0.2063  0.1882
  158MOL   C12847542   1.266   7.538   6.125  0.1351  0.6626 -0.4458
  158MOL   N12947543   1.302   7.660   6.098 -0.3418 -0.2760  0.0851
  158MOL   H13047544   1.535   7.993   6.041 -2.3803 -0.0352  1.2087
  158MOL   H13147545   1.497   7.848   6.135 -1.5368 -1.5702 -1.0303
  158MOL   H13247546   1.432   7.865   5.850 -0.5524 -2.1514 -0.7395
  158MOL   H13347547   1.383   7.628   5.770 -0.0927  0.0841 -0.1647
  158MOL   H13447548   1.325   7.395   5.824  0.5636  0.6766 -1.7018
  158MOL   H13547549   1.256   7.329   6.048  0.8696  0.5162  2.5961
  158MOL   H13647550   1.238   7.523   6.229 -0.1965  4.0688  0.0374
  158MOL   C13747551   1.276   7.937   5.969 -0.4560 -0.1716  0.7685
  158MOL   C13847552   1.290   8.085   5.942  0.5388 -0.4605 -0.3003
  158MOL   C13947553   1.359   8.107   5.806  0.2115  0.0551  0.0934
  158MOL   C14047554   1.329   8.032   5.692 -0.8217  1.2205 -0.4890
  158MOL   C14147555   1.405   8.051   5.582 -0.6050 -0.2182 -0.3092
  158MOL   C14247556   1.509   8.147   5.585  0.1287  0.2927 -0.2652
  158MOL   C14347557   1.525   0.075   5.693  0.8225  0.4255 -0.9776
  158MOL   N14447558   1.453   0.050   5.803  0.2435 -0.2268 -0.3358
  158MOL   H14547559   1.236   7.940   6.070 -1.3239  1.8889  0.3803
  158MOL   H14647560   1.205   7.894   5.898  0.0422 -1.3971  1.0062
  158MOL   H14747561   1.352   8.127   6.022  1.0196 -1.0695 -0.3464
  158MOL   H14847562   1.248   7.962   5.697 -0.0085  0.3088  0.1902
  158MOL   H14947563   1.389   7.998   5.489  1.0151  0.1096 -0.7968
  158MOL   H15047564   1.564   0.025   5.497 -1.1550 -1.5860 -1.7239
  158MOL   H15147565   1.586   0.163   5.701  1.2162  0.0114  0.7367
  158MOL   C15247566   1.156   0.018   5.944 -0.5432  0.2054 -0.0152
  158MOL   C15347567   1.156   0.174   5.927 -0.1177 -0.0822 -0.1889
  158MOL   C15447568   1.004   0.223   5.923  0.5273 -0.5976  0.8055
  158MOL   C15547569   0.957   0.302   5.818 -0.3585 -0.8310  0.7137
  158MOL   C15647570   0.819   0.336   5.810  0.0438 -0.0545 -0.1149
  158MOL   C15747571   0.737   0.294   5.921  0.0160  1.2401  0.9263
  158MOL   C15847572   0.795   0.222   6.024  0.0661 -0.1570  0.9443
  158MOL   N15947573   0.925   0.180   6.020 -0.1161 -0.2522  0.3713
  158MOL   H16047574   1.111   8.142   6.040  3.4000  0.2492  1.9595
  158MOL   H16147575   1.097   8.133   5.860 -0.0966 -0.6410  0.0335
  158MOL   H16247576   1.207   0.197   5.833  1.3704 -0.4080  0.5161
  158MOL   H16347577   1.022   0.339   5.740 -1.5305 -1.0597 -0.3832
  158MOL   H16447578   0.781   0.406   5.738 -0.0019 -0.6553 -0.6799
  158MOL   H16547579   0.633   0.317   5.938 -1.4227 -3.0223 -1.3667
  158MOL   H16647580   0.727   0.187   6.099 -1.3817 -2.4836 -1.3684
  158MOL   C16747581   1.236   0.249   6.041 -0.6764 -0.2363 -0.6954
  158MOL   C16847582   1.262   0.402   6.035  0.6914  1.0095  0.1930
  158MOL   C16947583   1.356   0.450   6.145 -0.2418  0.2097 -0.3676
  158MOL   C17047584   1.483   0.393   6.170 -0.0772  0.0236  0.5488
  158MOL   C17147585   1.569   0.453   6.254  0.1653 -0.3264 -0.6557
  158MOL   C17247586   1.520   0.560   6.331  0.4924 -0.0726 -0.1901
  158MOL   C17347587   1.394   0.617   6.308  0.2095 -0.1533  0.1049
  158MOL   N17447588   1.318   0.558   6.215 -0.0485 -0.4569  0.1041
  158MOL   H17547589   1.336   0.206   6.052 -0.4815  0.1373 -0.9921
  158MOL   H17647590   1.176   0.227   6.129 -1.3622  0.9853 -0.8519
  158MOL   H17747591   1.165   0.452   6.046  1.6712  2.9052  0.4461
  158MOL   H17847592   1.513   0.314   6.103 -0.2229  1.7819 -1.6245
  158MOL   H17947593   1.673   0.422   6.258  0.8869  2.1370  0.5137
  158MOL   H18047594   1.595   0.607   6.393  0.1434  0.0864  0.1144
  158MOL   H18147595   1.364   0.711   6.351 -1.3840 -0.0800 -1.1354
  158MOL   C18247596   1.310   0.451   5.895 -0.5077  0.5514  1.2482
  158MOL   C18347597   1.306   0.604   5.880 -0.0175  0.2720  0.1436
  158MOL   C18447598   1.393   0.641   5.757 -0.0893  0.6400  0.1315
  158MOL   C18547599   1.528   0.686   5.780  0.2000 -0.0478  0.4322
  158MOL   C18647600   1.616   0.696   5.675  0.0380  0.2343 -0.0565
  158MOL   C18747601   1.569   0.655   5.546  0.1750 -0.0472 -0.6362
  158MOL   C18847602   1.433   0.608   5.534  0.4060  0.2975 -0.0837
  158MOL   N18947603   1.340   0.605   5.637 -0.3730 -0.0975  0.0922
  158MOL   H19047604   1.247   0.412   5.816 -0.0719  0.6867  0.8307
  158MOL   H19147605   1.412   0.425   5.865 -0.9799 -0.5464  0.5686
  158MOL   H19247606   1.352   0.645   5.970 -0.9578 -1.4206  1.4166
  158MOL   H19347607   1.561   0.719   5.877  0.5768  0.2614  0.2014
  158MOL   H19447608   1.714   0.737   5.696  0.9131 -2.6517  1.7036
  158MOL   H19547609   1.622   0.657   5.452  0.2350  0.0685 -0.5994
  158MOL   H19647610   1.398   0.556   5.446  1.1416 -0.6229  0.1665
  158MOL   C19747611   1.169   0.667   5.863  0.1829 -0.4336  0.1385
  158MOL   C19847612   1.087   0.716   5.989 -0.5489  0.7303  1.4376
  158MOL   C19947613   1.100   0.866   6.006  0.1074 -0.1217 -0.2123
  158MOL   C20047614   1.189   0.919   6.102 -0.1604 -0.3447  1.0867
  158MOL   C20147615   1.209   1.060   6.109  0.3092 -0.2991 -1.1040
  158MOL   C20247616   1.129   1.144   6.027  0.0583  0.0158  0.8985
  158MOL   C20347617   1.038   1.082   5.941 -0.0009  0.5225  0.3047
  158MOL   N20447618   1.031   0.948   5.925  0.3892  0.4092 -0.1277
  158MOL   H20547619   1.108   0.600   5.804  1.4151 -0.8591 -0.6769
  158MOL   H20647620   1.172   0.757   5.802  1.7616 -0.9982 -0.6501
  158MOL   H20747621   1.134   0.677   6.079  0.6511 -1.4874 -0.0919
  158MOL   H20847622   1.245   0.845   6.157  0.7585 -0.1045  0.4873
  158MOL   H20947623   1.279   1.109   6.175  0.0886 -1.5980  0.1058
  158MOL   H21047624   1.137   1.251   6.037  1.1861  0.0859 -0.5460
  158MOL   H21147625   0.980   1.136   5.867  0.5927  0.1178 -0.4685
  158MOL   C21247626   0.943   0.646   6.000 -0.0195  0.2355  0.0392
  158MOL   C21347627   0.871   0.664   6.133  0.4369 -0.8770 -0.1116
  158MOL   C21447628   0.789   0.788   6.135 -0.4216 -0.0893 -0.8229
  158MOL   C21547629   0.826   0.899   6.217  0.9320  0.0864 -0.1779
  158MOL   C21647630   0.731   0.999   6.239  0.7511 -0.0285 -0.0655
  158MOL   C21747631   0.600   0.983   6.176 -0.2719 -0.3258 -0.0653
  158MOL   C21847632   0.580   0.879   6.088  0.0720 -0.1900 -0.4734
  158MOL   N21947633   0.671   0.779   6.076  0.7527 -0.5633  0.2073
  158MOL   H22047634   0.967   0.541   5.988  1.3644  0.7299 -1.7211
  158MOL   H22147635   0.868   0.669   5.924 -0.4529  2.6179  1.1479
  158MOL   H22247636   0.949   0.667   6.209  0.8128 -0.4465 -0.5096
  158MOL   H22347637   0.918   0.899   6.273  0.6424 -3.0394  0.4136
  158MOL   H22447638   0.752   1.075   6.313 -1.3593 -2.2986  3.0268
  158MOL   H22547639   0.519   1.054   6.184 -0.8733 -1.1767  1.6360
  158MOL   H22647640   0.492   0.869   6.025 -0.9248  1.1788  0.6846
  158MOL   C22747641   0.796   0.542   6.178  0.3639 -0.7027 -0.5568
  158MOL   C22847642   0.718   0.551   6.309 -0.1922  0.1787 -0.2690
  158MOL   C22947643   0.622   0.432   6.318  0.1384  0.0065 -0.4648
  158MOL   C23047644   0.481   0.459   6.312 -0.9442  0.0317 -0.5368
  158MOL   C23147645   0.399   0.348   6.313  0.3504 -0.0670 -0.2212
  158MOL   C23247646   0.449   0.215   6.334  0.2062 -0.4005  0.6288
  158MOL   C23347647   0.583   0.209   6.367 -0.0562 -0.1480  0.1170
  158MOL   N23447648   0.670   0.309   6.354 -0.3899 -0.1973 -0.1614
  158MOL   H23547649   0.859   0.453   6.185 -1.1907 -1.7260  0.7229
  158MOL   H23647650   0.723   0.508   6.105 -1.5543 -1.4376  1.6448
  158MOL   H23747651   0.651   0.637   6.305 -2.0167 -1.0729  1.9156
  158MOL   H23847652   0.446   0.557   6.285 -0.0543  0.5252  0.0714
  158MOL   H23947653   0.292   0.363   6.309  0.5108  1.1535  0.0048
  158MOL   H24047654   0.384   0.129   6.341  0.3547 -0.6146 -0.5187
  158MOL   H24147655   0.633   0.120   6.403 -0.6783 -0.8598 -0.7643
  158MOL   C24247656   0.795   0.562   6.436 -0.3112  0.4315  0.1672
  158MOL   C24347657   0.704   0.621   6.551 -0.0848 -0.4585 -0.3965
  158MOL   C24447658   0.762   0.575   6.686 -0.8495 -0.2740  0.0166
  158MOL   C24547659   0.694   0.483   6.769 -0.2601 -0.3333  0.1777
  158MOL   C24647660   0.756   0.445   6.892 -0.9306  0.2378 -0.1402
  158MOL   C24747661   0.886   0.491   6.913  0.2792 -0.1330 -0.6921
  158MOL   C24847662   0.947   0.578   6.827 -0.6480 -0.1679  0.6486
  158MOL   N24947663   0.886   0.622   6.713 -0.0795  0.1691 -0.4573
  158MOL   H25047664   0.884   0.624   6.430  0.0570 -0.2597 -1.8160
  158MOL   H25147665   0.840   0.465   6.460  1.3211  1.1638  0.1382
  158MOL   H25247666   0.610   0.569   6.537  0.2886 -1.4271  0.5989
  158MOL   H25347667   0.600   0.442   6.734 -0.0314 -1.9939  1.4363
  158MOL   H25447668   0.711   0.373   6.959 -0.5876  0.5021  0.3759
  158MOL   H25547669   0.937   0.455   7.001  1.2929 -0.7040 -1.5052
  158MOL   H25647670   1.044   0.623   6.838  0.6545 -2.0032 -2.5406
  158MOL   C25747671   0.680   0.771   6.528  0.1456 -0.5124 -0.8710
  158MOL   C25847672   0.624   0.853   6.652 -0.7722 -0.9821  0.1884
  158MOL   C25947673   0.595   1.001   6.616  1.0159  0.1697 -0.8883
  158MOL   C26047674   0.652   1.108   6.688  0.5217 -0.4569 -0.0690
  158MOL   C26147675   0.622   1.240   6.647 -0.0613 -0.1889 -0.4331
  158MOL   C26247676   0.538   1.255   6.539 -0.7339 -0.1746  0.3678
  158MOL   C26347677   0.495   1.141   6.469 -0.1296  0.5878 -0.0529
  158MOL   N26447678   0.519   1.015   6.509 -0.1227 -0.2831 -0.5783
  158MOL   H26547679   0.620   0.784   6.438 -1.1995 -2.1031 -0.2391
  158MOL   H26647680   0.779   0.807   6.498 -1.0338  1.6910 -2.2308
  158MOL   H26747681   0.709   0.852   6.720  0.2866  2.8417 -0.9603
  158MOL   H26847682   0.712   1.081   6.774 -0.2952 -0.7404  0.4141
  158MOL   H26947683   0.662   1.322   6.704 -0.2931 -0.8848  0.7598
  158MOL   H27047684   0.506   1.353   6.507 -2.4936 -0.2469  1.7773
  158MOL   H27147685   0.422   1.144   6.388 -0.3011 -1.9010 -0.0345
  158MOL   C27247686   0.500   0.801   6.717  0.3132  0.3451  0.2001
  158MOL   C27347687   0.477   0.834   6.871  0.1052  0.2282  0.3370
  158MOL   C27447688   0.332   0.882   6.886  0.0122 -0.4952 -0.1932
  158MOL   C27547689   0.305   1.020   6.905  0.3987 -0.2630 -0.2033
  158MOL   C27647690   0.179   1.068   6.889 -0.0139  0.2779 -0.4885
  158MOL   C27747691   0.076   0.976   6.872  0.4065 -0.0497 -0.0528
  158MOL   C27847692   0.110   0.842   6.850  0.4345  0.1134 -0.8271
  158MOL   N27947693   0.229   0.787   6.866  0.1328 -0.1029 -0.9448
  158MOL   H28047694   0.513   0.693   6.711  2.0655  0.6797 -3.1921
  158MOL   H28147695   0.415   0.837   6.658 -0.2106 -1.3423 -0.0808
  158MOL   H28247696   0.526   0.930   6.890  0.4557  0.4016 -1.3440
  158MOL   H28347697   0.384   1.094   6.917 -0.8736  1.3450 -1.4896
  158MOL   H28447698   0.171   1.176   6.884  0.1551  0.3990  1.7301
  158MOL   H28547699   8.126   1.008   6.859 -0.1789 -1.6249  0.5549
  158MOL   H28647700   0.033   0.770   6.831 -0.6175  1.1950 -0.7188
  158MOL   C28747701   0.523   0.725   6.970  0.1962 -0.4116  0.0308
  158MOL   C28847702   0.513   0.752   7.116 -0.0727 -0.8553 -0.2681
  158MOL   C28947703   0.546   0.632   7.197  0.8656 -0.0218  0.3459
  158MOL   C29047704   0.448   0.557   7.260 -0.5759  0.2064 -0.1784
  158MOL   C29147705   0.482   0.443   7.338 -0.2321  0.2716  0.4973
  158MOL   C29247706   0.614   0.406   7.350 -0.2141  0.7036 -0.1739
  158MOL   C29347707   0.710   0.491   7.290  0.1513 -0.4865  0.8027
  158MOL   N29447708   0.679   0.597   7.213  0.2598 -0.0757  0.1537
  158MOL   H29547709   0.630   0.712   6.950  0.2456 -2.1100  1.2778
  158MOL   H29647710   0.476   0.629   6.950  0.5270 -0.2728 -1.5576
  158MOL   H29747711   0.414   0.788   7.142  1.3296  0.6250  3.3937
  158MOL   H29847712   0.344   0.584   7.253 -0.6386  0.1393  0.4296
  158MOL   H29947713   0.398   0.387   7.376  0.0149  1.0278  2.1766
  158MOL   H30047714   0.642   0.321   7.411 -3.0825  0.0708  0.3292
  158MOL   H30147715   0.816   0.469   7.295  0.9717  3.2807  1.4285
  158MOL   H30247716   0.576   0.837   7.144  0.3701 -1.5151  0.7635
  159MOL     C147717   2.415   0.233   5.233  0.7623  0.3367  0.0623
  159MOL     C247718   2.453   0.099   5.299  0.5396  0.3626 -0.5956
  159MOL     C347719   2.492   0.112   5.444 -0.2993  0.1630  0.2064
  159MOL     C447720   2.609   0.058   5.491 -0.0254  0.4346 -0.8997
  159MOL     C547721   2.643   0.077   5.625  0.4650  0.4191 -0.2105
  159MOL     C647722   2.547   0.146   5.705 -1.0952 -0.3610  0.8471
  159MOL     C747723   2.430   0.199   5.645  0.6040 -0.8001 -0.7580
  159MOL     N847724   2.401   0.178   5.518  0.2657 -0.0272  0.0794
  159MOL     H947725   2.401   0.225   5.125 -0.3630 -1.5313  0.3278
  159MOL    H1047726   2.337   0.290   5.283  1.1068  2.1229 -1.3728
  159MOL    H1147727   2.548   0.078   5.250  0.3046 -1.6805 -0.2032
  159MOL    H1247728   2.678   0.004   5.427 -2.1371 -2.6236 -0.6910
  159MOL    H1347729   2.736   0.036   5.662 -0.1326 -0.8493 -0.1033
  159MOL    H1447730   2.561   0.158   5.811 -3.5802  0.2091  1.1408
  159MOL    H1547731   2.359   0.249   5.708 -0.8631 -2.0923 -1.3438
  159MOL    H1647732   2.507   0.289   5.252 -0.0744  1.7251  0.0993
  159MOL    C1747733   2.353   8.137   5.265 -0.6724  0.3500  0.0161
  159MOL    C1847734   2.401   7.987   5.311  0.5961 -0.1137  0.1619
  159MOL    C1947735   2.291   7.884   5.319  0.3050 -0.0103 -0.6572
  159MOL    C2047736   2.274   7.799   5.429  0.0908 -0.0916 -0.3130
  159MOL    C2147737   2.176   7.699   5.419  0.1415  0.6598 -0.2021
  159MOL    C2247738   2.107   7.688   5.298 -0.0847  0.1633 -0.4579
  159MOL    C2347739   2.143   7.769   5.193  0.5125 -0.5998  0.3708
  159MOL    N2447740   2.224   7.872   5.203  0.0483  0.2058 -0.2571
  159MOL    H2547741   2.310   8.144   5.165 -1.0214 -0.6188  0.0939
  159MOL    H2647742   2.259   8.149   5.319 -1.6674  1.6385 -1.9143
  159MOL    H2747743   2.453   7.989   5.407 -0.5023 -2.1296  0.8160
  159MOL    H2847744   2.338   7.801   5.516  0.5577 -1.7074 -0.5924
  159MOL    H2947745   2.165   7.634   5.504  0.7342 -1.3404 -1.6172
  159MOL    H3047746   2.026   7.616   5.294  1.0808 -1.1050 -1.9899
  159MOL    H3147747   2.076   7.771   5.108  0.8882  0.9719  0.0784
  159MOL    C3247748   2.505   7.939   5.201  0.5818 -0.1551  1.1591
  159MOL    C3347749   2.606   7.830   5.222 -0.1855  0.4075 -0.9499
  159MOL    C3447750   2.714   7.867   5.332 -0.1089  0.3342  0.0370
  159MOL    C3547751   2.843   7.913   5.291  0.5802  0.3895  0.7631
  159MOL    C3647752   2.932   7.947   5.392 -0.1788 -0.0511 -0.5889
  159MOL    C3747753   2.893   7.925   5.528 -0.2101 -0.1256  0.5115
  159MOL    C3847754   2.758   7.881   5.555 -0.5217 -0.0193 -0.2464
  159MOL    N3947755   2.674   7.848   5.461 -0.0038 -0.5216 -0.1416
  159MOL    H4047756   2.567   8.026   5.181 -0.7885  0.4537 -0.5349
  159MOL    H4147757   2.452   7.927   5.107 -1.1851 -2.4479  2.3857
  159MOL    H4247758   2.659   7.816   5.128  2.0771 -1.4760  0.5767
  159MOL    H4347759   2.864   7.933   5.187 -2.0132  1.4804  0.4037
  159MOL    H4447760   3.029   7.986   5.366 -0.2932 -0.1487 -1.1686
  159MOL    H4547761   2.959   7.954   5.609 -0.3942 -2.0952  1.3859
  159MOL    H4647762   2.725   7.860   5.656  0.7302 -1.6918 -0.1531
  159MOL    C4747763   2.547   7.692   5.242 -0.8701 -0.4532 -0.8850
  159MOL    C4847764   2.637   7.576   5.251 -0.2521  0.1788  0.3556
  159MOL    C4947765   2.557   7.457   5.307 -0.4743  0.8659 -0.3869
  159MOL    C5047766   2.605   7.390   5.424 -0.4781 -0.2033 -0.3245
  159MOL    C5147767   2.532   7.288   5.478 -0.1018 -0.2688  0.2289
  159MOL    C5247768   2.405   7.259   5.421  0.1392 -0.2430 -0.2312
  159MOL    C5347769   2.366   7.335   5.308 -0.3694  0.2093 -0.7138
  159MOL    N5447770   2.446   7.421   5.238 -0.1573  0.1432  0.3821
  159MOL    H5547771   2.472   7.681   5.164 -0.6756 -1.8649 -0.8782
  159MOL    H5647772   2.493   7.712   5.335  2.1755 -0.9988  1.0596
  159MOL    H5747773   2.709   7.599   5.330 -0.2482 -0.3402  0.4995
  159MOL    H5847774   2.695   7.426   5.472  0.9078 -1.5720 -1.8602
  159MOL    H5947775   2.576   7.239   5.564  3.1086  1.7230 -0.1722
  159MOL    H6047776   2.340   7.179   5.454  0.6283  0.2450  2.0317
  159MOL    H6147777   2.273   7.323   5.255 -1.0339  1.2711  0.1877
  159MOL    C6247778   2.698   7.543   5.114 -0.2960 -0.3598  0.0632
  159MOL    C6347779   2.729   7.394   5.073 -0.7904  0.0218 -0.7481
  159MOL    C6447780   2.746   7.388   4.927  0.4889 -0.3816  0.1440
  159MOL    C6547781   2.655   7.316   4.848 -0.1947 -0.3123 -0.2128
  159MOL    C6647782   2.657   7.329   4.710  0.6427  1.3427 -0.5876
  159MOL    C6747783   2.751   7.405   4.647  0.7886 -0.1171 -0.1988
  159MOL    C6847784   2.844   7.469   4.732 -0.3967 -0.2887 -0.4607
  159MOL    N6947785   2.837   7.465   4.867 -0.2420 -0.1265 -0.0433
  159MOL    H7047786   2.782   7.609   5.095 -0.1721  0.0762  2.0320
  159MOL    H7147787   2.614   7.577   5.053 -1.3403 -0.6062  1.3381
  159MOL    H7247788   2.638   7.337   5.091 -0.7745  1.1050  3.1477
  159MOL    H7347789   2.580   7.256   4.897 -1.3029  1.9681  0.9945
  159MOL    H7447790   2.586   7.273   4.650 -0.8752  0.8762  1.6050
  159MOL    H7547791   2.747   7.418   4.539 -0.8278  0.1363 -0.1233
  159MOL    H7647792   2.926   7.528   4.694  0.1312 -1.5643 -1.3437
  159MOL    C7747793   2.845   7.338   5.159 -0.3846  0.4272 -0.1407
  159MOL    C7847794   2.857   7.192   5.176  0.0599 -0.3598 -0.1744
  159MOL    C7947795   2.977   7.146   5.258 -0.1548 -0.5620 -0.6313
  159MOL    C8047796   3.092   7.085   5.200 -0.1530 -0.7463 -0.7351
  159MOL    C8147797   3.198   7.049   5.291 -0.1297 -0.6912  0.0035
  159MOL    C8247798   3.187   7.077   5.426 -0.1327 -0.7583  0.2748
  159MOL    C8347799   3.077   7.151   5.469 -0.0038 -0.7476 -0.1362
  159MOL    N8447800   2.974   7.191   5.389  0.6285  0.4853  0.3617
  159MOL    H8547801   2.831   7.377   5.260  0.3660 -0.7592  0.4205
  159MOL    H8647802   2.944   7.371   5.127 -0.0320 -0.8283 -0.3687
  159MOL    H8747803   2.884   7.157   5.076  0.8244 -0.1267 -0.0501
  159MOL    H8847804   3.100   7.069   5.093 -3.0398 -1.3720 -0.9125
  159MOL    H8947805   3.289   7.002   5.256  1.1062  1.4761  0.2262
  159MOL    H9047806   3.264   7.057   5.499 -0.6888 -1.2326  0.7353
  159MOL    H9147807   3.075   7.182   5.573 -0.9598 -0.3222 -0.2733
  159MOL    C9247808   2.732   7.122   5.220  0.0688 -0.8161 -0.1103
  159MOL    C9347809   2.727   6.977   5.277  0.1073 -0.4875 -0.1926
  159MOL    C9447810   2.581   6.932   5.311 -0.0108 -1.1150 -0.2090
  159MOL    C9547811   2.483   6.951   5.209  0.0208  0.4041  0.5903
  159MOL    C9647812   2.351   6.918   5.238 -0.5128 -0.5412 -0.7404
  159MOL    C9747813   2.322   6.872   5.372  0.3127 -0.3165  0.7795
  159MOL    C9847814   2.428   6.855   5.464 -0.3155  0.1669 -0.2016
  159MOL    N9947815   2.561   6.880   5.428  0.4076  0.2223 -0.7703
  159MOL   H10047816   2.661   7.118   5.136  0.2184  3.1082 -0.5111
  159MOL   H10147817   2.687   7.183   5.298  0.5160 -0.0929 -0.4151
  159MOL   H10247818   2.786   6.984   5.369  1.2139 -1.1459 -0.8429
  159MOL   H10347819   2.513   6.982   5.110  0.9547 -2.4057 -0.0638
  159MOL   H10447820   2.268   6.935   5.170 -1.7919  1.6307  1.2589
  159MOL   H10547821   2.227   6.849   5.418 -0.4150 -0.2933 -0.6833
  159MOL   H10647822   2.426   6.838   5.571  0.2602 -2.2262 -0.5569
  159MOL   C10747823   2.800   6.886   5.190 -0.2106 -0.1458  0.1864
  159MOL   C10847824   2.845   6.751   5.254  0.7052  0.4595 -0.5286
  159MOL   C10947825   2.875   6.644   5.150 -0.0769 -0.3153  0.0218
  159MOL   C11047826   2.928   6.670   5.020 -0.4683  0.2391 -0.0428
  159MOL   C11147827   2.943   6.561   4.931 -0.1085 -0.3100  0.2319
  159MOL   C11247828   2.894   6.438   4.967  0.2715  0.0489  0.0660
  159MOL   C11347829   2.833   6.422   5.091  1.0742 -0.3400 -0.1744
  159MOL   N11447830   2.825   6.521   5.183 -0.1934 -0.7579  0.4039
  159MOL   H11547831   2.890   6.934   5.152 -1.1640  3.0587  1.8140
  159MOL   H11647832   2.722   6.868   5.115  1.3401 -0.2790 -1.4195
  159MOL   H11747833   2.760   6.718   5.313  1.0824 -1.7961 -1.1768
  159MOL   H11847834   2.975   6.765   4.997 -2.4102  1.0234 -0.8757
  159MOL   H11947835   2.998   6.572   4.839  0.0457  1.3241  0.5025
  159MOL   H12047836   2.915   6.354   4.903  0.5356 -0.7850  1.2306
  159MOL   H12147837   2.800   6.323   5.120 -1.0061  0.0811 -1.0768
  159MOL   C12247838   2.967   6.769   5.342  0.0611  0.0131 -0.1739
  159MOL   C12347839   3.002   6.654   5.434  0.2909 -0.2047 -0.2744
  159MOL   C12447840   3.138   6.602   5.414 -0.2610  0.6128  0.4092
  159MOL   C12547841   3.159   6.487   5.339 -0.6913 -0.2148 -0.9243
  159MOL   C12647842   3.292   6.443   5.326 -0.1697  0.1093  0.0918
  159MOL   C12747843   3.397   6.517   5.379  0.3965  0.3909  0.5563
  159MOL   C12847844   3.361   6.624   5.462 -0.1128 -0.5118 -0.3229
  159MOL   N12947845   3.235   6.679   5.468 -0.1291 -0.0634  0.4676
  159MOL   H13047846   2.949   6.858   5.403  1.6455 -1.0846  1.9712
  159MOL   H13147847   3.057   6.800   5.289  0.5061  2.2827  1.8137
  159MOL   H13247848   2.938   6.571   5.406  0.1527 -0.0894 -0.3020
  159MOL   H13347849   3.076   6.432   5.298 -2.0017 -1.5686  3.2946
  159MOL   H13447850   3.315   6.360   5.260 -1.9731 -1.0518  0.8963
  159MOL   H13547851   3.499   6.482   5.367  0.9184  1.7355  1.0102
  159MOL   H13647852   3.440   6.670   5.519 -1.2742 -1.8565  2.4855
  159MOL   C13747853   2.974   6.663   5.589 -0.4106  0.6980 -0.5048
  159MOL   C13847854   2.947   6.526   5.659 -0.6777  0.5548 -0.2126
  159MOL   C13947855   3.071   6.459   5.712  0.8216  0.5530  0.1123
  159MOL   C14047856   3.117   6.342   5.648  0.1844 -1.3166 -0.3137
  159MOL   C14147857   3.227   6.277   5.710  0.2714 -0.0180 -0.6452
  159MOL   C14247858   3.297   6.344   5.812 -0.1649  0.1016 -0.6245
  159MOL   C14347859   3.242   6.460   5.868  0.2817  0.8783  0.1081
  159MOL   N14447860   3.128   6.520   5.818  0.3222  0.7402  0.1911
  159MOL   H14547861   2.881   6.719   5.588 -0.3222  0.8732  0.2499
  159MOL   H14647862   3.050   6.721   5.643  0.3396 -0.2993 -0.4671
  159MOL   H14747863   2.899   6.460   5.587 -0.8597  0.3529  0.0930
  159MOL   H14847864   3.073   6.295   5.562  1.7276 -1.2118 -1.1849
  159MOL   H14947865   3.253   6.181   5.670 -2.3424 -1.0659  0.0421
  159MOL   H15047866   3.386   6.303   5.858  0.5407  2.3272  0.0713
  159MOL   H15147867   3.291   6.514   5.948  0.7344  1.3768 -0.4954
  159MOL   C15247868   2.842   6.542   5.776  0.4247  0.1354 -0.2518
  159MOL   C15347869   2.694   6.555   5.736 -0.2109 -0.0999  0.1818
  159MOL   C15447870   2.652   6.464   5.623  0.0465  0.0603  0.1720
  159MOL   C15547871   2.602   6.509   5.505  0.6085 -0.4456 -0.4467
  159MOL   C15647872   2.550   6.428   5.408  0.5123 -0.4411  0.3238
  159MOL   C15747873   2.549   6.293   5.439  0.1731 -0.0277  0.1403
  159MOL   C15847874   2.596   6.247   5.564  0.0297 -0.3819 -0.5213
  159MOL   N15947875   2.649   6.335   5.651 -0.3757 -0.4869  0.5116
  159MOL   H16047876   2.876   6.606   5.857 -2.8464 -0.4047  1.6177
  159MOL   H16147877   2.843   6.444   5.825 -1.9098  0.1264 -0.1715
  159MOL   H16247878   2.680   6.653   5.691 -2.9644 -0.4071  0.2801
  159MOL   H16347879   2.609   6.614   5.481 -0.0162  0.2082  2.0351
  159MOL   H16447880   2.514   6.458   5.311 -0.2234  1.0620  1.0457
  159MOL   H16547881   2.520   6.221   5.364 -0.2976  0.8401 -0.5139
  159MOL   H16647882   2.604   6.146   5.600 -1.3523 -0.2051  0.3259
  159MOL   C16747883   2.599   6.556   5.854 -0.0480  0.4621 -0.3265
  159MOL   C16847884   2.599   6.679   5.948 -0.2761 -0.5273  1.0236
  159MOL   C16947885   2.679   6.797   5.891  0.1116  0.0603  0.7875
  159MOL   C17047886   2.806   6.836   5.938  0.4695 -0.2482  0.0149
  159MOL   C17147887   2.883   6.934   5.868 -0.0720  0.6549 -0.4615
  159MOL   C17247888   2.821   7.001   5.760 -0.3877 -0.4270 -0.1880
  159MOL   C17347889   2.687   6.960   5.724 -0.8099  0.7041  0.7005
  159MOL   N17447890   2.620   6.863   5.787  0.6772 -0.2515  0.2870
  159MOL   H17547891   2.598   6.461   5.907  1.8914  1.4634  1.5863
  159MOL   H17647892   2.500   6.550   5.807  0.1790 -0.1855 -0.7243
  159MOL   H17747893   2.661   6.648   6.032 -0.4050  0.7863  1.6112
  159MOL   H17847894   2.848   6.793   6.028  1.2022 -0.7770 -0.5733
  159MOL   H17947895   2.983   6.968   5.893 -1.5971  3.6395  1.9983
  159MOL   H18047896   2.884   7.072   5.709  0.5153 -1.3623 -0.3757
  159MOL   H18147897   2.642   7.012   5.642 -0.4152 -1.3485 -0.8530
  159MOL   C18247898   2.458   6.713   5.995 -0.2232 -0.7528  0.7697
  159MOL   C18347899   2.401   6.599   6.086 -0.2323 -0.0559 -0.0856
  159MOL   C18447900   2.493   6.566   6.203 -0.4610 -0.1988 -0.3456
  159MOL   C18547901   2.538   6.435   6.220  0.0577  0.7653  0.6509
  159MOL   C18647902   2.597   6.391   6.343 -0.6466 -0.9077  0.0432
  159MOL   C18747903   2.616   6.493   6.438 -0.2246 -0.2027 -0.3034
  159MOL   C18847904   2.570   6.624   6.413  0.7698 -0.4279 -0.1317
  159MOL   N18947905   2.509   6.661   6.298  0.4116 -0.1534 -1.0797
  159MOL   H19047906   2.395   6.749   5.914 -0.4950 -0.7794  0.9697
  159MOL   H19147907   2.469   6.799   6.061  0.0417  1.0096 -1.5098
  159MOL   H19247908   2.387   6.514   6.020  0.5780 -0.0047 -0.3342
  159MOL   H19347909   2.511   6.357   6.149  3.0710  0.8101 -0.5968
  159MOL   H19447910   2.619   6.289   6.370 -1.1987 -0.5240  2.0296
  159MOL   H19547911   2.668   6.472   6.530 -0.4751 -2.5534 -0.6829
  159MOL   H19647912   2.576   6.705   6.484 -1.6436 -0.8340  0.5884
  159MOL   C19747913   2.260   6.635   6.138  0.2442  0.0807  0.2437
  159MOL   C19847914   2.199   6.557   6.251  0.1443  0.6345 -0.3533
  159MOL   C19947915   2.108   6.648   6.338 -0.8738 -0.0168  0.6522
  159MOL   C20047916   1.998   6.712   6.283  0.1557 -0.2214  0.3046
  159MOL   C20147917   1.919   6.789   6.372 -0.3696  0.5478 -0.2243
  159MOL   C20247918   1.947   6.793   6.511 -0.0390 -0.3123 -0.2883
  159MOL   C20347919   2.061   6.723   6.557  0.0918  0.3477  0.0704
  159MOL   N20447920   2.139   6.650   6.470 -0.4472  0.3022 -0.3086
  159MOL   H20547921   2.206   6.646   6.044 -2.4116 -2.7133  1.3354
  159MOL   H20647922   2.266   6.735   6.181 -0.7714  0.6989 -1.0065
  159MOL   H20747923   2.276   6.506   6.309  1.3892  1.4995 -1.2256
  159MOL   H20847924   1.963   6.705   6.181 -1.4506 -1.4850  0.9137
  159MOL   H20947925   1.823   6.827   6.339 -0.2427  0.3637 -0.8214
  159MOL   H21047926   1.876   6.825   6.586 -0.3445  0.4470 -0.9020
  159MOL   H21147927   2.081   6.713   6.662 -0.9750  0.1448  0.2618
  159MOL   C21247928   2.130   6.432   6.188 -0.0533  0.5220 -0.1871
  159MOL   C21347929   2.077   6.315   6.272  0.0341 -0.3815  0.5963
  159MOL   C21447930   2.181   6.241   6.360  0.7665  0.2641 -0.2958
  159MOL   C21547931   2.236   6.289   6.484  0.5435  0.3737  0.3013
  159MOL   C21647932   2.316   6.201   6.562  0.0877 -0.3151 -0.7522
  159MOL   C21747933   2.322   6.065   6.530  0.4180  0.3982 -0.4523
  159MOL   C21847934   2.264   6.025   6.411  0.5585  0.1317  0.2441
  159MOL   N21947935   2.206   6.112   6.324  0.1195 -0.1717  0.2084
  159MOL   H22047936   2.203   6.392   6.117 -0.5924 -0.4771 -0.1896
  159MOL   H22147937   2.046   6.457   6.123  0.7536  0.6937 -1.1841
  159MOL   H22247938   2.042   6.246   6.195  0.7411  1.4220 -1.4043
  159MOL   H22347939   2.217   6.392   6.511  0.0994  0.2657  0.3931
  159MOL   H22447940   2.356   6.242   6.653 -0.3029  2.1688 -1.6738
  159MOL   H22547941   2.368   5.997   6.599 -1.6689 -0.8931 -0.2985
  159MOL   H22647942   2.294   5.933   6.362  0.6020  0.1381  0.2582
  159MOL   C22747943   1.957   6.358   6.364 -0.6692 -0.2112 -0.2222
  159MOL   C22847944   1.885   6.229   6.420  0.5887 -0.4168 -0.1309
  159MOL   C22947945   1.833   6.250   6.564 -0.2884  0.1130  1.0728
  159MOL   C23047946   1.899   6.187   6.671  0.3144  0.5466  0.1642
  159MOL   C23147947   1.853   6.204   6.805  0.2935 -0.0872 -0.3541
  159MOL   C23247948   1.742   6.291   6.821  0.4001 -0.7444 -0.1751
  159MOL   C23347949   1.680   6.351   6.705 -0.3729  0.0332 -0.1705
  159MOL   N23447950   1.724   6.322   6.579 -0.0842 -0.1841  0.0126
  159MOL   H23547951   1.893   6.436   6.323  0.9582  1.9489  1.2581
  159MOL   H23647952   2.004   6.405   6.450 -0.8604  1.5969 -1.0932
  159MOL   H23747953   1.958   6.149   6.414  1.0983 -0.2218  2.5314
  159MOL   H23847954   1.988   6.132   6.643  1.0572  1.2003  1.2261
  159MOL   H23947955   1.913   6.171   6.889  2.9321 -0.9468 -2.5161
  159MOL   H24047956   1.703   6.314   6.919  1.8287  2.0833 -0.2202
  159MOL   H24147957   1.607   6.431   6.708 -1.3210 -0.7815 -1.2302
  159MOL   C24247958   1.785   6.168   6.316  0.1799  0.2797  0.8002
  159MOL   C24347959   1.766   6.021   6.324 -0.3877 -0.1229 -0.2076
  159MOL   C24447960   1.627   5.983   6.273 -0.2601  0.0027 -0.9751
  159MOL   C24547961   1.548   6.054   6.176 -0.0393 -0.0504  0.0206
  159MOL   C24647962   1.421   6.004   6.146  1.2446  0.4175  0.0605
  159MOL   C24747963   1.370   5.884   6.204 -0.3056 -0.2388  0.7050
  159MOL   C24847964   1.457   5.812   6.285  0.5339  0.3504 -0.2233
  159MOL   N24947965   1.580   5.864   6.318 -0.0651  0.3897 -0.5192
  159MOL   H25047966   1.804   6.205   6.215  0.1124  0.6231  0.9130
  159MOL   H25147967   1.695   6.214   6.356  1.0374  1.9794  0.8219
  159MOL   H25247968   1.771   6.006   6.432 -1.9153 -1.8259 -0.3540
  159MOL   H25347969   1.595   6.142   6.134  1.4578 -0.9642 -0.2852
  159MOL   H25447970   1.364   6.061   6.074 -0.1956 -0.5873  0.3823
  159MOL   H25547971   1.271   5.844   6.189  1.0540 -3.2383 -0.8610
  159MOL   H25647972   1.427   5.717   6.325 -0.7940  0.4698 -0.9291
  159MOL   C25747973   1.884   5.945   6.254 -0.5989  0.6318  0.2766
  159MOL   C25847974   1.896   5.793   6.295  0.0645  0.0043 -0.2676
  159MOL   C25947975   1.875   5.702   6.171  0.1692 -1.3245 -0.1954
  159MOL   C26047976   1.760   5.626   6.165  0.0413 -0.7763 -0.0308
  159MOL   C26147977   1.730   5.555   6.044 -0.5355  0.5802 -0.3183
  159MOL   C26247978   1.830   5.549   5.945 -0.6780 -0.4623  0.3772
  159MOL   C26347979   1.956   5.618   5.968 -0.0580 -0.1911 -0.0420
  159MOL   N26447980   1.970   5.701   6.072  0.5327 -0.5001  0.2823
  159MOL   H26547981   1.981   5.992   6.271 -0.0441 -0.7768  1.1778
  159MOL   H26647982   1.860   5.940   6.148  0.7372 -1.4076  0.0381
  159MOL   H26747983   1.830   5.767   6.378 -0.7951  0.2656 -0.8696
  159MOL   H26847984   1.697   5.631   6.252 -1.2126 -0.6281 -0.9474
  159MOL   H26947985   1.634   5.505   6.036  0.5358 -1.7931  1.0807
  159MOL   H27047986   1.813   5.501   5.849 -0.8412  3.2053 -1.5472
  159MOL   H27147987   2.032   5.609   5.892 -0.1919  0.9129 -0.3099
  159MOL   C27247988   2.034   5.769   6.361 -0.1808 -0.5005  0.2474
  159MOL   C27347989   2.043   5.637   6.439 -0.3524 -1.1158  0.3390
  159MOL   C27447990   2.183   5.589   6.467  0.0273 -0.1684 -0.2430
  159MOL   C27547991   2.228   5.458   6.438  0.1627 -0.6691 -0.4780
  159MOL   C27647992   2.366   5.432   6.449  0.1194 -0.1697  0.3811
  159MOL   C27747993   2.445   5.528   6.510  0.1143 -0.3887 -0.3307
  159MOL   C27847994   2.395   5.652   6.547 -0.1534 -0.4400  0.0505
  159MOL   N27947995   2.265   5.685   6.517  0.2898  0.0154 -0.1924
  159MOL   H28047996   2.045   5.854   6.429  1.6276  0.6220 -1.3685
  159MOL   H28147997   2.112   5.789   6.287  0.3422 -1.3845  0.5565
  159MOL   H28247998   2.009   5.561   6.369  0.0858 -1.3468  0.3750
  159MOL   H28347999   2.156   5.392   6.393 -0.9441 -0.0958  0.4022
  159MOL   H28448000   2.395   5.335   6.412 -1.6392 -1.5138  2.3485
  159MOL   H28548001   2.548   5.499   6.528 -0.1370 -1.0797  0.0100
  159MOL   H28648002   2.449   5.730   6.599 -2.5571  1.2246  0.1242
  159MOL   C28748003   1.966   5.626   6.570  0.4717 -0.2346 -0.2643
  159MOL   C28848004   1.944   5.488   6.625  0.2477 -0.2818 -0.1156
  159MOL   C28948005   1.859   5.491   6.756  0.1413 -0.4598  0.4923
  159MOL   C29048006   1.929   5.509   6.881 -0.3947 -0.0760 -0.2680
  159MOL   C29148007   1.851   5.521   6.996  0.2119  0.3924  0.2872
  159MOL   C29248008   1.711   5.514   6.980 -0.1552 -0.7481 -0.5486
  159MOL   C29348009   1.656   5.487   6.852  0.0625 -0.2672  0.1816
  159MOL   N29448010   1.731   5.472   6.739 -0.0817 -0.1850  0.0648
  159MOL   H29548011   1.862   5.658   6.569  0.3512 -0.6252 -1.4911
  159MOL   H29648012   2.016   5.689   6.643 -0.9282  0.7094 -0.1091
  159MOL   H29748013   2.040   5.445   6.654  0.2348  0.2584  0.7312
  159MOL   H29848014   2.034   5.535   6.885 -0.3607 -0.2758  0.2247
  159MOL   H29948015   1.886   5.527   7.098 -0.3682 -0.8840  0.5841
  159MOL   H30048016   1.644   5.531   7.063  0.4869 -0.5998 -0.0543
  159MOL   H30148017   1.549   5.475   6.846  0.3123 -3.0125  0.4475
  159MOL   H30248018   1.904   5.415   6.556  1.1773  0.8987 -1.9517
  160MOL     C148019   1.833   7.403   1.786 -0.7947 -0.5596  0.7674
  160MOL     C248020   1.800   7.368   1.933 -0.6872  0.3584 -0.2897
  160MOL     C348021   1.715   7.468   2.002  0.2766  0.7430 -0.1534
  160MOL     C448022   1.579   7.481   1.966 -0.6497 -0.2858  0.1207
  160MOL     C548023   1.490   7.547   2.055  0.3119 -0.1029  0.1101
  160MOL     C648024   1.545   7.588   2.174 -0.1263  0.0974 -0.1628
  160MOL     C748025   1.685   7.589   2.189  0.4685  0.1605 -0.0216
  160MOL     N848026   1.770   7.537   2.101  0.0835  0.5262  0.1470
  160MOL     H948027   1.911   7.340   1.743 -0.8404  1.0664 -1.8274
  160MOL    H1048028   1.742   7.387   1.728  0.5412  0.1934 -1.6468
  160MOL    H1148029   1.895   7.355   1.984 -1.7266 -2.7405  1.0050
  160MOL    H1248030   1.547   7.442   1.871 -0.3720 -0.2806  0.0248
  160MOL    H1348031   1.383   7.558   2.044  0.2525 -0.2184  0.5706
  160MOL    H1448032   1.478   7.630   2.248 -0.3825 -1.4996  0.5206
  160MOL    H1548033   1.729   7.621   2.282  0.7353 -2.9560  0.9960
  160MOL    H1648034   1.867   7.506   1.775  0.2393 -0.9072  0.6449
  160MOL    C1748035   1.742   7.228   1.945 -0.0108  0.5999  0.3402
  160MOL    C1848036   1.690   7.178   2.087  0.3998 -0.5821  0.9285
  160MOL    C1948037   1.567   7.083   2.070  0.3928 -0.3533  0.6709
  160MOL    C2048038   1.434   7.129   2.082  0.1654 -0.1489  0.4378
  160MOL    C2148039   1.329   7.037   2.056 -0.8046 -0.1470 -0.4859
  160MOL    C2248040   1.358   6.906   2.034 -0.8926 -0.1239  0.1661
  160MOL    C2348041   1.491   6.880   2.000  0.1068 -0.5148 -0.1719
  160MOL    N2448042   1.595   6.965   2.016  0.3133 -0.4234  0.0392
  160MOL    H2548043   1.807   7.157   1.894  0.9377  1.5522  0.1993
  160MOL    H2648044   1.664   7.220   1.870  0.6622  1.2279 -0.4274
  160MOL    H2748045   1.649   7.264   2.140  0.1106  0.3214 -0.7150
  160MOL    H2848046   1.415   7.228   2.121  3.7620  1.1555 -0.8534
  160MOL    H2948047   1.230   7.071   2.083 -0.6566 -0.1361  0.0384
  160MOL    H3048048   1.276   6.837   2.018 -3.5920  2.3936  2.5768
  160MOL    H3148049   1.521   6.783   1.961  3.4398  0.9400 -1.5085
  160MOL    C3248050   1.798   7.127   2.180  0.1277  0.4750 -0.4805
  160MOL    C3348051   1.749   7.121   2.333  0.4245 -0.2405 -0.5037
  160MOL    C3448052   1.823   7.014   2.410 -0.7617 -1.0862 -0.3110
  160MOL    C3548053   1.755   6.911   2.479  0.0069 -0.0004  0.0076
  160MOL    C3648054   1.838   6.813   2.537 -0.6941  0.1611 -0.1534
  160MOL    C3748055   1.980   6.826   2.531 -0.2718 -0.6225  0.0643
  160MOL    C3848056   2.037   6.938   2.460  0.1356 -0.7190  0.4168
  160MOL    N3948057   1.959   7.032   2.402 -0.2871  0.7830 -0.3962
  160MOL    H4048058   1.890   7.186   2.186  0.9296 -0.8537  0.7477
  160MOL    H4148059   1.841   7.036   2.139 -0.0248 -0.9854  2.4897
  160MOL    H4248060   1.646   7.084   2.331 -0.4506  2.0491  0.4757
  160MOL    H4348061   1.648   6.904   2.472  0.1627 -0.7913 -1.9197
  160MOL    H4448062   1.786   6.731   2.583 -0.0532  0.1536  0.5606
  160MOL    H4548063   2.041   6.755   2.584 -0.4588  1.0858  2.6638
  160MOL    H4648064   2.141   6.966   2.453 -0.1522  0.1512 -0.4108
  160MOL    C4748065   1.755   7.258   2.406  0.6690 -0.3099 -0.2356
  160MOL    C4848066   1.656   7.282   2.523  0.0051  0.5956  0.2246
  160MOL    C4948067   1.693   7.409   2.605  0.9582 -0.3357  0.0220
  160MOL    C5048068   1.722   7.401   2.738 -0.4105  0.0100 -0.6382
  160MOL    C5148069   1.733   7.523   2.815 -0.0305  0.0709 -0.2092
  160MOL    C5248070   1.726   7.643   2.750 -0.0880 -0.1733 -0.5556
  160MOL    C5348071   1.704   7.643   2.614  0.3172  0.0557  0.3533
  160MOL    N5448072   1.687   7.531   2.542 -0.4084  0.0815 -0.3865
  160MOL    H5548073   1.732   7.335   2.332  0.3912  0.1245  0.2980
  160MOL    H5648074   1.855   7.288   2.438  1.2126 -0.2126 -1.9730
  160MOL    H5748075   1.663   7.200   2.595  0.6984  0.5988  0.1689
  160MOL    H5848076   1.723   7.305   2.787  0.8091 -0.6705 -1.9659
  160MOL    H5948077   1.761   7.503   2.917  2.4027  0.6050 -0.7493
  160MOL    H6048078   1.730   7.740   2.798  0.7037  0.6812 -2.3214
  160MOL    H6148079   1.697   7.740   2.567 -2.7357 -1.0299 -1.6199
  160MOL    C6248080   1.505   7.287   2.484 -0.1535  0.3319 -0.0197
  160MOL    C6348081   1.432   7.165   2.529 -0.0624 -0.3754 -0.3642
  160MOL    C6448082   1.427   7.143   2.680  0.5665  0.4860  0.6659
  160MOL    C6548083   1.373   7.246   2.765 -0.4586 -1.0169 -0.2307
  160MOL    C6648084   1.376   7.226   2.900  0.1575  0.0507 -0.0408
  160MOL    C6748085   1.436   7.106   2.952  0.0727  0.3237  0.4349
  160MOL    C6848086   1.480   7.010   2.858 -0.3973  0.2764 -0.8130
  160MOL    N6948087   1.470   7.028   2.728 -0.2482 -0.5389  0.5048
  160MOL    H7048088   1.495   7.295   2.375  0.3780  0.4126 -0.0675
  160MOL    H7148089   1.461   7.377   2.525 -0.0352 -0.6642  2.3349
  160MOL    H7248090   1.490   7.082   2.488  0.1554 -1.7329  2.5859
  160MOL    H7348091   1.318   7.331   2.728  1.1285 -0.2738 -0.9664
  160MOL    H7448092   1.325   7.294   2.966 -0.7834 -1.4951  0.8655
  160MOL    H7548093   1.427   7.082   3.057  0.1370  0.2234  0.4171
  160MOL    H7648094   1.528   6.917   2.883 -1.0843  0.4196  1.1525
  160MOL    C7748095   1.287   7.161   2.463  0.4238  0.6059 -0.7235
  160MOL    C7848096   1.198   7.035   2.497  0.5612 -0.0286  0.2648
  160MOL    C7948097   1.055   7.066   2.495 -0.0823  0.4134  0.6969
  160MOL    C8048098   0.994   7.125   2.607  0.2429 -0.3895 -0.2598
  160MOL    C8148099   0.859   7.171   2.597 -0.0870 -0.3574 -0.4492
  160MOL    C8248100   0.794   7.144   2.478  0.2281 -0.2799 -0.3293
  160MOL    C8348101   0.871   7.104   2.363  0.3371 -0.1266  0.1609
  160MOL    N8448102   0.995   7.062   2.373  1.2499 -0.2368 -0.3514
  160MOL    H8548103   1.305   7.175   2.356  1.9518  4.6006 -0.0403
  160MOL    H8648104   1.234   7.253   2.488  0.0685  0.4147 -0.7735
  160MOL    H8748105   1.220   6.999   2.597  0.5273  0.0726  0.3084
  160MOL    H8848106   1.041   7.128   2.704  0.1584 -2.1548 -0.1610
  160MOL    H8948107   0.803   7.219   2.676  0.3116 -0.5899 -0.0222
  160MOL    H9048108   0.695   7.182   2.459  0.3794  0.4644  0.3252
  160MOL    H9148109   0.820   7.106   2.268  3.5431 -2.6085 -1.7330
  160MOL    C9248110   1.243   6.913   2.405  0.1348  0.1341 -0.2654
  160MOL    C9348111   1.335   6.799   2.458 -0.1982 -0.3325 -0.1950
  160MOL    C9448112   1.263   6.714   2.557 -0.0769  0.3721 -0.5128
  160MOL    C9548113   1.316   6.689   2.684 -0.0590 -0.2466  0.0986
  160MOL    C9648114   1.252   6.604   2.771  0.7920 -0.6170 -0.7292
  160MOL    C9748115   1.142   6.537   2.724  0.6369  0.8685  0.2452
  160MOL    C9848116   1.086   6.576   2.599  0.1033  0.4833 -0.3916
  160MOL    N9948117   1.147   6.658   2.515  0.6404 -0.3951  1.1176
  160MOL   H10048118   1.296   6.955   2.320  2.0369  0.1189  0.8729
  160MOL   H10148119   1.153   6.862   2.372  0.1886 -0.0679 -0.1022
  160MOL   H10248120   1.421   6.831   2.517 -0.3925 -1.3316  0.6491
  160MOL   H10348121   1.406   6.741   2.714  1.1185 -1.0059 -2.0615
  160MOL   H10448122   1.285   6.571   2.869  0.2577  2.6963  0.6407
  160MOL   H10548123   1.092   6.466   2.788  2.1780 -0.4062  0.0856
  160MOL   H10648124   0.986   6.538   2.584  0.5165 -0.9991  0.5424
  160MOL   C10748125   1.388   6.727   2.333 -0.4859  0.3943  0.0042
  160MOL   C10848126   1.417   6.580   2.332 -0.0599  0.6727 -0.4787
  160MOL   C10948127   1.410   6.514   2.200  0.3735  0.2961  0.1427
  160MOL   C11048128   1.318   6.406   2.179  0.5532  0.0248 -0.5504
  160MOL   C11148129   1.323   6.337   2.052 -0.4195  0.2764 -0.3820
  160MOL   C11248130   1.398   6.394   1.947  0.2153  0.0946 -0.2762
  160MOL   C11348131   1.471   6.512   1.975  0.1169  0.6919 -0.3106
  160MOL   N11448132   1.480   6.568   2.099  0.3131  0.0137  0.0142
  160MOL   H11548133   1.441   6.796   2.268 -1.4464  0.9191 -0.2367
  160MOL   H11648134   1.296   6.719   2.275 -0.6040  2.2634 -0.0871
  160MOL   H11748135   1.341   6.524   2.387 -0.1840 -0.5095 -1.8211
  160MOL   H11848136   1.259   6.375   2.264 -0.1781  1.0092 -0.6876
  160MOL   H11948137   1.263   6.248   2.037 -0.8510  1.0034 -3.2484
  160MOL   H12048138   1.410   6.359   1.846 -1.8912  0.3071 -0.6240
  160MOL   H12148139   1.546   6.554   1.910 -0.4686  1.7261 -0.3326
  160MOL   C12248140   1.547   6.550   2.403  0.3552  0.6740 -0.3029
  160MOL   C12348141   1.601   6.402   2.408 -0.9475  0.3445 -0.6380
  160MOL   C12448142   1.747   6.394   2.421 -0.2140  0.7687 -0.2664
  160MOL   C12548143   1.838   6.335   2.330 -0.2338  0.1362 -0.3193
  160MOL   C12648144   1.974   6.331   2.360  0.2221  0.0192  0.1015
  160MOL   C12748145   2.014   6.408   2.461 -0.0012  0.3331  0.1735
  160MOL   C12848146   1.922   6.471   2.552 -0.2887 -0.0637  0.3405
  160MOL   N12948147   1.790   6.451   2.535  0.1193  0.2486 -0.8566
  160MOL   H13048148   1.560   6.594   2.502 -0.7293 -2.3521  1.2503
  160MOL   H13148149   1.615   6.609   2.342 -1.6613  3.3137 -0.0709
  160MOL   H13248150   1.573   6.362   2.310  0.5867  0.1030 -0.9961
  160MOL   H13348151   1.799   6.292   2.239 -0.3050 -2.6030  0.9394
  160MOL   H13448152   2.045   6.274   2.301 -0.2842 -1.5747  1.0087
  160MOL   H13548153   2.118   6.419   2.484 -0.3438  2.0598  0.9747
  160MOL   H13648154   1.960   6.534   2.631  0.0239  0.7950 -0.4801
  160MOL   C13748155   1.520   6.314   2.504  0.1537  0.1400  0.0329
  160MOL   C13848156   1.578   6.175   2.541  0.7047  0.6535 -0.1892
  160MOL   C13948157   1.507   6.124   2.668  0.2352 -0.0086  0.6222
  160MOL   C14048158   1.579   6.085   2.780 -0.5884  0.7477 -0.1457
  160MOL   C14148159   1.507   6.034   2.891 -0.3144 -0.1918  0.4747
  160MOL   C14248160   1.367   6.042   2.887 -0.9115 -0.1191  0.1105
  160MOL   C14348161   1.310   6.073   2.764  0.6825 -0.5856  0.0144
  160MOL   N14448162   1.376   6.117   2.654  0.3648  0.0664 -0.2312
  160MOL   H14548163   1.414   6.308   2.481 -0.2730  2.0327  1.4091
  160MOL   H14648164   1.514   6.368   2.598 -1.6333  1.8173 -1.0139
  160MOL   H14748165   1.681   6.179   2.575  1.3810 -2.0345 -1.8007
  160MOL   H14848166   1.686   6.078   2.793 -0.3841  2.2600 -0.9377
  160MOL   H14948167   1.557   5.997   2.979 -1.5607  0.0420  1.2770
  160MOL   H15048168   1.298   6.004   2.961 -0.6996  1.2750  1.0497
  160MOL   H15148169   1.202   6.075   2.754  1.0371 -1.1853 -4.6497
  160MOL   C15248170   1.577   6.083   2.414 -0.2030 -0.1145 -1.0824
  160MOL   C15348171   1.646   5.947   2.426  0.3408  0.4010  0.0394
  160MOL   C15448172   1.577   5.856   2.525  0.7249  0.2565 -0.0157
  160MOL   C15548173   1.656   5.806   2.627 -0.1606 -0.4831 -0.0112
  160MOL   C15648174   1.600   5.705   2.711  0.5341  0.1465 -0.5515
  160MOL   C15748175   1.474   5.653   2.675  0.0586 -0.8582  0.1762
  160MOL   C15848176   1.409   5.714   2.571  0.4633 -0.1940  0.8028
  160MOL   N15948177   1.449   5.823   2.505 -0.0314  0.0502  0.4264
  160MOL   H16048178   1.617   6.140   2.331  0.7954  0.9658  0.1234
  160MOL   H16148179   1.469   6.072   2.402 -0.2885  0.0482 -0.4990
  160MOL   H16248180   1.746   5.972   2.461  0.7764 -2.5769  1.0744
  160MOL   H16348181   1.759   5.836   2.633  0.0748 -1.1525 -0.6528
  160MOL   H16448182   1.659   5.666   2.793 -0.6344 -1.2837 -0.3973
  160MOL   H16548183   1.428   5.578   2.738 -0.5658  0.5748  1.4612
  160MOL   H16648184   1.311   5.684   2.538  0.6000 -0.9307  1.0421
  160MOL   C16748185   1.651   5.887   2.283  0.3195  0.4018  0.0168
  160MOL   C16848186   1.761   5.776   2.271 -0.5109  0.1058  0.1316
  160MOL   C16948187   1.752   5.647   2.351  0.6269 -0.0375  0.4684
  160MOL   C17048188   1.628   5.571   2.345 -1.1293 -0.5632  0.3127
  160MOL   C17148189   1.640   5.441   2.387  0.1722 -0.0937 -0.5746
  160MOL   C17248190   1.753   5.400   2.459  0.3012 -0.3631 -0.8443
  160MOL   C17348191   1.861   5.482   2.467  0.6942 -0.3670 -0.5096
  160MOL   N17448192   1.860   5.603   2.410  0.3522  0.2177 -0.2961
  160MOL   H17548193   1.654   5.957   2.198  0.0124  0.4377  0.0343
  160MOL   H17648194   1.554   5.842   2.263  0.5035  0.7550 -1.8519
  160MOL   H17748195   1.847   5.824   2.319  0.2607  2.1378 -3.1570
  160MOL   H17848196   1.536   5.607   2.300 -0.0387 -0.2278 -1.7102
  160MOL   H17948197   1.557   5.375   2.368  0.4719 -0.1630 -1.6618
  160MOL   H18048198   1.765   5.299   2.495  1.1493  0.1352  0.2965
  160MOL   H18148199   1.958   5.452   2.504  1.0254  0.4252 -0.7298
  160MOL   C18248200   1.798   5.741   2.125 -0.9017 -0.8777  0.5982
  160MOL   C18348201   1.931   5.667   2.105 -0.0972  0.0831 -0.1436
  160MOL   C18448202   1.934   5.621   1.956 -0.2614 -0.2414 -0.5259
  160MOL   C18548203   1.941   5.487   1.935 -0.5982  0.4092  0.3813
  160MOL   C18648204   1.986   5.448   1.805 -0.0344  0.0383  0.6007
  160MOL   C18748205   1.982   5.541   1.699 -0.0186 -0.1125 -0.8004
  160MOL   C18848206   1.967   5.677   1.738  0.0720 -0.0396 -0.5772
  160MOL   N18948207   1.950   5.716   1.867  0.3023  0.2184  0.1104
  160MOL   H19048208   1.807   5.835   2.071  0.7034 -1.2845  0.1313
  160MOL   H19148209   1.715   5.680   2.087 -1.6934 -0.1158  1.0802
  160MOL   H19248210   1.919   5.581   2.170 -1.5643  0.4693  0.1160
  160MOL   H19348211   1.945   5.420   2.020  1.1706 -1.7539 -1.3121
  160MOL   H19448212   2.001   5.345   1.777  1.2695  0.5393 -0.6145
  160MOL   H19548213   2.008   5.518   1.596 -0.5904  0.7249 -1.1355
  160MOL   H19648214   1.976   5.756   1.666  1.6728  0.2506 -0.0827
  160MOL   C19748215   2.053   5.749   2.156  0.1955 -0.5358 -0.7188
  160MOL   C19848216   2.176   5.661   2.196  0.1266  0.5949  0.7584
  160MOL   C19948217   2.239   5.591   2.076 -0.6844  0.0544  0.6107
  160MOL   C20048218   2.242   5.452   2.065  0.2411 -0.4437 -0.2131
  160MOL   C20148219   2.304   5.399   1.954 -0.3446  0.1276  0.1535
  160MOL   C20248220   2.358   5.475   1.854 -0.0712 -0.7945 -0.4837
  160MOL   C20348221   2.353   5.614   1.875  0.2377 -0.4397 -0.3255
  160MOL   N20448222   2.299   5.671   1.986 -0.2808  0.2112 -0.1233
  160MOL   H20548223   2.032   5.799   2.251  1.2799  0.3810 -0.9514
  160MOL   H20648224   2.084   5.822   2.082 -0.9549  0.3168 -0.3836
  160MOL   H20748225   2.135   5.578   2.253  1.4041  1.6051  3.2568
  160MOL   H20848226   2.191   5.394   2.141  0.1721  1.0101  0.8831
  160MOL   H20948227   2.312   5.291   1.951  1.8792  0.3246 -2.3350
  160MOL   H21048228   2.421   5.426   1.781  1.6260 -0.8525  0.9837
  160MOL   H21148229   2.400   5.685   1.808 -2.1678  2.0358  0.5029
  160MOL   C21248230   2.293   5.734   2.272 -0.0236 -0.6685  0.0715
  160MOL   C21348231   2.423   5.663   2.322  0.5892 -0.1306  0.2225
  160MOL   C21448232   2.531   5.765   2.357 -0.2522 -0.1429  0.3380
  160MOL   C21548233   2.639   5.781   2.266  0.3023  0.0393  0.1601
  160MOL   C21648234   2.731   5.884   2.291 -0.2725 -0.1188 -0.1629
  160MOL   C21748235   2.720   5.960   2.408  0.4047 -0.3776  0.2380
  160MOL   C21848236   2.603   5.934   2.489 -0.4363 -0.3366  0.4726
  160MOL   N21948237   2.513   5.840   2.467  0.0370  0.2220 -0.8181
  160MOL   H22048238   2.261   5.802   2.351  0.7508  1.5655 -1.4562
  160MOL   H22148239   2.332   5.809   2.203 -0.7190 -0.3485  0.0223
  160MOL   H22248240   2.473   5.603   2.246  3.1230  1.8916  0.2504
  160MOL   H22348241   2.649   5.709   2.186  1.0702  1.2973 -0.8965
  160MOL   H22448242   2.817   5.889   2.226  0.3485  0.5831  0.6980
  160MOL   H22548243   2.795   6.032   2.438 -0.2760  0.9550 -1.1425
  160MOL   H22648244   2.594   5.983   2.585 -0.1591 -3.4859  2.1685
  160MOL   C22748245   2.395   5.563   2.434  1.1561 -0.2389 -0.0170
  160MOL   C22848246   2.390   5.412   2.408 -0.4247  0.5457 -0.3247
  160MOL   C22948247   2.521   5.361   2.344  0.6218  0.6004  0.3685
  160MOL   C23048248   2.514   5.267   2.237  0.0508  0.2312  0.0063
  160MOL   C23148249   2.633   5.217   2.181  0.1100  0.0423 -0.2089
  160MOL   C23248250   2.754   5.260   2.239 -0.4869 -0.1345 -0.3450
  160MOL   C23348251   2.751   5.351   2.339 -1.0834  0.0414  0.2059
  160MOL   N23448252   2.636   5.400   2.397  0.8536  0.0711  0.2470
  160MOL   H23548253   2.300   5.579   2.486  0.1348 -1.9616 -1.2780
  160MOL   H23648254   2.461   5.572   2.520  0.9261 -0.1688  0.1524
  160MOL   H23748255   2.311   5.391   2.336 -0.6607 -0.7413  0.3045
  160MOL   H23848256   2.420   5.245   2.188  0.6735  1.2266 -1.6696
  160MOL   H23948257   2.632   5.144   2.102 -0.3237  1.0385 -1.1341
  160MOL   H24048258   2.847   5.219   2.203 -1.1465 -0.9296 -1.1849
  160MOL   H24148259   2.841   5.378   2.393 -0.1027 -0.8721 -0.9510
  160MOL   C24248260   2.377   5.326   2.537  0.1583 -0.0175  0.0371
  160MOL   C24348261   2.236   5.325   2.608 -0.4332 -0.1889  0.0707
  160MOL   C24448262   2.154   5.213   2.551 -0.4587 -0.0334 -0.3014
  160MOL   C24548263   2.180   5.082   2.598  0.0701  0.3868  0.2813
  160MOL   C24648264   2.116   4.978   2.531 -0.2395 -0.3801  0.3077
  160MOL   C24748265   2.031   5.014   2.427  0.3017 -0.0384  0.2024
  160MOL   C24848266   2.007   5.145   2.395 -0.3590 -0.1854 -0.3752
  160MOL   N24948267   2.070   5.250   2.451 -0.1216 -0.6861  0.2216
  160MOL   H25048268   2.464   5.352   2.599  0.1699 -0.3537  0.1675
  160MOL   H25148269   2.403   5.227   2.500 -0.6793 -0.7198  1.2756
  160MOL   H25248270   2.179   5.415   2.584  2.0870  1.4879  0.2680
  160MOL   H25348271   2.241   5.065   2.685  0.5898  1.3056  0.0963
  160MOL   H25448272   2.132   4.879   2.571 -0.6929 -0.4896  0.2202
  160MOL   H25548273   1.970   4.934   2.388 -1.0591  0.6654  0.8819
  160MOL   H25648274   1.945   5.170   2.309 -1.2937  0.8626  0.5789
  160MOL   C25748275   2.233   5.327   2.756 -0.4504 -0.3859 -0.7075
  160MOL   C25848276   2.270   5.455   2.832  0.1502 -0.2902  0.3699
  160MOL   C25948277   2.195   5.565   2.774 -0.7517  0.0027  0.2290
  160MOL   C26048278   2.270   5.683   2.731 -1.1799  0.3737  0.4187
  160MOL   C26148279   2.206   5.792   2.671 -0.1954  0.0911  1.6341
  160MOL   C26248280   2.066   5.780   2.653  0.6594  0.6533 -1.0806
  160MOL   C26348281   1.997   5.667   2.694 -0.4292 -1.0553 -0.1930
  160MOL   N26448282   2.060   5.563   2.755  0.0575  0.6758  0.1622
  160MOL   H26548283   2.308   5.258   2.793  0.4868  0.8913 -0.2032
  160MOL   H26648284   2.132   5.297   2.786 -0.0235 -1.0699  0.0778
  160MOL   H26748285   2.376   5.479   2.827 -0.2487  1.2146 -1.6165
  160MOL   H26848286   2.376   5.668   2.737 -0.9068  0.7352 -2.5470
  160MOL   H26948287   2.263   5.879   2.641  1.1106 -2.2197 -3.1438
  160MOL   H27048288   2.015   5.868   2.615  1.4408  1.2174 -0.8468
  160MOL   H27148289   1.889   5.660   2.686 -0.3864 -0.3688 -1.5264
  160MOL   C27248290   2.229   5.437   2.981 -0.0009  0.7960 -0.2356
  160MOL   C27348291   2.270   5.552   3.082  0.4216 -0.4522  1.0837
  160MOL   C27448292   2.182   5.551   3.199  0.3154 -0.3281  0.1037
  160MOL   C27548293   2.090   5.655   3.221  0.2750 -0.0827 -0.1856
  160MOL   C27648294   1.999   5.642   3.331  0.2105 -0.2023  0.4289
  160MOL   C27748295   2.006   5.526   3.413  0.1787 -0.2241  0.0242
  160MOL   C27848296   2.101   5.430   3.374  0.1328  0.2608  0.2163
  160MOL   N27948297   2.185   5.441   3.274 -0.2108  0.5906 -0.0760
  160MOL   H28048298   2.271   5.345   3.023 -0.3776  1.2404  1.1134
  160MOL   H28148299   2.122   5.420   2.991 -0.0248  1.5358  0.7503
  160MOL   H28248300   2.245   5.647   3.035  0.4083 -0.4458  1.1048
  160MOL   H28348301   2.088   5.743   3.158  1.2101  0.6385  0.7618
  160MOL   H28448302   1.931   5.723   3.353 -0.6855 -0.5894 -0.8277
  160MOL   H28548303   1.937   5.505   3.494  1.8420 -0.0332  1.5339
  160MOL   H28648304   2.109   5.342   3.436  1.6415  0.9844  1.0760
  160MOL   C28748305   2.420   5.543   3.116  0.3450  0.7797  0.3893
  160MOL   C28848306   2.470   5.654   3.218  0.4699  0.1267  0.5713
  160MOL   C28948307   2.610   5.638   3.273  0.2796 -0.9148  0.2828
  160MOL   C29048308   2.633   5.626   3.411 -0.3159 -0.2549 -0.3521
  160MOL   C29148309   2.765   5.627   3.461  0.2559 -0.1325  0.5042
  160MOL   C29248310   2.868   5.632   3.369  0.1338  0.0966 -0.2182
  160MOL   C29348311   2.837   5.631   3.234  0.5582  0.6501  0.1258
  160MOL   N29448312   2.710   5.633   3.183 -0.9903 -0.1889 -0.2359
  160MOL   H29548313   2.471   5.561   3.021  1.2073  0.4372  0.7782
  160MOL   H29648314   2.437   5.439   3.145  1.6564  0.4878 -1.3582
  160MOL   H29748315   2.402   5.674   3.301  0.5026  2.0176  0.1680
  160MOL   H29848316   2.550   5.622   3.481 -0.7106  0.8035 -0.7456
  160MOL   H29948317   2.778   5.619   3.568  0.0713  0.0800  0.5439
  160MOL   H30048318   2.971   5.636   3.400  0.5524 -1.2404 -1.3741
  160MOL   H30148319   2.917   5.626   3.163  0.7136 -2.2885  0.4510
  160MOL   H30248320   2.473   5.747   3.161  0.2681 -1.3678 -1.9723
  161MOL     C148321   2.669   2.273   4.412  0.0587  0.7680  0.6204
  161MOL     C248322   2.575   2.328   4.305 -0.7938 -0.4348 -0.3041
  161MOL     C348323   2.511   2.229   4.216  0.0231  0.5711  0.1798
  161MOL     C448324   2.560   2.200   4.088  0.5874  0.0158  0.2946
  161MOL     C548325   2.491   2.109   4.004  0.4616  0.2171 -0.9324
  161MOL     C648326   2.375   2.047   4.058  0.1648 -1.1527  0.7486
  161MOL     C748327   2.335   2.080   4.188 -0.1654 -0.5141  0.2407
  161MOL     N848328   2.402   2.171   4.265 -0.2683 -0.4987 -0.0673
  161MOL     H948329   2.709   2.349   4.479 -0.6913  2.8224 -1.2014
  161MOL    H1048330   2.608   2.212   4.479 -0.0806  0.4100  0.1725
  161MOL    H1148331   2.642   2.386   4.241  2.2834 -0.5680  2.7005
  161MOL    H1248332   2.651   2.245   4.052  0.1394  1.1473  0.5304
  161MOL    H1348333   2.532   2.081   3.908 -0.0278 -0.4152 -0.9607
  161MOL    H1448334   2.331   1.963   4.007 -0.7858 -0.5694  0.6128
  161MOL    H1548335   2.259   2.017   4.232 -0.1220 -2.1359 -1.9140
  161MOL    H1648336   2.754   2.213   4.379 -0.7405 -0.3605  0.5787
  161MOL    C1748337   2.490   2.439   4.363  0.3612 -0.1987  0.0125
  161MOL    C1848338   2.549   2.575   4.394  0.4254 -0.0585 -0.4601
  161MOL    C1948339   2.563   2.662   4.269  0.0640 -0.3345  0.6306
  161MOL    C2048340   2.686   2.677   4.198  0.7399  0.0840 -0.5014
  161MOL    C2148341   2.683   2.743   4.073 -0.3595  0.3230 -0.0903
  161MOL    C2248342   2.567   2.811   4.037  0.1691 -0.2761  0.5449
  161MOL    C2348343   2.455   2.795   4.117  0.4854  0.0021 -0.4505
  161MOL    N2448344   2.455   2.720   4.229 -0.2633 -0.8941  0.0894
  161MOL    H2548345   2.446   2.398   4.454 -0.7596  0.7873 -0.0705
  161MOL    H2648346   2.410   2.455   4.290 -0.0164 -2.1131 -0.0192
  161MOL    H2748347   2.653   2.559   4.421  0.0707 -1.1478  0.2602
  161MOL    H2848348   2.782   2.649   4.237 -0.3312 -0.1639  2.0632
  161MOL    H2948349   2.770   2.757   4.011 -0.2702 -0.1209 -0.0675
  161MOL    H3048350   2.560   2.878   3.953  1.2738 -2.2216 -1.1260
  161MOL    H3148351   2.369   2.854   4.092  0.4926  0.8151  1.3744
  161MOL    C3248352   2.479   2.653   4.510  0.7296  0.1094 -0.1580
  161MOL    C3348353   2.512   2.599   4.650 -0.5936 -0.0861  0.4082
  161MOL    C3448354   2.654   2.628   4.686 -0.3006  0.3081  0.3357
  161MOL    C3548355   2.740   2.524   4.719 -0.6907  0.4411  0.3240
  161MOL    C3648356   2.870   2.560   4.760 -0.7550  0.6579 -0.0656
  161MOL    C3748357   2.906   2.691   4.775  0.2388 -0.4192  0.7089
  161MOL    C3848358   2.808   2.790   4.759  0.0551 -0.1737  0.4775
  161MOL    N3948359   2.684   2.755   4.712  0.5034  0.2420  0.6123
  161MOL    H4048360   2.373   2.662   4.483  0.9799 -2.7967 -2.3019
  161MOL    H4148361   2.509   2.758   4.501  0.2659  0.0688 -2.5258
  161MOL    H4248362   2.505   2.491   4.641  1.0061 -0.0806 -1.2115
  161MOL    H4348363   2.714   2.420   4.723  1.4595 -0.2013 -1.0348
  161MOL    H4448364   2.947   2.489   4.784 -0.9150  0.1892 -0.9325
  161MOL    H4548365   3.007   2.717   4.801  0.6959 -0.2194 -1.2535
  161MOL    H4648366   2.829   2.896   4.768 -0.0915  0.0182 -1.2320
  161MOL    C4748367   2.422   2.651   4.761  0.6518 -0.2699  0.2607
  161MOL    C4848368   2.267   2.637   4.732 -0.2206  0.2450  0.4175
  161MOL    C4948369   2.229   2.512   4.664 -0.2365 -0.5214  0.1863
  161MOL    C5048370   2.167   2.502   4.543  0.7450 -0.0252 -0.1947
  161MOL    C5148371   2.140   2.380   4.484  0.1329 -0.3433  0.0321
  161MOL    C5248372   2.184   2.271   4.554  0.4116 -0.9317  0.5267
  161MOL    C5348373   2.239   2.278   4.678 -0.2316 -0.6433 -0.1669
  161MOL    N5448374   2.268   2.396   4.728  0.0597 -0.4560 -0.6339
  161MOL    H5548375   2.447   2.753   4.789  0.4371  0.1394 -0.9826
  161MOL    H5648376   2.438   2.591   4.850 -1.7581 -1.0732  0.1941
  161MOL    H5748377   2.249   2.719   4.663  1.5557 -1.3427 -2.0278
  161MOL    H5848378   2.147   2.592   4.486 -0.4421 -0.8132 -1.0500
  161MOL    H5948379   2.118   2.363   4.380  0.5089 -0.1331 -0.0814
  161MOL    H6048380   2.171   2.177   4.501 -2.8808 -0.5551  0.5360
  161MOL    H6148381   2.282   2.196   4.733 -1.6841 -0.7541  0.8456
  161MOL    C6248382   2.187   2.652   4.859  0.4084 -0.0817 -0.2933
  161MOL    C6348383   2.193   2.780   4.940 -0.0700  0.8022  0.5162
  161MOL    C6448384   2.134   2.899   4.867  0.2739  0.7730 -0.0755
  161MOL    C6548385   2.210   3.016   4.837 -0.5061  0.3291  0.1552
  161MOL    C6648386   2.155   3.124   4.767  0.2910  0.5772  0.4505
  161MOL    C6748387   2.027   3.101   4.719  0.4140 -0.6590  0.1067
  161MOL    C6848388   1.956   2.982   4.747 -0.9398 -0.6620  0.4318
  161MOL    N6948389   2.006   2.887   4.822  0.3428  0.0236  0.1568
  161MOL    H7048390   2.218   2.571   4.925  3.3416  0.8434 -0.4931
  161MOL    H7148391   2.082   2.632   4.834  0.4141 -3.3581  1.9643
  161MOL    H7248392   2.302   2.793   4.947 -0.1613  0.4196  3.4061
  161MOL    H7348393   2.314   3.022   4.866 -0.2331 -0.4618 -0.6198
  161MOL    H7448394   2.204   3.217   4.742 -0.6387  1.7405  2.7343
  161MOL    H7548395   1.974   3.173   4.659 -0.9550 -1.6675  0.0813
  161MOL    H7648396   1.853   2.971   4.718 -1.1044  2.4779 -0.3547
  161MOL    C7748397   2.136   2.766   5.082 -0.2132 -0.6973  0.4190
  161MOL    C7848398   2.186   2.652   5.174 -0.8396 -0.2038 -0.2492
  161MOL    C7948399   2.320   2.681   5.214 -0.6853  0.2261  0.0575
  161MOL    C8048400   2.430   2.595   5.175  0.4690  0.4163  0.9170
  161MOL    C8148401   2.561   2.644   5.204 -0.1820  0.2719 -0.0723
  161MOL    C8248402   2.572   2.758   5.291  0.0736  0.1960 -0.4438
  161MOL    C8348403   2.458   2.827   5.329 -0.2331  0.2116 -0.7343
  161MOL    N8448404   2.335   2.790   5.296  0.2726 -0.8141  0.0606
  161MOL    H8548405   2.031   2.742   5.062 -0.0335 -1.3600  0.2559
  161MOL    H8648406   2.122   2.861   5.134 -1.3184  0.2133 -1.5110
  161MOL    H8748407   2.193   2.557   5.122 -0.8165  0.6868 -1.8987
  161MOL    H8848408   2.412   2.504   5.118 -0.3875  1.6504 -0.8406
  161MOL    H8948409   2.642   2.578   5.178  1.0038  1.2533  1.0870
  161MOL    H9048410   2.663   2.768   5.348  0.8556 -0.2544 -1.6009
  161MOL    H9148411   2.479   2.903   5.403 -0.6372  0.8647 -1.2862
  161MOL    C9248412   2.102   2.610   5.302 -0.2435  0.4990  0.5879
  161MOL    C9348413   1.943   2.586   5.270 -0.0816 -0.2100 -0.5873
  161MOL    C9448414   1.927   2.523   5.130 -0.3309  0.3310  0.4966
  161MOL    C9548415   1.837   2.569   5.028 -0.7696 -0.2547  0.6191
  161MOL    C9648416   1.825   2.509   4.903 -0.2445  0.2161 -0.3259
  161MOL    C9748417   1.913   2.401   4.882  0.6661 -0.1043 -0.1332
  161MOL    C9848418   2.006   2.362   4.978 -0.2512  0.6000  0.1667
  161MOL    N9948419   2.001   2.410   5.101 -0.7319 -0.6971  0.0574
  161MOL   H10048420   2.099   2.677   5.388 -2.8756  0.5555  0.4842
  161MOL   H10148421   2.143   2.512   5.326 -0.8752 -0.4151 -1.9586
  161MOL   H10248422   1.903   2.685   5.250 -2.1148 -0.8515  0.1656
  161MOL   H10348423   1.769   2.650   5.049  0.2280  0.8480 -0.3208
  161MOL   H10448424   1.751   2.542   4.831 -1.8601 -0.4682  0.9918
  161MOL   H10548425   1.912   2.353   4.785  0.0091 -0.2864 -0.0445
  161MOL   H10648426   2.080   2.285   4.961  0.5938  1.2178  0.9438
  161MOL   C10748427   1.866   2.509   5.377  0.5285  0.2692  0.2381
  161MOL   C10848428   1.869   2.573   5.516 -0.2872 -0.1269  0.9143
  161MOL   C10948429   1.809   2.711   5.510  0.8196 -0.5168 -0.8754
  161MOL   C11048430   1.856   2.817   5.594  0.5125 -0.2563  0.4352
  161MOL   C11148431   1.783   2.937   5.591  0.6234  0.6186 -0.1564
  161MOL   C11248432   1.663   2.949   5.517  0.5554  0.2651 -0.4326
  161MOL   C11348433   1.625   2.838   5.440 -0.0280  0.0401  0.5094
  161MOL   N11448434   1.700   2.734   5.430 -0.5576 -0.1858  0.1771
  161MOL   H11548435   1.908   2.409   5.388  0.0624  0.1128  0.5879
  161MOL   H11648436   1.765   2.490   5.342  0.8778  0.1787 -0.7623
  161MOL   H11748437   1.973   2.585   5.547  0.1669 -0.9957 -0.2445
  161MOL   H11848438   1.938   2.807   5.663  1.1304  0.3508 -0.1998
  161MOL   H11948439   1.812   3.020   5.653 -0.2259 -1.2308  2.8154
  161MOL   H12048440   1.595   3.031   5.533  0.8864  0.0656  2.0766
  161MOL   H12148441   1.552   2.859   5.363 -0.7961 -1.5643  0.7767
  161MOL   C12248442   1.784   2.492   5.620  0.3230 -0.5588  0.4402
  161MOL   C12348443   1.804   2.524   5.772  0.5375  0.2263 -0.0851
  161MOL   C12448444   1.671   2.520   5.857 -0.5021 -0.1350  0.4439
  161MOL   C12548445   1.590   2.633   5.875 -0.6048  0.4257  0.9014
  161MOL   C12648446   1.471   2.625   5.945  1.0627  0.0532 -0.2777
  161MOL   C12748447   1.433   2.496   5.982  0.0349  0.6092  0.4272
  161MOL   C12848448   1.515   2.385   5.954 -0.8288 -0.6462 -0.6094
  161MOL   N12948449   1.636   2.397   5.899 -0.2570 -0.8651 -0.4895
  161MOL   H13048450   1.789   2.383   5.623 -1.4228 -0.6276  1.8200
  161MOL   H13148451   1.680   2.520   5.601  0.7918  1.3361  0.5849
  161MOL   H13248452   1.830   2.630   5.773  1.4222  0.0161  0.3580
  161MOL   H13348453   1.627   2.730   5.843  0.7927 -0.5366 -0.4736
  161MOL   H13448454   1.414   2.713   5.972  2.3231  0.8654 -0.2302
  161MOL   H13548455   1.345   2.482   6.042 -1.0770  1.0986 -1.0609
  161MOL   H13648456   1.498   2.284   5.988  1.8617 -1.6103 -1.9747
  161MOL   C13748457   1.925   2.452   5.850  1.1285  0.2423  0.3650
  161MOL   C13848458   2.063   2.470   5.785 -0.6423 -0.2599  0.2292
  161MOL   C13948459   2.102   2.616   5.787  0.5751 -0.4287 -0.2399
  161MOL   C14048460   2.095   2.699   5.903 -0.2109 -0.2179  0.4447
  161MOL   C14148461   2.139   2.827   5.897 -0.1528 -0.1422  0.0954
  161MOL   C14248462   2.176   2.887   5.778 -0.1909 -0.1271 -0.8978
  161MOL   C14348463   2.192   2.796   5.668  0.4562  0.5160 -0.2343
  161MOL   N14448464   2.161   2.667   5.672 -0.8217  0.1368  0.4177
  161MOL   H14548465   1.908   2.345   5.865 -0.2563  0.1197 -1.9359
  161MOL   H14648466   1.931   2.492   5.952 -0.3109  0.4073  0.3942
  161MOL   H14748467   2.044   2.430   5.686  2.0777 -1.7973  0.2625
  161MOL   H14848468   2.050   2.660   5.993 -1.7659  1.7039  0.5170
  161MOL   H14948469   2.123   2.890   5.984  0.5708 -0.2792  0.3339
  161MOL   H15048470   2.205   2.991   5.764  0.7403 -0.4602 -1.5137
  161MOL   H15148471   2.230   2.834   5.575 -1.6505 -1.5241 -1.9892
  161MOL   C15248472   2.172   2.389   5.850  0.4103 -0.2006  0.3268
  161MOL   C15348473   2.192   2.251   5.784 -0.1149  0.0782  0.3119
  161MOL   C15448474   2.242   2.267   5.636  0.1685 -0.4440 -0.3068
  161MOL   C15548475   2.328   2.370   5.597  0.1203  0.9251  0.2355
  161MOL   C15648476   2.361   2.375   5.461 -0.7111  0.5324 -0.0845
  161MOL   C15748477   2.322   2.267   5.375  0.2239 -0.1556 -0.7385
  161MOL   C15848478   2.242   2.162   5.430  0.2407 -0.0170 -0.4242
  161MOL   N15948479   2.199   2.171   5.557  0.7755 -0.0833  0.2573
  161MOL   H16048480   2.152   2.382   5.956  1.1262  4.1651  0.8560
  161MOL   H16148481   2.269   2.439   5.844  0.1258  0.1256 -2.1187
  161MOL   H16248482   2.095   2.202   5.777  0.9874 -2.4140  1.8885
  161MOL   H16348483   2.369   2.446   5.663 -0.5681  0.8140  0.7907
  161MOL   H16448484   2.418   2.453   5.412 -0.1511 -0.7977 -1.6058
  161MOL   H16548485   2.340   2.256   5.269 -1.2074  0.1444 -1.0230
  161MOL   H16648486   2.196   2.080   5.378 -0.8215  0.8802 -0.9100
  161MOL   C16748487   2.279   2.159   5.872  0.4318  0.1975 -0.8436
  161MOL   C16848488   2.275   2.004   5.846 -0.4059 -0.1077  0.2979
  161MOL   C16948489   2.376   1.935   5.937  0.2964  0.1529  0.3107
  161MOL   C17048490   2.489   1.876   5.882  0.7350  0.1154  0.3743
  161MOL   C17148491   2.584   1.819   5.966 -0.1405 -0.9376 -0.0771
  161MOL   C17248492   2.561   1.813   6.105  0.2062  0.0121  0.4860
  161MOL   C17348493   2.445   1.871   6.151 -0.0858 -0.6533 -0.2495
  161MOL   N17448494   2.354   1.933   6.069  0.4145 -0.7616  0.0936
  161MOL   H17548495   2.238   2.171   5.972 -0.6322  0.2982 -1.2892
  161MOL   H17648496   2.379   2.204   5.866 -0.3976  2.1778 -0.3204
  161MOL   H17748497   2.300   1.992   5.741 -1.8143  1.3954 -0.2172
  161MOL   H17848498   2.500   1.888   5.775  0.6500 -0.5697  0.2843
  161MOL   H17948499   2.673   1.775   5.925 -1.3970 -3.1889 -0.4442
  161MOL   H18048500   2.634   1.777   6.176 -1.4741 -3.7372  0.4326
  161MOL   H18148501   2.422   1.874   6.257  0.9387  0.3260 -0.0499
  161MOL   C18248502   2.135   1.944   5.861  0.6002 -0.3392  0.2971
  161MOL   C18348503   2.120   1.790   5.876 -0.6906 -0.4885 -0.0889
  161MOL   C18448504   1.977   1.748   5.892  0.3131  0.3249 -0.2286
  161MOL   C18548505   1.927   1.694   6.015 -0.2668 -0.4164 -0.0408
  161MOL   C18648506   1.795   1.643   6.025  0.2967  0.3606 -0.0309
  161MOL   C18748507   1.717   1.646   5.909 -0.2988  0.1772 -0.0528
  161MOL   C18848508   1.769   1.705   5.792  0.2024 -0.3009  0.2280
  161MOL   N18948509   1.895   1.758   5.783 -0.2417  0.2685 -0.3860
  161MOL   H19048510   2.081   1.974   5.770 -0.2077  0.4994  1.0416
  161MOL   H19148511   2.083   1.992   5.943 -0.0357  1.1775 -0.9677
  161MOL   H19248512   2.175   1.761   5.966 -0.9635 -1.8261 -0.3444
  161MOL   H19348513   1.994   1.691   6.100 -0.5631  0.5077  0.2274
  161MOL   H19448514   1.754   1.603   6.117  2.4180 -0.7540  0.4760
  161MOL   H19548515   1.619   1.601   5.900  0.4200 -1.1543 -1.4974
  161MOL   H19648516   1.712   1.698   5.701 -1.4529  0.6417  1.1601
  161MOL   C19748517   2.188   1.708   5.764  0.5799  0.4104  0.0780
  161MOL   C19848518   2.151   1.560   5.732 -0.0074  0.7580 -0.0956
  161MOL   C19948519   2.182   1.511   5.594 -0.2752  0.6618 -0.9567
  161MOL   C20048520   2.077   1.495   5.503 -1.0021  0.2269  0.3264
  161MOL   C20148521   2.105   1.459   5.367  0.1650  0.8686 -0.2672
  161MOL   C20248522   2.238   1.437   5.334  0.3399 -0.0523 -0.2232
  161MOL   C20348523   2.340   1.460   5.428  0.8134 -0.1975 -0.0674
  161MOL   N20448524   2.314   1.493   5.561  0.2906  0.0211  0.4396
  161MOL   H20548525   2.297   1.708   5.767  0.5243 -0.3361  3.0474
  161MOL   H20648526   2.162   1.772   5.679 -0.5737  1.4727  1.2269
  161MOL   H20748527   2.042   1.559   5.738 -0.0124  0.8525 -0.1596
  161MOL   H20848528   1.978   1.521   5.535 -1.7185 -1.7569 -0.2620
  161MOL   H20948529   2.022   1.444   5.300 -0.3392  2.0851  0.0635
  161MOL   H21048530   2.267   1.407   5.234  0.4263  0.5785 -0.3879
  161MOL   H21148531   2.445   1.445   5.404  1.4554 -0.0049  2.4261
  161MOL   C21248532   2.193   1.462   5.843 -0.4915  0.2805 -0.2659
  161MOL   C21348533   2.178   1.309   5.831  0.3664 -1.0710 -0.7971
  161MOL   C21448534   2.262   1.234   5.936  0.4909  0.3338  0.4856
  161MOL   C21548535   2.382   1.178   5.894 -0.6973 -0.2484  0.0304
  161MOL   C21648536   2.460   1.108   5.989 -0.0305 -0.6047  0.6709
  161MOL   C21748537   2.401   1.079   6.116  0.0786 -0.3447 -0.6141
  161MOL   C21848538   2.272   1.136   6.145  0.6421 -0.5966  0.2680
  161MOL   N21948539   2.209   1.218   6.061  0.0556  0.4088 -0.5059
  161MOL   H22048540   2.151   1.494   5.938 -0.5608 -0.2522 -0.1183
  161MOL   H22148541   2.298   1.484   5.863 -1.4127  3.0231  1.9449
  161MOL   H22248542   2.211   1.287   5.729 -1.3981  1.7097 -2.0118
  161MOL   H22348543   2.421   1.189   5.794  2.4401 -2.3680  0.9152
  161MOL   H22448544   2.550   1.059   5.955 -0.7583 -1.7882  0.4288
  161MOL   H22548545   2.449   1.009   6.182  0.6016  2.9139  2.6131
  161MOL   H22648546   2.233   1.110   6.242  2.1537 -1.3755  0.6766
  161MOL   C22748547   2.034   1.267   5.830  0.3086 -0.4420 -0.4970
  161MOL   C22848548   2.015   1.116   5.831 -0.3557  0.7552  0.5008
  161MOL   C22948549   1.872   1.088   5.847  0.4771  0.2709  0.6683
  161MOL   C23048550   1.821   1.035   5.970  0.3826  0.1396 -0.0678
  161MOL   C23148551   1.689   0.987   5.968 -0.2415 -0.0753  1.1479
  161MOL   C23248552   1.617   0.993   5.852 -0.3344  0.0496  0.4331
  161MOL   C23348553   1.670   1.060   5.741 -0.3360  0.3157 -0.2930
  161MOL   N23448554   1.795   1.108   5.739  0.8112 -0.3009  0.6265
  161MOL   H23548555   1.977   1.332   5.764  0.8455  0.3591 -0.1921
  161MOL   H23648556   2.005   1.303   5.929 -1.4460  1.7311 -1.7521
  161MOL   H23748557   2.062   1.062   5.914 -1.4458 -0.4073  0.3865
  161MOL   H23848558   1.872   1.033   6.065  1.9364 -1.4081 -0.9091
  161MOL   H23948559   1.663   0.936   6.060  1.7077 -0.6861  1.3943
  161MOL   H24048560   1.515   0.960   5.837 -0.4748  0.4765  0.4582
  161MOL   H24148561   1.614   1.064   5.649  2.4141  2.7485 -1.9159
  161MOL   C24248562   2.071   1.052   5.694  0.0533 -0.3205 -0.7563
  161MOL   C24348563   2.071   0.900   5.686 -0.4683 -0.0738  0.0355
  161MOL   C24448564   2.086   0.855   5.541  0.5858 -0.0363 -0.5239
  161MOL   C24548565   1.984   0.785   5.474 -0.3608  0.9537  0.1236
  161MOL   C24648566   2.003   0.737   5.345 -0.6749 -0.4280  0.4672
  161MOL   C24748567   2.129   0.748   5.291 -0.0901  0.1253 -0.2841
  161MOL   C24848568   2.220   0.838   5.359  0.0514  0.1186  0.2673
  161MOL   N24948569   2.198   0.887   5.478 -0.9057 -0.1723 -0.2817
  161MOL   H25048570   2.175   1.077   5.670  0.4144 -0.2797  0.7892
  161MOL   H25148571   2.019   1.094   5.609  0.9930  2.0478 -0.2156
  161MOL   H25248572   1.976   0.860   5.720 -1.0754  1.2758 -0.0479
  161MOL   H25348573   1.886   0.768   5.516 -1.2915 -0.6140 -2.5650
  161MOL   H25448574   1.928   0.675   5.299  1.8218 -0.5952 -3.6588
  161MOL   H25548575   2.147   0.701   5.195 -0.5694 -0.2680 -0.1800
  161MOL   H25648576   2.311   0.870   5.310 -1.8259  1.5467 -2.4490
  161MOL   C25748577   2.176   0.833   5.778 -0.3335 -0.6886  0.4534
  161MOL   C25848578   2.190   0.677   5.757 -0.3299  0.1053 -0.4008
  161MOL   C25948579   2.325   0.619   5.809  0.2812 -0.0349  0.3524
  161MOL   C26048580   2.422   0.557   5.726 -0.2942  0.2339 -0.1487
  161MOL   C26148581   2.531   0.493   5.798  0.3919 -0.0004  0.3889
  161MOL   C26248582   2.541   0.496   5.939 -0.2699 -0.2088  0.5122
  161MOL   C26348583   2.441   0.563   6.005 -0.1791 -0.8478  0.1493
  161MOL   N26448584   2.331   0.614   5.946 -0.4959 -0.0736  0.2802
  161MOL   H26548585   2.159   0.868   5.880 -0.2556  1.6242 -0.3062
  161MOL   H26648586   2.272   0.876   5.750 -0.6730 -1.1702 -1.4804
  161MOL   H26748587   2.205   0.658   5.651  1.6270 -2.3542  0.2600
  161MOL   H26848588   2.422   0.550   5.619  1.0635  0.4925 -0.1827
  161MOL   H26948589   2.601   0.443   5.732  0.4856  2.6086 -1.5722
  161MOL   H27048590   2.621   0.451   5.995 -1.8555 -1.4514  1.8382
  161MOL   H27148591   2.453   0.571   6.112 -0.4980 -0.2203  0.1372
  161MOL   C27248592   2.058   0.593   5.791 -0.1132  0.1641  0.2616
  161MOL   C27348593   2.066   0.441   5.776 -0.0636  0.1173 -0.1685
  161MOL   C27448594   1.953   0.376   5.858  0.0367  0.3073 -0.4372
  161MOL   C27548595   1.975   0.240   5.895  0.3431 -0.3790 -0.5626
  161MOL   C27648596   1.871   0.168   5.949 -0.1812  0.4499  0.0978
  161MOL   C27748597   1.747   0.232   5.968 -0.2112 -0.3036  0.1418
  161MOL   C27848598   1.735   0.368   5.941  0.1005 -0.2978  1.0109
  161MOL   N27948599   1.837   0.438   5.884  0.1910 -0.1361  0.2709
  161MOL   H28048600   1.981   0.637   5.729 -0.9397 -2.2887 -0.5132
  161MOL   H28148601   2.048   0.603   5.899 -1.4813  0.1997  0.1386
  161MOL   H28248602   2.155   0.421   5.837 -0.2312  0.7279  0.2715
  161MOL   H28348603   2.064   0.186   5.866  0.2386 -1.8228  1.7200
  161MOL   H28448604   1.875   0.063   5.974  1.2778  0.4277 -0.2030
  161MOL   H28548605   1.660   0.174   5.996  0.7323 -0.1223  3.7138
  161MOL   H28648606   1.640   0.417   5.958 -0.2471 -0.7111  0.2999
  161MOL   C28748607   2.079   0.375   5.637 -0.1551  0.0267  0.1061
  161MOL   C28848608   1.953   0.355   5.556 -0.2746  0.0564  0.2425
  161MOL   C28948609   1.979   0.339   5.412  0.0125 -0.6195  1.1156
  161MOL   C29048610   2.060   0.229   5.376  0.5400 -0.0801 -0.0847
  161MOL   C29148611   2.085   0.210   5.240 -0.3278  0.2746  1.0640
  161MOL   C29248612   2.020   0.287   5.144 -0.0737  0.3431 -0.0634
  161MOL   C29348613   1.954   0.399   5.197 -0.7168 -0.3930 -0.3622
  161MOL   N29448614   1.931   0.427   5.325 -0.6594 -0.1735  0.4449
  161MOL   H29548615   2.129   0.279   5.644 -0.1779 -0.1524 -1.7743
  161MOL   H29648616   2.154   0.429   5.579  0.0777 -0.1895  0.2052
  161MOL   H29748617   1.896   0.447   5.573 -1.5214 -0.4777 -0.9547
  161MOL   H29848618   2.117   0.180   5.454 -1.4810 -0.0993  1.4156
  161MOL   H29948619   2.145   0.127   5.206 -2.1636 -0.2030 -1.1143
  161MOL   H30048620   2.036   0.260   5.041 -0.5106 -1.6996  0.3596
  161MOL   H30148621   1.924   0.477   5.129 -0.4226  0.2460  0.2485
  161MOL   H30248622   1.899   0.263   5.579  0.8773 -0.9355 -0.9631
  162MOL     C148623   4.692   7.806   7.961 -0.3275  0.0676  0.3458
  162MOL     C248624   4.838   7.857   7.985 -0.1585  0.0330 -0.0338
  162MOL     C348625   4.847   7.918   8.124  0.2286 -0.1026  0.2727
  162MOL     C448626   4.789   7.860   0.086  0.4897 -0.4051 -0.0186
  162MOL     C548627   4.791   7.931   0.202  0.0398 -0.0078 -0.1908
  162MOL     C648628   4.843   8.061   0.208  0.0413 -0.3281  0.1864
  162MOL     C748629   4.905   8.115   0.090 -0.4071  0.3049  0.5371
  162MOL     N848630   4.901   8.042   8.126 -0.0049 -0.1515 -0.0015
  162MOL     H948631   4.619   7.884   7.982 -1.3726 -1.5149  2.8737
  162MOL    H1048632   4.689   7.778   7.856 -0.4271 -2.8602  1.1075
  162MOL    H1148633   4.848   7.939   7.915 -0.1183 -0.2764 -0.3871
  162MOL    H1248634   4.755   7.758   0.098  0.4236 -0.2540  1.2071
  162MOL    H1348635   4.730   7.909   0.289  0.0255 -0.9931 -0.4478
  162MOL    H1448636   4.824   8.128   0.291 -0.0723 -0.9912  0.6964
  162MOL    H1548637   4.952   0.060   0.088  0.8740 -0.2874  1.6101
  162MOL    H1648638   4.677   7.718   8.023 -0.7849 -0.6201 -0.7367
  162MOL    C1748639   4.941   7.749   7.966  0.2157 -0.5357  0.1175
  162MOL    C1848640   4.957   7.677   7.830  0.3124  0.6616 -0.0666
  162MOL    C1948641   5.016   7.767   7.716  0.3495 -0.0394  0.1052
  162MOL    C2048642   4.939   7.787   7.596  0.4119 -0.0829 -0.2844
  162MOL    C2148643   4.991   7.880   7.502  0.1551 -0.2854 -0.1920
  162MOL    C2248644   5.111   7.950   7.531  0.4861  0.2606 -0.1667
  162MOL    C2348645   5.177   7.921   7.651 -0.3882 -0.0549 -0.0811
  162MOL    N2448646   5.133   7.827   7.735 -0.0821 -0.6094 -0.0616
  162MOL    H2548647   4.928   7.669   8.038 -2.7912 -1.2186 -1.0802
  162MOL    H2648648   5.040   7.788   7.989 -0.4491  0.6980  0.9130
  162MOL    H2748649   4.855   7.654   7.800  0.3293 -0.3317  0.5976
  162MOL    H2848650   4.844   7.738   7.587 -0.6940  1.8181  0.5119
  162MOL    H2948651   4.933   7.915   7.418  0.7097 -1.0697 -0.9101
  162MOL    H3048652   5.147   8.028   7.466  1.3392 -0.4064 -0.4935
  162MOL    H3148653   5.271   7.967   7.680 -0.0184 -0.5106 -0.5516
  162MOL    C3248654   5.041   7.548   7.842  0.0109 -0.8293  1.2840
  162MOL    C3348655   4.950   7.428   7.863 -0.4662 -0.8097 -0.0581
  162MOL    C3448656   4.835   7.416   7.756 -0.0568  0.3664 -0.2821
  162MOL    C3548657   4.868   7.430   7.620  0.0267  0.1227 -0.4185
  162MOL    C3648658   4.755   7.408   7.533 -0.2367  0.0829 -0.2961
  162MOL    C3748659   4.625   7.379   7.578  1.0165  0.0239 -0.4096
  162MOL    C3848660   4.608   7.369   7.716 -0.0665 -0.4730  0.1241
  162MOL    N3948661   4.707   7.400   7.801  0.4502 -0.2402  0.5894
  162MOL    H4048662   5.123   7.551   7.913  1.0156  2.7615  0.0607
  162MOL    H4148663   5.096   7.532   7.749 -2.6653  0.3215 -0.5490
  162MOL    H4248664   4.898   7.450   7.956 -1.5598 -0.9782 -0.6155
  162MOL    H4348665   4.964   7.465   7.583 -0.8026  2.0618 -0.8273
  162MOL    H4448666   4.772   7.410   7.427  2.1451 -0.6489  0.0280
  162MOL    H4548667   4.546   7.359   7.507  1.4928 -0.0528 -0.9218
  162MOL    H4648668   4.514   7.350   7.766 -0.5483  0.8723 -0.2389
  162MOL    C4748669   5.023   7.295   7.885  0.7209  0.0258  0.4947
  162MOL    C4848670   4.943   7.157   7.863 -0.0809  0.0011 -0.6177
  162MOL    C4948671   4.965   7.111   7.721 -1.3813  0.0007  0.6653
  162MOL    C5048672   4.871   7.118   7.620 -0.0419  0.1111  0.1960
  162MOL    C5148673   4.900   7.062   7.494 -0.0177 -0.2648  0.3214
  162MOL    C5248674   5.027   7.001   7.476 -0.6551 -0.7227 -0.4679
  162MOL    C5348675   5.112   6.988   7.587  0.6737 -0.1541  0.1215
  162MOL    N5448676   5.081   7.049   7.697 -0.5386  0.3830 -0.0775
  162MOL    H5548677   5.075   7.297   7.981  1.2771  0.1505  0.1941
  162MOL    H5648678   5.114   7.291   7.824 -0.0621 -1.8543 -0.6064
  162MOL    H5748679   4.834   7.166   7.860 -0.3819 -2.7800  0.4671
  162MOL    H5848680   4.776   7.164   7.641  0.2445  1.2904 -1.0237
  162MOL    H5948681   4.844   7.069   7.402  1.5517  1.3128 -0.5709
  162MOL    H6048682   5.057   6.952   7.385  0.3406 -0.3044 -0.3695
  162MOL    H6148683   5.206   6.937   7.574  0.9799  0.5490 -0.5005
  162MOL    C6248684   4.963   7.043   7.957 -0.2864  1.1034 -0.5744
  162MOL    C6348685   4.854   6.925   7.938  0.0580  0.4924 -0.0739
  162MOL    C6448686   4.913   6.811   8.015 -0.3176  0.0477 -0.6898
  162MOL    C6548687   4.998   6.711   7.959 -0.4706 -0.7496  0.3731
  162MOL    C6648688   5.042   6.601   8.032 -0.0966 -0.3405 -0.2440
  162MOL    C6748689   5.005   6.591   0.014 -0.0181  0.3241  0.1246
  162MOL    C6848690   4.933   6.698   0.071  0.4287  0.2175 -0.6586
  162MOL    N6948691   4.893   6.808   8.149  0.3692 -0.4134 -0.1688
  162MOL    H7048692   4.966   7.067   8.063  1.2471  0.2021 -0.3964
  162MOL    H7148693   5.057   6.990   7.939 -0.5392 -0.1952  1.8166
  162MOL    H7248694   4.846   6.901   7.832  1.0801 -0.2894  0.0159
  162MOL    H7348695   5.033   6.722   7.857 -0.0196 -0.8732  0.5114
  162MOL    H7448696   5.109   6.531   7.985  0.1625  0.9325 -1.8385
  162MOL    H7548697   5.027   6.508   0.079 -0.6870 -0.0246 -0.0915
  162MOL    H7648698   4.919   6.715   0.177 -2.3126 -1.0910 -0.7675
  162MOL    C7748699   4.708   6.973   7.986  0.1045 -0.4369  0.4610
  162MOL    C7848700   4.602   6.884   7.922 -0.5250 -0.5101  1.0774
  162MOL    C7948701   4.491   6.864   8.020 -0.1913  0.5164 -0.5844
  162MOL    C8048702   4.405   6.971   8.049 -0.9917 -0.7638  0.2001
  162MOL    C8148703   4.306   6.960   8.147 -0.0263 -0.2628  0.5939
  162MOL    C8248704   4.312   6.845   0.072  1.6380 -0.7909  0.5243
  162MOL    C8348705   4.401   6.740   0.036  0.0159  0.1251 -0.7634
  162MOL    N8448706   4.484   6.748   8.085 -0.0398 -0.0407 -0.0766
  162MOL    H8548707   4.687   7.078   7.964  0.0911 -0.3332  0.9596
  162MOL    H8648708   4.708   6.970   8.095  1.3757 -0.1092  0.4735
  162MOL    H8748709   4.658   6.791   7.916 -0.6295 -0.7510  3.4746
  162MOL    H8848710   4.414   7.056   7.983  1.8238 -0.7294  0.5616
  162MOL    H8948711   4.229   7.033   0.011 -1.3136 -0.8526 -2.6119
  162MOL    H9048712   4.243   6.843   0.155 -0.0601 -0.8917 -0.8493
  162MOL    H9148713   4.417   6.646   0.087 -1.3595 -0.7017 -1.8145
  162MOL    C9248714   4.567   6.943   7.775 -0.8946 -0.2304 -0.0160
  162MOL    C9348715   4.470   6.850   7.704 -0.4236 -0.2364 -0.3210
  162MOL    C9448716   4.321   6.876   7.731 -0.4972  0.2346  0.2561
  162MOL    C9548717   4.256   6.768   7.791  0.3442 -0.7110 -0.3981
  162MOL    C9648718   4.117   6.779   7.811  0.1694 -0.3672  0.5225
  162MOL    C9748719   4.051   6.900   7.782  0.4930  0.0802  0.3234
  162MOL    C9848720   4.133   7.006   7.742 -0.2336 -0.9519  0.2167
  162MOL    N9948721   4.267   6.997   7.714  0.8017  0.5414  0.3728
  162MOL   H10048722   4.662   6.955   7.724 -2.3375  1.2498 -2.4939
  162MOL   H10148723   4.517   7.040   7.780 -1.1131 -0.4167  1.5236
  162MOL   H10248724   4.503   6.753   7.742  1.3311  0.7255  0.6638
  162MOL   H10348725   4.297   6.671   7.816  0.4864 -0.6655 -0.4540
  162MOL   H10448726   4.050   6.702   7.846 -0.0156 -0.5710 -0.2797
  162MOL   H10548727   3.946   6.915   7.802  0.2504  0.6645 -1.3072
  162MOL   H10648728   4.098   7.106   7.720  1.8059  0.1555  1.8128
  162MOL   C10748729   4.508   6.832   7.559  0.1741  0.7371 -0.2696
  162MOL   C10848730   4.409   6.753   7.468  0.7041 -0.5510 -0.4517
  162MOL   C10948731   4.459   6.762   7.317  0.1176 -0.0985 -0.2770
  162MOL   C11048732   4.376   6.806   7.222  0.1747 -0.0639  0.1706
  162MOL   C11148733   4.411   6.822   7.091 -0.3505  0.7570  0.0105
  162MOL   C11248734   4.538   6.766   7.054 -0.0545 -0.5331 -0.0108
  162MOL   C11348735   4.617   6.712   7.157  0.0812 -0.0435 -0.6533
  162MOL   N11448736   4.581   6.719   7.287 -0.1850  0.3777  0.2697
  162MOL   H11548737   4.606   6.788   7.539  0.7095  1.1660  1.3517
  162MOL   H11648738   4.511   6.932   7.515  0.3262  0.4533 -0.9121
  162MOL   H11748739   4.313   6.804   7.478  1.0035 -0.2653  1.1260
  162MOL   H11848740   4.274   6.822   7.252  0.7842  1.5547  1.4372
  162MOL   H11948741   4.340   6.849   7.014 -0.8651  1.8519  0.8578
  162MOL   H12048742   4.568   6.763   6.951  0.7543 -2.7571  0.2504
  162MOL   H12148743   4.717   6.677   7.136  1.8502  3.8178  1.0504
  162MOL   C12248744   4.385   6.601   7.501  0.6513  0.7687 -0.4535
  162MOL   C12348745   4.503   6.504   7.522 -0.0094  0.9966  0.0239
  162MOL   C12448746   4.571   6.518   7.654 -0.0914 -0.1360  0.2659
  162MOL   C12548747   4.708   6.549   7.666 -0.6246  0.1996  0.4179
  162MOL   C12648748   4.766   6.550   7.793  0.1323 -0.0268  0.3462
  162MOL   C12748749   4.687   6.522   7.905 -0.6687  0.0129 -0.1314
  162MOL   C12848750   4.554   6.484   7.885 -0.2710  0.1060  0.1980
  162MOL   N12948751   4.498   6.486   7.763  0.2450  0.4178  0.6406
  162MOL   H13048752   4.341   6.563   7.409  0.7746 -0.6906  0.0766
  162MOL   H13148753   4.311   6.588   7.579 -1.2594 -0.2646 -2.3725
  162MOL   H13248754   4.573   6.532   7.444  0.5193  1.5944  0.7101
  162MOL   H13348755   4.771   6.569   7.581  0.1926 -2.5167  0.3281
  162MOL   H13448756   4.870   6.579   7.801  0.1193  0.3847 -0.8483
  162MOL   H13548757   4.724   6.522   8.006 -1.0280 -2.5253  0.0273
  162MOL   H13648758   4.487   6.464   7.967 -0.9451 -1.4830 -0.7335
  162MOL   C13748759   4.473   6.358   7.492 -0.3920 -0.0453 -0.1288
  162MOL   C13848760   4.592   6.259   7.472 -0.5150 -0.6017  0.0936
  162MOL   C13948761   4.549   6.119   7.504  0.4683  0.0852 -0.3436
  162MOL   C14048762   4.612   6.044   7.603 -0.1629 -0.4644 -0.3665
  162MOL   C14148763   4.570   5.913   7.629  0.4443 -0.7352 -0.7211
  162MOL   C14248764   4.466   5.852   7.546 -0.3047  0.1280 -0.2136
  162MOL   C14348765   4.415   5.935   7.444 -0.5498  0.4564  0.1159
  162MOL   N14448766   4.445   6.066   7.430 -0.1022 -0.0048  0.1194
  162MOL   H14548767   4.414   6.354   7.400 -0.0574  0.7997 -0.3821
  162MOL   H14648768   4.417   6.313   7.575 -1.4621  1.5220  0.0123
  162MOL   H14748769   4.664   6.290   7.547 -0.4345  0.3327 -0.3658
  162MOL   H14848770   4.706   6.071   7.649  0.7468 -3.9672 -0.0420
  162MOL   H14948771   4.627   5.862   7.705 -0.0607 -0.4737 -0.1635
  162MOL   H15048772   4.429   5.750   7.549 -1.4348  0.4381 -2.7688
  162MOL   H15148773   4.349   5.893   7.370 -1.0919  1.5690 -0.0429
  162MOL   C15248774   4.657   6.288   7.340 -0.2562 -0.1027  0.0733
  162MOL   C15348775   4.771   6.193   7.296  0.0295  0.9048  0.7987
  162MOL   C15448776   4.807   6.212   7.147  0.5089 -0.1163  0.8217
  162MOL   C15548777   4.813   6.095   7.062 -0.1231  0.3641  0.4643
  162MOL   C15648778   4.849   6.118   6.929  0.3768  0.2170 -0.5831
  162MOL   C15748779   4.866   6.252   6.886 -0.2814 -0.4336  0.3146
  162MOL   C15848780   4.863   6.358   6.977 -0.3047 -0.7181 -0.0721
  162MOL   N15948781   4.833   6.341   7.107  0.2851  0.0452  0.2794
  162MOL   H16048782   4.696   6.390   7.345 -2.3249  0.6285  2.8075
  162MOL   H16148783   4.589   6.284   7.255  0.8631 -0.6314 -0.7958
  162MOL   H16248784   4.722   6.096   7.305  0.7368  0.4340 -0.3490
  162MOL   H16348785   4.803   5.998   7.107 -1.6114  0.3952  0.2407
  162MOL   H16448786   4.857   6.039   6.855 -1.2869  1.3151 -1.9752
  162MOL   H16548787   4.884   6.269   6.781  0.6116 -0.8851  0.3902
  162MOL   H16648788   4.862   6.461   6.947 -1.4696 -0.9155 -0.7832
  162MOL   C16748789   4.881   6.193   7.397 -0.0366  0.6790 -0.0032
  162MOL   C16848790   5.013   6.119   7.360  0.1779 -0.8098 -0.4125
  162MOL   C16948791   5.115   6.220   7.304 -0.0578 -0.3702  0.0440
  162MOL   C17048792   5.143   6.243   7.168  0.1567  0.1593  0.0893
  162MOL   C17148793   5.241   6.337   7.133  0.4338  0.4182  0.0360
  162MOL   C17248794   5.319   6.392   7.239 -0.6164 -0.5866  0.2962
  162MOL   C17348795   5.280   6.372   7.372 -0.1555  0.1326  0.9317
  162MOL   N17448796   5.176   6.289   7.403  0.3484 -0.0339  0.0607
  162MOL   H17548797   4.842   6.138   7.483 -0.2739 -1.5091 -1.4486
  162MOL   H17648798   4.896   6.290   7.443 -1.0697  1.5392 -1.4373
  162MOL   H17748799   4.996   6.058   7.271 -1.0635 -0.5915 -0.3283
  162MOL   H17848800   5.084   6.191   7.094 -2.4875 -0.1569  2.2959
  162MOL   H17948801   5.257   6.357   7.028  0.6804  0.0518  0.0021
  162MOL   H18048802   5.398   6.463   7.219 -0.7374 -0.0161  1.8184
  162MOL   H18148803   5.339   6.417   7.450  1.7351 -2.5799  1.1650
  162MOL   C18248804   5.069   6.041   7.478 -0.1165  0.0605  0.4505
  162MOL   C18348805   4.998   5.906   7.504  0.3266 -0.3471 -0.4435
  162MOL   C18448806   4.970   5.828   7.379 -0.3131 -0.3139  0.0033
  162MOL   C18548807   4.842   5.806   7.335  0.5345  0.2360  0.3321
  162MOL   C18648808   4.820   5.728   7.218 -0.2151  0.0103  0.2611
  162MOL   C18748809   4.931   5.672   7.147 -0.0841  0.0748 -0.1262
  162MOL   C18848810   5.065   5.693   7.202  0.3330 -0.1490 -0.0255
  162MOL   N18948811   5.079   5.771   7.315 -0.5169 -0.2458  0.7867
  162MOL   H19048812   5.077   6.108   7.563  1.8368  0.4961 -0.0615
  162MOL   H19148813   5.173   6.024   7.451 -0.3807  1.3493 -1.5070
  162MOL   H19248814   4.900   5.934   7.545  0.7698 -0.5972  0.8040
  162MOL   H19348815   4.759   5.852   7.386  1.3269  1.2708  0.6917
  162MOL   H19448816   4.721   5.714   7.178  0.3410 -1.5788 -0.6083
  162MOL   H19548817   4.919   5.612   7.058  0.1222  0.9665 -0.7610
  162MOL   H19648818   5.157   5.655   7.160 -0.0367  0.6216 -1.5431
  162MOL   C19748819   5.067   5.828   7.618 -0.6968 -0.0302  0.0180
  162MOL   C19848820   5.010   5.687   7.666 -0.8736 -0.4770 -0.2356
  162MOL   C19948821   5.102   5.643   7.778 -0.2385  0.0035 -0.3223
  162MOL   C20048822   5.123   5.715   7.898  0.1475 -0.2710  0.4563
  162MOL   C20148823   5.208   5.662   7.991  0.0898 -0.1562 -0.7382
  162MOL   C20248824   5.278   5.538   7.967  0.5880 -0.4926  0.4810
  162MOL   C20348825   5.238   5.475   7.851  0.5312  0.1688 -0.8064
  162MOL   N20448826   5.164   5.528   7.750  0.3968 -0.7172 -0.4937
  162MOL   H20548827   5.057   5.891   7.707  0.5926 -1.9727  1.5980
  162MOL   H20648828   5.172   5.818   7.594 -0.8953  0.2420 -0.9829
  162MOL   H20748829   5.031   5.619   7.584 -0.9283  0.8084 -1.3282
  162MOL   H20848830   5.071   5.808   7.919  2.0921  1.2801 -1.3317
  162MOL   H20948831   5.228   5.716   8.082 -0.2864  0.1787 -0.8529
  162MOL   H21048832   5.341   5.495   8.043  0.4982 -1.5383 -0.0171
  162MOL   H21148833   5.271   5.375   7.823 -3.0790 -0.8849 -1.5117
  162MOL   C21248834   4.859   5.692   7.702  0.2228  0.0968 -0.0930
  162MOL   C21348835   4.782   5.550   7.669 -0.0803 -0.7095 -0.8139
  162MOL   C21448836   4.668   5.516   7.769 -0.1596 -0.3904  0.1320
  162MOL   C21548837   4.646   5.387   7.825  0.0004  0.2234 -0.2521
  162MOL   C21648838   4.531   5.361   7.900 -0.7048 -1.1326 -0.3707
  162MOL   C21748839   4.440   5.464   7.905 -0.2203 -0.9985 -0.3563
  162MOL   C21848840   4.466   5.589   7.846 -0.3518  0.5856 -0.9120
  162MOL   N21948841   4.577   5.612   7.779 -0.0065  0.4014  0.1209
  162MOL   H22048842   4.807   5.764   7.639 -1.6223 -0.6483  0.5270
  162MOL   H22148843   4.848   5.723   7.806  0.8352 -0.2784  0.0905
  162MOL   H22248844   4.853   5.469   7.685 -0.7210 -1.2021 -0.4210
  162MOL   H22348845   4.710   5.302   7.806 -0.2346 -0.1011  0.3934
  162MOL   H22448846   4.512   5.267   7.949  0.3280 -0.9539  0.3993
  162MOL   H22548847   4.350   5.450   7.964 -0.6944  2.0447 -0.2496
  162MOL   H22648848   4.394   5.668   7.863 -1.8966 -1.1212  0.5490
  162MOL   C22748849   4.744   5.536   7.518 -0.1572  0.4153  0.0226
  162MOL   C22848850   4.712   5.397   7.470  0.4137 -0.3289 -0.8595
  162MOL   C22948851   4.558   5.386   7.454 -0.0284  0.5893 -0.3785
  162MOL   C23048852   4.487   5.296   7.537 -0.2793 -0.5396 -0.1122
  162MOL   C23148853   4.347   5.315   7.537 -0.5650  0.0665  0.1407
  162MOL   C23248854   4.283   5.403   7.450 -0.6249  0.4324  1.1413
  162MOL   C23348855   4.367   5.490   7.370 -0.3946 -0.2140 -0.0452
  162MOL   N23448856   4.500   5.475   7.367 -0.0403 -0.0115  0.1156
  162MOL   H23548857   4.834   5.572   7.468  1.0563 -0.3669  1.6135
  162MOL   H23648858   4.667   5.610   7.496 -0.2246  0.1037 -0.7958
  162MOL   H23748859   4.741   5.328   7.549 -0.0955 -1.2502 -1.4723
  162MOL   H23848860   4.532   5.232   7.611 -0.2402  0.6964  0.9589
  162MOL   H23948861   4.282   5.261   7.604 -1.9201  1.2326 -0.2018
  162MOL   H24048862   4.175   5.402   7.447 -0.6439 -1.1183  1.5649
  162MOL   H24148863   4.331   5.575   7.313 -1.0110 -0.6814 -0.3499
  162MOL   C24248864   4.786   5.364   7.337 -0.1208 -0.2013 -0.4952
  162MOL   C24348865   4.939   5.331   7.362  1.0094  0.0544  0.4853
  162MOL   C24448866   4.959   5.231   7.467 -0.1765 -0.0326 -0.2192
  162MOL   C24548867   5.024   5.255   7.589 -0.0210  0.0655  0.7009
  162MOL   C24648868   5.039   5.148   7.681  0.6748  0.4968  0.1842
  162MOL   C24748869   4.972   5.029   7.651 -0.0900  0.4762  0.4345
  162MOL   C24848870   4.904   5.022   7.532  0.1814 -0.8967  0.3261
  162MOL   N24948871   4.896   5.115   7.440  0.1199 -0.1621 -0.3255
  162MOL   H25048872   4.781   5.434   7.254 -1.0871  1.1677  0.7045
  162MOL   H25148873   4.747   5.270   7.298  0.4098 -1.5898  2.2011
  162MOL   H25248874   4.985   5.422   7.402  3.0630 -0.2272 -1.1607
  162MOL   H25348875   5.067   5.351   7.612  0.3247 -0.4640  2.3158
  162MOL   H25448876   5.096   5.161   7.771  2.6625 -1.0406 -0.8213
  162MOL   H25548877   4.992   4.945   7.717  0.6552 -0.5522 -1.0847
  162MOL   H25648878   4.838   4.937   7.524 -1.1916  0.3429 -2.1749
  162MOL   C25748879   5.017   5.300   7.238  0.3308  0.6477 -0.3101
  162MOL   C25848880   5.171   5.288   7.261  0.0999 -0.8005  0.6014
  162MOL   C25948881   5.237   5.217   7.148 -0.1712  0.8529 -0.3449
  162MOL   C26048882   5.310   5.103   7.171  0.1007 -0.7606  0.4450
  162MOL   C26148883   5.353   5.027   7.062 -0.2778 -0.1990  0.2790
  162MOL   C26248884   5.340   5.081   6.930  0.2651  0.4827 -0.4737
  162MOL   C26348885   5.275   5.201   6.917 -0.3229 -0.3404 -0.7781
  162MOL   N26448886   5.229   5.269   7.025 -0.2244 -0.1320  0.0115
  162MOL   H26548887   4.994   5.371   7.159 -1.5914  0.0147 -0.3513
  162MOL   H26648888   4.975   5.205   7.205 -2.1858  1.5180  0.2891
  162MOL   H26748889   5.183   5.218   7.344  0.7845 -0.5594  0.7071
  162MOL   H26848890   5.323   5.061   7.270 -0.6607 -2.1367 -0.0193
  162MOL   H26948891   5.410   4.937   7.080 -0.5465 -0.5322 -0.5066
  162MOL   H27048892   5.383   5.013   6.858  0.6867  0.8791 -0.5994
  162MOL   H27148893   5.265   5.255   6.824  0.2585  1.0558 -0.0345
  162MOL   C27248894   5.245   5.422   7.289  0.2789  0.0066 -0.2033
  162MOL   C27348895   5.384   5.401   7.346  0.0183 -0.3591  0.1309
  162MOL   C27448896   5.482   5.490   7.272 -0.5648 -0.3906 -0.2530
  162MOL   C27548897   5.587   5.434   7.203 -0.0790 -0.3930  0.9112
  162MOL   C27648898   5.676   5.518   7.132  0.9424  0.3147 -0.1170
  162MOL   C27748899   5.640   5.647   7.120 -0.0188 -0.2279 -0.9727
  162MOL   C27848900   5.535   5.701   7.196  0.7012  0.5255  0.2437
  162MOL   N27948901   5.456   5.618   7.275  0.1038 -0.0602  0.2822
  162MOL   H28048902   5.180   5.484   7.351  0.9868 -0.1744  0.7298
  162MOL   H28148903   5.264   5.456   7.186  0.7925 -0.5704 -0.3026
  162MOL   H28248904   5.407   5.296   7.330  0.8685  0.1451 -2.0690
  162MOL   H28348905   5.598   5.327   7.201  2.2669 -0.1983  1.5452
  162MOL   H28448906   5.746   5.469   7.067 -0.1416  1.2834 -2.0471
  162MOL   H28548907   5.702   5.712   7.059 -2.6640  1.0151 -2.4354
  162MOL   H28648908   5.512   5.807   7.198 -1.2495  0.1425 -0.7889
  162MOL   C28748909   5.381   5.419   7.499  0.6752 -0.0425 -0.5071
  162MOL   C28848910   5.524   5.401   7.570 -0.1499 -0.1837  0.0986
  162MOL   C28948911   5.597   5.278   7.531 -0.5419 -0.1855 -1.0198
  162MOL   C29048912   5.740   5.274   7.533 -0.2432 -0.4701 -0.1063
  162MOL   C29148913   5.806   5.146   7.519 -0.4986 -0.0435 -0.1862
  162MOL   C29248914   5.724   5.040   7.499 -0.4659 -0.1401 -0.3083
  162MOL   C29348915   5.584   5.050   7.492 -0.3044  0.1276  0.3810
  162MOL   N29448916   5.527   5.169   7.523  0.0413  0.5212  0.8014
  162MOL   H29548917   5.313   5.344   7.539 -1.1713  1.4889 -0.6906
  162MOL   H29648918   5.341   5.516   7.529  1.0817 -0.8454  2.8372
  162MOL   H29748919   5.517   5.406   7.679  2.1872  1.3370  0.2150
  162MOL   H29848920   5.796   5.366   7.536 -0.6985 -0.1729 -0.7381
  162MOL   H29948921   5.913   5.135   7.524 -0.2601  1.8699 -0.4967
  162MOL   H30048922   5.776   4.947   7.486  1.3763  1.0681 -1.8736
  162MOL   H30148923   5.518   4.965   7.477 -0.5039  0.7433 -2.7034
  162MOL   H30248924   5.587   5.489   7.556 -1.2785  0.3915 -1.5619
  163MOL     C148925   1.055   4.373   3.025  0.2506  0.7588 -0.3712
  163MOL     C248926   1.198   4.436   3.014  0.2756 -0.0135 -0.1808
  163MOL     C348927   1.285   4.363   3.124 -0.3118  0.2601  0.2361
  163MOL     C448928   1.324   4.438   3.235  0.4479 -0.2047 -0.2549
  163MOL     C548929   1.395   4.377   3.338  0.0315 -0.3941  0.1467
  163MOL     C648930   1.428   4.246   3.321 -0.5124  0.3172 -0.2114
  163MOL     C748931   1.386   4.173   3.207 -0.1375  0.0014 -0.0798
  163MOL     N848932   1.308   4.229   3.105 -0.1005  0.0629 -0.9372
  163MOL     H948933   1.026   4.396   3.127  1.0213  2.4558 -0.5140
  163MOL    H1048934   0.985   4.412   2.951  1.3403 -1.0042 -2.3721
  163MOL    H1148935   1.183   4.541   3.038 -0.3073 -0.3613  1.0172
  163MOL    H1248936   1.300   4.543   3.241 -1.5920 -0.7765  3.5987
  163MOL    H1348937   1.413   4.434   3.427  0.0152  0.2154 -0.2361
  163MOL    H1448938   1.481   4.187   3.394 -2.6915 -0.0848  1.0731
  163MOL    H1548939   1.406   4.067   3.204 -3.0041 -0.5939 -0.3214
  163MOL    H1648940   1.061   4.264   3.032  2.2113  0.9656  1.7853
  163MOL    C1748941   1.254   4.429   2.869  0.6258  0.8563 -0.3444
  163MOL    C1848942   1.241   4.551   2.773 -0.3369 -0.1069 -0.0000
  163MOL    C1948943   1.301   4.681   2.827  0.1301  0.3808  0.3696
  163MOL    C2048944   1.227   4.781   2.895  0.4174  0.1977 -0.4827
  163MOL    C2148945   1.294   4.894   2.942 -0.4051 -0.9821  0.4135
  163MOL    C2248946   1.433   4.907   2.919  0.1498 -0.9818 -0.4761
  163MOL    C2348947   1.498   4.809   2.849  0.1149  0.0762 -0.0320
  163MOL    N2448948   1.434   4.699   2.801 -0.4592 -0.4001 -0.1467
  163MOL    H2548949   1.201   4.346   2.823 -0.6792  0.9591  0.9225
  163MOL    H2648950   1.359   4.399   2.868 -0.0563 -1.7971  1.5350
  163MOL    H2748951   1.132   4.556   2.765 -0.3340 -0.5445 -0.3160
  163MOL    H2848952   1.122   4.771   2.918  0.8780 -1.3982  1.0335
  163MOL    H2948953   1.233   4.975   2.979  0.4581 -0.2639  0.2674
  163MOL    H3048954   1.478   5.000   2.952 -0.4173 -0.7386 -0.3845
  163MOL    H3148955   1.601   4.827   2.821 -0.1658 -1.1858 -1.9319
  163MOL    C3248956   1.276   4.528   2.621 -0.1444  0.2596  0.6664
  163MOL    C3348957   1.180   4.425   2.544 -0.2076  0.0549 -0.5135
  163MOL    C3448958   1.030   4.439   2.574  0.5931 -0.0395  0.0763
  163MOL    C3548959   0.959   4.334   2.632 -0.7211  0.0398 -0.8512
  163MOL    C3648960   0.827   4.359   2.672  0.2910  0.5806 -0.2121
  163MOL    C3748961   0.768   4.483   2.639 -0.1529  0.5541  0.0798
  163MOL    C3848962   0.841   4.576   2.563  0.3955  0.4397  0.7985
  163MOL    N3948963   0.972   4.555   2.542 -0.0288 -0.1527 -0.2731
  163MOL    H4048964   1.378   4.493   2.604  0.7058  3.1444 -0.4264
  163MOL    H4148965   1.275   4.622   2.565  2.8355 -0.5837 -0.9461
  163MOL    H4248966   1.204   4.326   2.582  0.6359  0.2680 -0.4710
  163MOL    H4348967   1.012   4.243   2.656 -0.0209  0.2939 -1.4181
  163MOL    H4448968   0.762   4.285   2.718 -0.1836 -1.2340 -3.6566
  163MOL    H4548969   0.665   4.503   2.667  0.2096  2.5266  0.1102
  163MOL    H4648970   0.789   4.660   2.521  0.8296 -1.1342 -3.0582
  163MOL    C4748971   1.203   4.435   2.390 -0.3330  0.1957  0.4742
  163MOL    C4848972   1.346   4.400   2.334  0.5274  0.4481  0.0101
  163MOL    C4948973   1.392   4.265   2.388  0.1974 -0.3857  0.1686
  163MOL    C5048974   1.492   4.257   2.487  0.6895  0.3128  0.6529
  163MOL    C5148975   1.521   4.129   2.542 -0.4990  0.3187 -0.7505
  163MOL    C5248976   1.452   4.016   2.507 -0.1673 -0.0257 -0.7142
  163MOL    C5348977   1.364   4.031   2.401 -0.3843  0.4451 -0.0462
  163MOL    N5448978   1.331   4.153   2.347  0.6720  0.9131  0.4428
  163MOL    H5548979   1.193   4.541   2.366  1.0306  0.0369 -0.9150
  163MOL    H5648980   1.131   4.375   2.335  1.2494 -0.6266 -0.7662
  163MOL    H5748981   1.424   4.469   2.366  0.2408  0.4042  0.8229
  163MOL    H5848982   1.530   4.347   2.533  0.8832  0.5752 -0.0291
  163MOL    H5948983   1.581   4.114   2.630  1.6702 -0.0166 -2.2619
  163MOL    H6048984   1.477   3.919   2.547  2.0083  0.5103 -0.6810
  163MOL    H6148985   1.298   3.952   2.373  0.8930 -1.2448  1.5532
  163MOL    C6248986   1.357   4.394   2.179  0.0094  0.0518  0.1209
  163MOL    C6348987   1.330   4.530   2.114  0.1717 -0.4886  0.6021
  163MOL    C6448988   1.435   4.629   2.151  0.9473 -0.7693  0.3149
  163MOL    C6548989   1.564   4.618   2.104 -0.1754 -0.4076 -0.1743
  163MOL    C6648990   1.656   4.722   2.123 -0.2971  0.1644 -0.0615
  163MOL    C6748991   1.612   4.834   2.194  0.3573  0.6875 -0.0780
  163MOL    C6848992   1.484   4.835   2.243  0.2652  0.0600  0.0314
  163MOL    N6948993   1.392   4.743   2.210 -0.1719 -0.4683 -0.0869
  163MOL    H7048994   1.282   4.329   2.133 -1.9114  0.7983  2.1497
  163MOL    H7148995   1.458   4.355   2.163  0.4187  1.1260  0.0911
  163MOL    H7248996   1.238   4.565   2.161  0.6492  2.2351 -0.3667
  163MOL    H7348997   1.583   4.525   2.051 -0.9693 -0.1282 -0.9551
  163MOL    H7448998   1.758   4.711   2.087 -1.0349  0.0936 -2.2015
  163MOL    H7548999   1.678   4.910   2.232  0.5279 -0.4221  1.9293
  163MOL    H7649000   1.451   4.915   2.307  0.3254 -1.0164  1.4292
  163MOL    C7749001   1.307   4.530   1.968  0.0630  0.2569  0.1380
  163MOL    C7849002   1.231   4.648   1.911 -0.3800 -0.3217  0.0919
  163MOL    C7949003   1.316   4.741   1.822 -0.2814  0.2073  0.1517
  163MOL    C8049004   1.364   4.864   1.867  0.2795 -0.0258 -0.2091
  163MOL    C8149005   1.422   4.953   1.779  0.1470  0.0829 -0.1207
  163MOL    C8249006   1.449   4.904   1.649 -0.2882 -0.3089 -0.7061
  163MOL    C8349007   1.418   4.768   1.616 -1.0456 -0.8059 -0.1662
  163MOL    N8449008   1.342   4.694   1.697 -0.3502 -0.1401  0.0222
  163MOL    H8549009   1.248   4.441   1.949 -0.0617  0.0958  1.2420
  163MOL    H8649010   1.408   4.521   1.928 -0.0492 -2.1374  0.3454
  163MOL    H8749011   1.188   4.706   1.993  0.8673  0.0672  0.4836
  163MOL    H8849012   1.344   4.899   1.968  1.2693 -0.0355 -0.0054
  163MOL    H8949013   1.454   5.049   1.817 -3.5184  0.1491  3.1632
  163MOL    H9049014   1.512   4.964   1.585 -1.7994  2.5536  0.3953
  163MOL    H9149015   1.455   4.726   1.524 -0.5948  0.7763 -0.7296
  163MOL    C9249016   1.097   4.598   1.847 -0.0351  0.1884  1.2424
  163MOL    C9349017   1.005   4.699   1.778  0.5957  0.8678  0.4326
  163MOL    C9449018   0.889   4.635   1.705 -1.4878 -0.2833 -0.3105
  163MOL    C9549019   0.873   4.658   1.568 -0.1313 -0.9786 -0.6300
  163MOL    C9649020   0.759   4.597   1.504  0.2130 -0.8881  0.0362
  163MOL    C9749021   0.672   4.516   1.579  0.3759 -0.8149 -0.0859
  163MOL    C9849022   0.699   4.499   1.715  0.2396  0.5165  0.8546
  163MOL    N9949023   0.808   4.555   1.776  0.3015  0.2857  0.6296
  163MOL   H10049024   1.045   4.535   1.919 -0.7305  2.0040  2.3446
  163MOL   H10149025   1.123   4.526   1.769  1.5994  1.7754  0.2678
  163MOL   H10249026   1.061   4.758   1.706  3.0404 -2.5324 -0.5686
  163MOL   H10349027   0.943   4.711   1.505 -0.5149 -0.4730 -0.6343
  163MOL   H10449028   0.750   4.606   1.397 -0.0772  0.2782  0.1530
  163MOL   H10549029   0.592   4.471   1.522 -0.7938  0.7383  0.3170
  163MOL   H10649030   0.642   4.434   1.781 -2.5267  0.1157 -1.8166
  163MOL   C10749031   0.941   4.803   1.875  0.5789 -0.4313 -0.1226
  163MOL   C10849032   0.890   4.932   1.817 -0.0270  0.3722 -0.1406
  163MOL   C10949033   0.747   4.961   1.859 -0.7676  0.3641 -0.3092
  163MOL   C11049034   0.634   4.920   1.780  0.1392 -0.1670 -0.3979
  163MOL   C11149035   0.507   4.958   1.826 -0.3236  0.4845  0.6138
  163MOL   C11249036   0.488   5.023   1.947 -0.2309  0.5779  0.2269
  163MOL   C11349037   0.602   5.051   2.020 -0.3176  0.7537 -0.2447
  163MOL   N11449038   0.732   5.030   1.974  0.6908 -0.5503 -0.4923
  163MOL   H11549039   1.019   4.823   1.947  0.5526 -1.6614  0.2605
  163MOL   H11649040   0.857   4.762   1.932 -1.9939  0.1392 -3.3118
  163MOL   H11749041   0.875   4.915   1.710  1.2741 -0.5724 -0.1808
  163MOL   H11849042   0.660   4.864   1.692  4.3754  1.7313 -0.5026
  163MOL   H11949043   0.423   4.945   1.760 -1.1365 -1.4710  1.9965
  163MOL   H12049044   0.388   5.053   1.972  0.0865  0.9505  1.0791
  163MOL   H12149045   0.598   5.102   2.115  0.2616  0.1783  0.0873
  163MOL   C12249046   0.980   5.056   1.813 -0.3789  0.7217 -0.1944
  163MOL   C12349047   0.968   5.161   1.696  0.0767 -0.0763 -0.3399
  163MOL   C12449048   1.050   5.116   1.574  0.1118 -0.2163 -0.2094
  163MOL   C12549049   1.158   5.191   1.537 -0.3382  0.7881  0.0621
  163MOL   C12649050   1.236   5.157   1.426 -0.2872  0.5901 -0.7051
  163MOL   C12749051   1.198   5.045   1.352 -0.2990 -0.4915 -0.2426
  163MOL   C12849052   1.084   4.973   1.398 -0.7683  0.3158  0.3037
  163MOL   N12949053   1.012   5.009   1.507  0.5790  0.1301 -0.1268
  163MOL   H13049054   1.081   5.018   1.801 -0.6357 -0.3630  1.0371
  163MOL   H13149055   0.985   5.109   1.909 -1.4258 -0.5505  0.5691
  163MOL   H13249056   1.008   5.253   1.737  1.7712 -1.3148  0.8785
  163MOL   H13349057   1.197   5.277   1.591  1.5277 -0.2154  0.3645
  163MOL   H13449058   1.322   5.219   1.403 -0.2452 -0.3157 -3.0726
  163MOL   H13549059   1.247   5.026   1.258  1.7089  0.0950  0.6547
  163MOL   H13649060   1.043   4.898   1.332  1.6569 -0.1978 -0.6766
  163MOL   C13749061   0.817   5.189   1.661 -0.0664 -0.1548  0.5211
  163MOL   C13849062   0.791   5.304   1.558  0.3332 -0.4406  0.5168
  163MOL   C13949063   0.650   5.296   1.510  0.9332 -0.3242 -0.3081
  163MOL   C14049064   0.622   5.256   1.380  0.3660  0.0792 -0.0136
  163MOL   C14149065   0.494   5.214   1.346  0.6810 -0.3543  0.1753
  163MOL   C14249066   0.394   5.237   1.440 -0.3663  1.0506  0.0275
  163MOL   C14349067   0.427   5.286   1.568  0.1151 -0.4907 -0.2846
  163MOL   N14449068   0.553   5.311   1.602 -0.6866 -0.2823  0.3698
  163MOL   H14549069   0.757   5.209   1.750 -0.6164  1.0762 -0.1131
  163MOL   H14649070   0.761   5.103   1.626 -0.5259  0.2432  0.2758
  163MOL   H14749071   0.851   5.280   1.470 -0.3747 -0.5580  0.0616
  163MOL   H14849072   0.699   5.225   1.311  1.8745 -0.1556  1.7366
  163MOL   H14949073   0.480   5.169   1.248  0.2239  1.1366 -0.4714
  163MOL   H15049074   0.293   5.209   1.411 -0.7154  1.0016  1.2574
  163MOL   H15149075   0.347   5.289   1.642  0.0529 -0.0142 -0.3688
  163MOL   C15249076   0.825   5.448   1.605  0.0780  0.5427 -0.6093
  163MOL   C15349077   0.797   5.558   1.504  0.1832  0.6071  0.2098
  163MOL   C15449078   0.834   5.700   1.554  0.8845  0.4664  0.2894
  163MOL   C15549079   0.737   5.790   1.596 -0.7022  0.0182 -0.3494
  163MOL   C15649080   0.775   5.926   1.623 -0.5831 -0.4631 -0.0253
  163MOL   C15749081   0.912   5.968   1.619  0.2599 -0.0855  0.0591
  163MOL   C15849082   1.001   5.867   1.570  0.1271  0.5524  1.1126
  163MOL   N15949083   0.960   5.738   1.542  0.4864  0.5200  0.0847
  163MOL   H16049084   0.929   5.448   1.635  0.0464  0.6683 -0.4964
  163MOL   H16149085   0.763   5.473   1.691 -0.7128  2.0279 -1.5748
  163MOL   H16249086   0.688   5.566   1.495 -0.0619 -1.1849  1.3524
  163MOL   H16349087   0.633   5.759   1.595 -0.3471 -1.3564  1.2787
  163MOL   H16449088   0.698   5.998   1.647 -1.0621  0.8119 -4.8513
  163MOL   H16549089   0.945   6.069   1.638 -0.9020  0.1650  0.8810
  163MOL   H16649090   1.104   5.899   1.567 -0.4168  2.1564 -1.6994
  163MOL   C16749091   0.846   5.539   1.357 -0.1871  0.2710 -0.2513
  163MOL   C16849092   0.814   5.645   1.248 -0.5036 -0.1647 -0.0576
  163MOL   C16949093   0.868   5.603   1.109 -0.0322  0.7406  0.0191
  163MOL   C17049094   0.978   5.675   1.051  1.3766 -0.5623 -0.5845
  163MOL   C17149095   1.024   5.631   0.926 -0.3978 -0.2619  0.0535
  163MOL   C17249096   0.966   5.512   0.869 -0.4341 -0.2891  0.1788
  163MOL   C17349097   0.869   5.444   0.941 -0.0269  0.0580 -0.2940
  163MOL   N17449098   0.816   5.494   1.049 -0.2508 -0.0221 -0.8501
  163MOL   H17549099   0.805   5.443   1.329  2.7800 -1.0332 -0.3744
  163MOL   H17649100   0.953   5.522   1.369 -0.1937  1.2554  1.3252
  163MOL   H17749101   0.858   5.737   1.286 -0.4632  0.5134 -1.6815
  163MOL   H17849102   1.012   5.766   1.098  2.9593 -2.4052  1.9286
  163MOL   H17949103   1.100   5.682   0.868 -0.7536 -0.3408 -0.4893
  163MOL   H18049104   1.022   5.468   0.788 -1.6441  1.5219 -1.6752
  163MOL   H18149105   0.829   5.347   0.913  1.7728 -1.2133  1.3537
  163MOL   C18249106   0.663   5.660   1.232 -0.4722 -0.4857  0.0469
  163MOL   C18349107   0.604   5.744   1.122  0.6231  0.7535 -0.2714
  163MOL   C18449108   0.453   5.750   1.137 -0.2519  1.1570 -0.0658
  163MOL   C18549109   0.373   5.691   1.035 -0.2960  0.2111  0.4188
  163MOL   C18649110   0.236   5.688   1.046 -0.7363 -0.0328  0.2664
  163MOL   C18749111   0.177   5.753   1.158  0.3828  0.6090  0.4528
  163MOL   C18849112   0.264   5.809   1.251  0.8734  0.5779 -0.1978
  163MOL   N18949113   0.401   5.803   1.250  0.2847 -0.5314 -0.4270
  163MOL   H19049114   0.616   5.695   1.324 -0.2830  1.8647 -0.7372
  163MOL   H19149115   0.607   5.567   1.221 -0.1762 -0.9209  1.9367
  163MOL   H19249116   0.629   5.693   1.029  0.9000 -0.3879  0.4285
  163MOL   H19349117   0.414   5.627   0.958  0.3696 -0.7115  1.5256
  163MOL   H19449118   0.183   5.649   0.960  4.0027 -2.3222 -1.8421
  163MOL   H19549119   0.070   5.765   1.165  0.4206 -0.2043  2.6680
  163MOL   H19649120   0.225   5.850   1.344 -0.5313 -2.6119  0.6826
  163MOL   C19749121   0.671   5.886   1.112  0.0515 -0.0265 -1.0380
  163MOL   C19849122   0.595   5.994   1.028  0.1764  0.3926  0.1636
  163MOL   C19949123   0.631   6.135   1.071 -0.3634  0.0508  0.2274
  163MOL   C20049124   0.529   6.231   1.082  0.0147 -0.1792  0.5070
  163MOL   C20149125   0.565   6.352   1.143 -0.1493  0.1640 -0.2599
  163MOL   C20249126   0.702   6.385   1.166  0.8331 -0.0110 -1.0441
  163MOL   C20349127   0.802   6.288   1.132 -0.3205  0.2477  0.1024
  163MOL   N20449128   0.766   6.171   1.075 -0.1678  0.6364 -0.0444
  163MOL   H20549129   0.777   5.877   1.088  0.5228  2.5221 -0.0092
  163MOL   H20649130   0.672   5.938   1.208  0.3969 -1.3308 -0.3191
  163MOL   H20749131   0.491   5.981   1.058  0.5221  0.1090  1.3102
  163MOL   H20849132   0.423   6.209   1.082  0.4992 -2.7385 -1.7027
  163MOL   H20949133   0.483   6.419   1.166  0.3758  0.6133  0.3148
  163MOL   H21049134   0.728   6.476   1.218 -5.1057  1.0588  0.4320
  163MOL   H21149135   0.903   6.327   1.136 -1.2015  2.6899 -0.4171
  163MOL   C21249136   0.628   5.987   0.877  0.6085  0.4301 -0.3544
  163MOL   C21349137   0.534   5.911   0.782 -0.5529  0.4226 -0.0484
  163MOL   C21449138   0.395   5.978   0.759  0.0497  0.3666  0.2066
  163MOL   C21549139   0.382   6.116   0.781 -0.2412  0.2698 -0.1797
  163MOL   C21649140   0.250   6.170   0.772 -0.8004 -0.2926  0.0957
  163MOL   C21749141   0.148   6.093   0.724  0.4685  0.0927  0.1254
  163MOL   C21849142   0.173   5.951   0.707  0.6671 -0.0437 -0.3319
  163MOL   N21949143   0.293   5.894   0.729  0.2888 -0.5773 -0.0740
  163MOL   H22049144   0.721   5.930   0.878  2.1789  2.8785 -0.2019
  163MOL   H22149145   0.657   6.086   0.840 -0.4063  0.8882  0.0778
  163MOL   H22249146   0.506   5.825   0.844 -0.9753  0.1545 -0.6028
  163MOL   H22349147   0.463   6.183   0.808 -0.2314  0.6392 -1.1279
  163MOL   H22449148   0.243   6.277   0.778 -1.4037 -0.3289  0.0557
  163MOL   H22549149   0.056   6.146   0.703 -0.3681 -1.3424  0.0870
  163MOL   H22649150   0.094   5.888   0.669  0.5605 -0.4343  0.5397
  163MOL   C22749151   0.604   5.862   0.649 -0.3395 -0.4681  0.2210
  163MOL   C22849152   0.648   5.977   0.544  0.3346  0.3461 -0.6042
  163MOL   C22949153   0.784   6.027   0.593 -0.1801  0.6327  0.3327
  163MOL   C23049154   0.797   6.151   0.660 -0.3737 -0.3346  0.1653
  163MOL   C23149155   0.927   6.181   0.717  0.4713 -0.5229  0.7165
  163MOL   C23249156   1.025   6.082   0.704 -0.0361  0.4207  0.0397
  163MOL   C23349157   1.002   5.967   0.630  0.1029  0.2611 -0.7739
  163MOL   N23449158   0.884   5.942   0.571 -0.2841  0.4911  0.0264
  163MOL   H23549159   0.524   5.811   0.594  2.1542 -1.9887 -2.1361
  163MOL   H23649160   0.681   5.787   0.666  1.2164  1.3680  1.4416
  163MOL   H23749161   0.573   6.055   0.557 -0.0772  0.0190 -0.9671
  163MOL   H23849162   0.714   6.216   0.685  1.6024  1.9399  1.0530
  163MOL   H23949163   0.943   6.267   0.780 -0.0765  0.9357 -1.0871
  163MOL   H24049164   1.113   6.107   0.760  1.7261  1.2424 -2.9798
  163MOL   H24149165   1.078   5.890   0.630 -0.9961 -0.8442  0.9553
  163MOL   C24249166   0.653   5.935   0.394 -0.5331  0.7202 -0.2241
  163MOL   C24349167   0.517   5.931   0.327 -0.2776 -0.2809  0.0794
  163MOL   C24449168   0.428   6.055   0.365  0.6386 -1.0074  0.0233
  163MOL   C24549169   0.288   6.038   0.385  0.7193  0.6643  0.0906
  163MOL   C24649170   0.208   6.147   0.408 -0.1123 -1.0436 -0.4360
  163MOL   C24749171   0.268   6.270   0.412  0.3009 -0.5217 -0.0909
  163MOL   C24849172   0.402   6.286   0.368 -0.1285 -0.1817  0.2089
  163MOL   N24949173   0.481   6.179   0.353  0.1317  0.8409 -0.4734
  163MOL   H25049174   0.711   5.845   0.375 -0.7555  0.1422  1.6954
  163MOL   H25149175   0.717   6.010   0.349  0.3591 -1.2675 -2.3257
  163MOL   H25249176   0.464   5.840   0.356 -1.0592  1.1600  3.4547
  163MOL   H25349177   0.245   5.940   0.372  4.4747 -0.9822 -0.5459
  163MOL   H25449178   0.104   6.135   0.433 -0.2051  0.2515 -0.1719
  163MOL   H25549179   0.208   6.360   0.420  0.4039 -0.3073 -1.5385
  163MOL   H25649180   0.442   6.386   0.358  1.3237 -0.7714 -0.0047
  163MOL   C25749181   0.535   5.929   0.172 -0.9071  0.4059  0.5048
  163MOL   C25849182   0.571   5.781   0.111 -0.4360  0.1481  0.0850
  163MOL   C25949183   0.454   5.677   0.124 -0.1950  0.3644  0.1857
  163MOL   C26049184   0.461   5.544   0.178  0.9149 -0.1477  0.1117
  163MOL   C26149185   0.351   5.457   0.161  0.3109  0.2744 -0.6569
  163MOL   C26249186   0.239   5.508   0.097 -0.3529 -0.0026  0.1416
  163MOL   C26349187   0.241   5.646   0.060  0.2869 -0.1326 -0.3632
  163MOL   N26449188   0.342   5.727   0.070  0.1560 -0.8441  0.0223
  163MOL   H26549189   0.617   5.997   0.148 -0.6800  0.1675  0.6005
  163MOL   H26649190   0.448   5.967   0.118 -0.1266  2.8574  0.8865
  163MOL   H26749191   0.651   5.739   0.172 -1.5624 -2.8875 -0.4366
  163MOL   H26849192   0.549   5.504   0.226  0.7627  1.0332  1.3729
  163MOL   H26949193   0.358   5.355   0.197 -0.7350  0.8787  1.3776
  163MOL   H27049194   0.142   5.460   0.097  1.1256 -3.1233  1.5348
  163MOL   H27149195   0.149   5.690   0.025 -0.0797 -0.2471  0.4592
  163MOL   C27249196   0.617   5.799   8.108  0.3523 -0.6331 -0.3353
  163MOL   C27349197   0.745   5.888   8.077  0.7610  0.9227 -0.3528
  163MOL   C27449198   0.862   5.833   0.014  0.4013  0.4692  0.3690
  163MOL   C27549199   0.900   5.891   0.136 -0.1267  0.5046  0.1271
  163MOL   C27649200   0.988   5.824   0.221  0.3399  0.3204  0.1835
  163MOL   C27749201   1.052   5.714   0.162  0.3667 -0.0239  0.0076
  163MOL   C27849202   1.030   5.675   0.029 -0.2842 -0.5861 -0.0173
  163MOL   N27949203   0.931   5.732   8.110  0.2663  1.0378 -0.2523
  163MOL   H28049204   0.539   5.845   8.047  0.1108  0.4202  0.7612
  163MOL   H28149205   0.633   5.701   8.064  0.1270 -1.5932  1.6544
  163MOL   H28249206   0.730   5.986   8.121 -0.2440  0.4314  0.4284
  163MOL   H28349207   0.851   5.984   0.163 -1.9419 -0.6926  1.0236
  163MOL   H28449208   1.009   5.863   0.319  1.8409  2.0179 -0.7962
  163MOL   H28549209   1.119   5.648   0.214  1.1270  0.7703  0.0430
  163MOL   H28649210   1.085   5.598   8.129 -0.6504  0.5316 -2.1084
  163MOL   C28749211   0.773   5.909   7.928 -0.9073 -0.9499 -0.3349
  163MOL   C28849212   0.855   6.036   7.877 -0.1938 -0.1515 -0.7681
  163MOL   C28949213   1.001   6.021   7.907  0.2025  0.0016 -0.3116
  163MOL   C29049214   1.075   5.945   7.814 -0.0636  0.4998 -0.4465
  163MOL   C29149215   1.214   5.927   7.837 -0.8077 -0.6151 -0.4113
  163MOL   C29249216   1.260   5.958   7.966  0.3405  0.0609  0.1586
  163MOL   C29349217   1.178   6.030   8.051 -0.1032  0.4965  0.2526
  163MOL   N29449218   1.049   6.068   8.019 -0.1385 -0.0243 -0.1718
  163MOL   H29549219   0.671   5.916   7.891 -1.1049  1.7408  0.5998
  163MOL   H29649220   0.818   5.816   7.893 -2.7301 -2.2331  0.6879
  163MOL   H29749221   0.814   6.121   7.932 -0.8214  0.0162 -1.4904
  163MOL   H29849222   1.019   5.905   7.732  0.4348 -0.8775 -0.1377
  163MOL   H29949223   1.285   5.882   7.769  0.5375  0.6970  0.0942
  163MOL   H30049224   1.362   5.944   7.999  0.0477  0.1153  1.1179
  163MOL   H30149225   1.212   6.069   8.145  1.6875  0.8635 -0.5311
  163MOL   H30249226   0.842   6.046   7.769  2.4731 -0.2808 -1.1469
  164MOL     C149227   4.126   4.796   5.841  0.2207 -0.6297  0.1711
  164MOL     C249228   4.207   4.684   5.907 -0.4697 -0.6029 -0.0943
  164MOL     C349229   4.166   4.658   6.055 -0.4670 -0.5507  0.1092
  164MOL     C449230   4.260   4.676   6.157  0.1586  0.1711  0.5220
  164MOL     C549231   4.224   4.643   6.289  0.2926 -0.4136 -0.0831
  164MOL     C649232   4.094   4.589   6.308 -1.1400 -1.3604 -1.3265
  164MOL     C749233   4.011   4.574   6.200  0.3378  0.4077 -0.4429
  164MOL     N849234   4.045   4.616   6.073  0.6034  0.6692  0.2732
  164MOL     H949235   4.100   4.870   5.916  0.9143 -2.4950  2.3351
  164MOL    H1049236   4.163   4.840   5.749  0.6485 -0.6705  0.3214
  164MOL    H1149237   4.311   4.717   5.913 -0.9932  1.1425 -0.2071
  164MOL    H1249238   4.352   4.720   6.121  0.7588  0.0497  1.8714
  164MOL    H1349239   4.293   4.641   6.371  1.6967 -1.4550 -1.2770
  164MOL    H1449240   4.063   4.584   6.411 -0.0304  0.5628 -0.8889
  164MOL    H1549241   3.908   4.552   6.222  0.5157 -0.6806 -0.6902
  164MOL    H1649242   4.029   4.759   5.809 -1.0915  2.6832  0.1808
  164MOL    C1749243   4.198   4.558   5.817  0.3475 -0.1008 -0.1566
  164MOL    C1849244   4.252   4.418   5.862  0.1946  0.0840  0.2636
  164MOL    C1949245   4.193   4.304   5.767  0.6295  0.0186 -0.3031
  164MOL    C2049246   4.143   4.183   5.820  0.4675  0.4374  0.4454
  164MOL    C2149247   4.101   4.080   5.740 -0.6103 -0.3949  0.6887
  164MOL    C2249248   4.101   4.112   5.604 -0.6085 -0.1585  0.3207
  164MOL    C2349249   4.156   4.232   5.550 -0.0817  0.3811 -0.3898
  164MOL    N2449250   4.205   4.326   5.636 -0.2208 -0.4728  0.2781
  164MOL    H2549251   4.255   4.572   5.726  0.3528 -0.0734 -0.1494
  164MOL    H2649252   4.094   4.551   5.785  0.3107  1.2793 -0.3667
  164MOL    H2749253   4.204   4.406   5.959 -0.1246  0.9833  0.2174
  164MOL    H2849254   4.156   4.177   5.927 -3.0886  2.0576  1.0125
  164MOL    H2949255   4.070   3.983   5.774  1.8880 -0.6759  2.2831
  164MOL    H3049256   4.059   4.048   5.528 -0.9514 -0.0308  0.3978
  164MOL    H3149257   4.155   4.260   5.446 -0.0670  0.7905 -0.2810
  164MOL    C3249258   4.411   4.417   5.871 -0.0887  0.4104 -0.3600
  164MOL    C3349259   4.463   4.323   5.977  0.1684 -0.1580  0.2867
  164MOL    C3449260   4.610   4.307   5.959 -0.1022  0.7673 -0.1119
  164MOL    C3549261   4.695   4.422   5.959 -0.0706  0.0233 -0.1633
  164MOL    C3649262   4.832   4.404   5.941 -0.2988  0.1546  0.2741
  164MOL    C3749263   4.879   4.275   5.928 -0.2028 -0.2412 -0.4871
  164MOL    C3849264   4.785   4.167   5.918  0.1892 -0.1363  0.1296
  164MOL    N3949265   4.655   4.176   5.943  0.3011  0.1296  0.2517
  164MOL    H4049266   4.444   4.517   5.901 -0.1566  0.3391 -0.0481
  164MOL    H4149267   4.455   4.393   5.774 -0.8800  1.1084 -0.9076
  164MOL    H4249268   4.417   4.225   5.969 -0.3141  0.1079 -0.2549
  164MOL    H4349269   4.653   4.521   5.964 -0.7937 -0.1365 -2.2783
  164MOL    H4449270   4.889   4.495   5.944 -3.0139  1.9325  0.1466
  164MOL    H4549271   4.985   4.255   5.935 -0.4114 -1.8621 -1.4667
  164MOL    H4649272   4.816   4.064   5.919  0.7272  0.0248  0.7015
  164MOL    C4749273   4.438   4.365   6.121  1.2140 -0.2626  0.6459
  164MOL    C4849274   4.511   4.286   6.231 -0.2695  0.0179 -0.1667
  164MOL    C4949275   4.483   4.357   6.364 -0.0989  0.3828 -0.2797
  164MOL    C5049276   4.582   4.436   6.424  0.0652 -0.3254 -0.4257
  164MOL    C5149277   4.552   4.510   6.543 -0.2859 -0.1091 -0.6937
  164MOL    C5249278   4.427   4.493   6.597 -0.5059  0.2481  0.7645
  164MOL    C5349279   4.337   4.399   6.535  0.0469  0.4828  0.3685
  164MOL    N5449280   4.361   4.339   6.416 -0.1678 -0.0608  0.5072
  164MOL    H5549281   4.329   4.366   6.132  1.0843 -1.8375 -0.4176
  164MOL    H5649282   4.477   4.467   6.126  1.6927 -0.4030 -0.3311
  164MOL    H5749283   4.618   4.283   6.211  0.2921 -0.7574  2.6323
  164MOL    H5849284   4.681   4.443   6.382 -0.5016 -0.5848 -1.8356
  164MOL    H5949285   4.629   4.576   6.578 -0.9896  0.5805 -0.4364
  164MOL    H6049286   4.389   4.540   6.687 -0.9236 -2.3973  2.0072
  164MOL    H6149287   4.238   4.389   6.578  0.7383  1.0799  2.1335
  164MOL    C6249288   4.476   4.134   6.235  0.3479  0.0379 -0.3473
  164MOL    C6349289   4.546   4.053   6.345 -0.3248 -0.1691 -0.4323
  164MOL    C6449290   4.455   3.990   6.450  0.2403 -0.8141 -0.9387
  164MOL    C6549291   4.444   4.048   6.578 -0.9093  0.3132 -0.4208
  164MOL    C6649292   4.363   3.988   6.674 -0.3842 -0.9374  0.1676
  164MOL    C6749293   4.295   3.874   6.636  0.0396  0.1507  0.1416
  164MOL    C6849294   4.311   3.816   6.512 -0.9922  0.3441 -0.7147
  164MOL    N6949295   4.394   3.875   6.425 -0.2861 -0.5496 -0.3662
  164MOL    H7049296   4.490   4.090   6.136 -1.7678 -2.4673  0.4155
  164MOL    H7149297   4.369   4.118   6.244  0.4758 -0.4101  0.4432
  164MOL    H7249298   4.600   4.130   6.400  0.2466 -0.9549  0.1121
  164MOL    H7349299   4.496   4.140   6.596 -1.6028  0.8139 -0.9588
  164MOL    H7449300   4.359   4.028   6.774 -2.4200  1.3818 -0.8105
  164MOL    H7549301   4.227   3.837   6.712 -0.0758 -2.6052 -1.2528
  164MOL    H7649302   4.252   3.733   6.477 -0.0341 -1.2683  1.4317
  164MOL    C7749303   4.660   3.959   6.290 -0.0827 -0.1540  0.4083
  164MOL    C7849304   4.777   3.925   6.382  0.4572 -0.1909 -0.1407
  164MOL    C7949305   4.737   3.830   6.496 -0.0322  0.4759  0.7457
  164MOL    C8049306   4.720   3.876   6.625  0.9543 -0.9130  0.1893
  164MOL    C8149307   4.660   3.797   6.727  0.6275 -0.0719  0.0304
  164MOL    C8249308   4.629   3.669   6.682 -0.4917  0.0844  0.2099
  164MOL    C8349309   4.652   3.626   6.553 -0.1913  0.3563 -0.7260
  164MOL    N8449310   4.714   3.705   6.464  0.5976  0.2605 -0.8628
  164MOL    H8549311   4.707   4.001   6.201  0.2593  1.6437  1.4148
  164MOL    H8649312   4.615   3.873   6.240  1.8259 -0.0663 -1.5492
  164MOL    H8749313   4.808   4.023   6.419  1.9866 -0.1060 -1.5605
  164MOL    H8849314   4.731   3.980   6.651  0.6415 -0.8024 -0.1256
  164MOL    H8949315   4.642   3.834   6.827  4.1357  0.1454  0.6510
  164MOL    H9049316   4.582   3.600   6.751 -1.1773  0.2201 -0.1210
  164MOL    H9149317   4.618   3.527   6.524 -3.9223  0.7635  1.8063
  164MOL    C9249318   4.903   3.869   6.311  0.4131  0.4827  0.2026
  164MOL    C9349319   4.993   3.970   6.238 -0.5626 -0.3632 -0.4052
  164MOL    C9449320   5.032   4.092   6.327 -0.4054 -0.3942  0.3412
  164MOL    C9549321   4.993   4.223   6.290 -0.2145 -0.7605  0.6637
  164MOL    C9649322   5.026   4.332   6.375  0.2305 -0.1279 -0.3779
  164MOL    C9749323   5.093   4.304   6.491 -0.1653 -0.0835 -0.1269
  164MOL    C9849324   5.138   4.169   6.515  0.1726 -0.4193  0.2066
  164MOL    N9949325   5.107   4.065   6.435 -0.1359  0.1575  0.0383
  164MOL   H10049326   4.878   3.788   6.241 -0.7762 -0.0497  1.2384
  164MOL   H10149327   4.964   3.826   6.390 -0.1082  0.0970  0.4001
  164MOL   H10249328   4.940   4.013   6.153  0.4776 -0.4441 -1.0962
  164MOL   H10349329   4.938   4.239   6.198 -0.7226  0.0507  1.0995
  164MOL   H10449330   5.004   4.434   6.348 -1.4874 -0.3915 -0.0382
  164MOL   H10549331   5.111   4.385   6.559  1.4407 -1.1766  0.7866
  164MOL   H10649332   5.189   4.146   6.608  1.5047  1.7746  0.0582
  164MOL   C10749333   5.128   3.896   6.179 -0.4763 -0.5046 -0.2769
  164MOL   C10849334   5.118   3.805   6.063  0.2668  0.4341  0.1258
  164MOL   C10949335   5.093   3.878   5.927  0.5601 -0.3686 -0.1105
  164MOL   C11049336   5.020   3.818   5.822  0.2252 -0.1766  0.3061
  164MOL   C11149337   4.984   3.895   5.709 -0.0315  0.4285 -0.8264
  164MOL   C11249338   5.038   4.024   5.698 -1.0453  0.5106  0.5211
  164MOL   C11349339   5.123   4.075   5.794 -0.1585 -0.0865 -0.0554
  164MOL   N11449340   5.152   4.003   5.910 -0.2148 -0.3047  0.1879
  164MOL   H11549341   5.173   3.855   6.270 -2.2988 -0.2367  0.7648
  164MOL   H11649342   5.198   3.975   6.151 -0.6050  0.2351  1.4220
  164MOL   H11749343   5.029   3.743   6.076  1.4617 -1.6628 -1.3344
  164MOL   H11849344   4.974   3.723   5.843 -1.0315  1.1139  3.6274
  164MOL   H11949345   4.920   3.855   5.632 -1.1710  0.7995 -0.0872
  164MOL   H12049346   5.024   4.087   5.611 -0.2075 -3.7864 -2.8634
  164MOL   H12149347   5.164   4.175   5.784  0.7149 -0.4809 -0.5641
  164MOL   C12249348   5.239   3.710   6.049  0.6259  0.1815  0.8045
  164MOL   C12349349   5.232   3.583   6.148 -0.2604  0.1107 -0.1507
  164MOL   C12449350   5.192   3.462   6.058  0.3449  0.2532 -0.6936
  164MOL   C12549351   5.082   3.377   6.084  1.0525  0.3425  0.0574
  164MOL   C12649352   5.056   3.266   6.000  0.1075 -0.6595 -0.1413
  164MOL   C12749353   5.140   3.249   5.893  0.2271 -0.8202  0.3239
  164MOL   C12849354   5.252   3.333   5.880 -0.2689 -0.4732  0.0246
  164MOL   N12949355   5.278   3.438   5.958 -0.4737 -0.2405  0.3462
  164MOL   H13049356   5.328   3.766   6.078  0.7407  0.7268 -0.5731
  164MOL   H13149357   5.263   3.685   5.946  0.6351  3.2037  0.0237
  164MOL   H13249358   5.153   3.601   6.221 -1.0542  1.2997 -1.2681
  164MOL   H13349359   5.015   3.409   6.162 -0.9079 -1.2654 -0.9195
  164MOL   H13449360   4.979   3.194   6.024  1.1618 -1.3144  1.3498
  164MOL   H13549361   5.120   3.168   5.824 -0.7672 -0.6291  0.3850
  164MOL   H13649362   5.333   3.316   5.811  0.4216  1.4031  0.3727
  164MOL   C13749363   5.365   3.556   6.221  0.7465  0.0296 -0.2119
  164MOL   C13849364   5.364   3.602   6.367  0.4616 -0.7113  0.2967
  164MOL   C13949365   5.251   3.545   6.449  0.6914  0.4307 -0.2243
  164MOL   C14049366   5.164   3.627   6.524 -0.1368  0.0223  0.1036
  164MOL   C14149367   5.050   3.564   6.582  1.0694  0.0470  0.2282
  164MOL   C14249368   5.040   3.425   6.562  0.3606 -0.4948  0.9764
  164MOL   C14349369   5.130   3.350   6.491  0.0404  0.5456 -0.0880
  164MOL   N14449370   5.232   3.411   6.436 -0.3250  0.1782  0.0161
  164MOL   H14549371   5.439   3.599   6.154  0.6990 -0.3526 -0.5109
  164MOL   H14649372   5.385   3.449   6.222  1.7724  0.1934  3.0245
  164MOL   H14749373   5.341   3.709   6.371  1.1180 -0.4318 -2.1342
  164MOL   H14849374   5.169   3.734   6.537  1.9099 -0.1715  1.1548
  164MOL   H14949375   4.977   3.613   6.644  0.3016  1.0270 -1.4257
  164MOL   H15049376   4.966   3.370   6.618 -0.3701 -0.8194 -0.2708
  164MOL   H15149377   5.132   3.243   6.476 -1.3662  0.5485 -0.3339
  164MOL   C15249378   5.502   3.581   6.437  0.0647  0.3852  0.3904
  164MOL   C15349379   5.616   3.659   6.368  0.5713  0.1986  0.3907
  164MOL   C15449380   5.582   3.805   6.366 -0.1057  0.2934 -0.1206
  164MOL   C15549381   5.549   3.864   6.238 -0.6749 -0.9565  0.3409
  164MOL   C15649382   5.500   3.995   6.239 -0.1614  0.0549  0.3808
  164MOL   C15749383   5.483   4.057   6.364 -0.9669  0.2562 -0.4070
  164MOL   C15849384   5.516   3.995   6.482  0.0576  0.2637 -0.2505
  164MOL   N15949385   5.576   3.869   6.483 -0.9976 -0.6173 -0.0508
  164MOL   H16049386   5.521   3.473   6.431 -2.1566  0.0733 -2.8476
  164MOL   H16149387   5.500   3.599   6.544 -0.5950  2.1431  0.0875
  164MOL   H16249388   5.625   3.615   6.269 -2.3743 -1.6118  0.8553
  164MOL   H16349389   5.540   3.804   6.148 -0.5709 -0.9447  0.3231
  164MOL   H16449390   5.459   4.040   6.149 -0.5322 -0.8936  0.0661
  164MOL   H16549391   5.431   4.150   6.379  0.2614  0.7937  0.6395
  164MOL   H16649392   5.512   4.033   6.583  2.2367 -2.4346  0.9224
  164MOL   C16749393   5.750   3.633   6.445 -0.1480  0.3284  0.5658
  164MOL   C16849394   5.870   3.687   6.352  0.2086 -0.3461 -0.2778
  164MOL   C16949395   5.986   3.716   6.450 -0.6705  0.1404  0.1606
  164MOL   C17049396   6.030   3.845   6.486  0.1863 -0.1547 -0.0121
  164MOL   C17149397   6.140   3.860   6.565  0.6184 -0.3706 -0.6329
  164MOL   C17249398   6.210   3.744   6.613  0.0444  0.2214  0.5618
  164MOL   C17349399   6.160   3.624   6.575 -0.7099  0.2023  0.9758
  164MOL   N17449400   6.048   3.606   6.499  0.0404 -0.0388 -0.3013
  164MOL   H17549401   5.775   3.527   6.453  0.4106  0.4065 -0.1417
  164MOL   H17649402   5.752   3.675   6.546 -1.0834 -1.3678  1.3024
  164MOL   H17749403   5.841   3.786   6.317  2.1310  1.2128  2.3688
  164MOL   H17849404   5.971   3.931   6.459  1.7799  0.9620  0.0375
  164MOL   H17949405   6.172   3.958   6.599 -0.5334 -1.2744  3.3084
  164MOL   H18049406   6.297   3.740   6.676  1.1913 -0.4458 -1.0449
  164MOL   H18149407   6.201   3.528   6.601 -0.0535 -0.1660 -1.3301
  164MOL   C18249408   5.912   3.606   6.227  0.3636 -0.0457 -0.2282
  164MOL   C18349409   6.053   3.626   6.170 -0.2878 -0.9249 -0.7287
  164MOL   C18449410   6.102   3.512   6.087 -0.2379  0.7356 -0.1045
  164MOL   C18549411   6.056   3.494   5.953  0.9336  0.2053  0.1500
  164MOL   C18649412   6.101   3.386   5.874  0.2166 -0.2696 -0.5126
  164MOL   C18749413   6.171   3.286   5.942 -0.2877  0.3626  0.1276
  164MOL   C18849414   6.206   3.309   6.078 -0.4122 -0.0742 -0.0490
  164MOL   N18949415   6.167   3.414   6.151 -0.6299 -0.9526  0.2818
  164MOL   H19049416   5.838   3.613   6.147 -0.4259 -0.7567  0.4296
  164MOL   H19149417   5.917   3.500   6.253 -0.9427  0.1222  0.7420
  164MOL   H19249418   6.119   3.632   6.257  0.1212  1.1835 -1.1538
  164MOL   H19349419   5.996   3.562   5.895  0.6389  0.3937  0.6699
  164MOL   H19449420   6.078   3.373   5.769  0.2864  1.7147 -0.8010
  164MOL   H19549421   6.197   3.190   5.901  0.0441 -0.0974  1.4031
  164MOL   H19649422   6.261   3.230   6.127  0.2726  0.2578 -0.2886
  164MOL   C19749423   6.065   3.764   6.099  0.0751  0.1111 -0.2440
  164MOL   C19849424   6.206   3.799   6.046  0.2935 -0.1243  0.5004
  164MOL   C19949425   6.214   3.911   5.945 -0.5594  0.2306 -0.4799
  164MOL   C20049426   6.275   3.891   5.824 -0.3554 -0.5674  0.6403
  164MOL   C20149427   6.296   4.001   5.742 -0.6821 -0.3251 -0.3484
  164MOL   C20249428   6.256   4.131   5.780 -0.0562  0.1490 -0.2835
  164MOL   C20349429   6.203   4.143   5.908  0.4761  0.4071 -0.7080
  164MOL   N20449430   6.179   4.037   5.989  0.7947 -0.5353  0.8411
  164MOL   H20549431   6.033   3.841   6.169 -0.6379  0.0677 -0.5183
  164MOL   H20649432   5.994   3.762   6.017 -2.2491 -2.1044  1.6930
  164MOL   H20749433   6.239   3.706   5.998  1.0678 -1.9370  4.3823
  164MOL   H20849434   6.296   3.787   5.800  0.0245  0.1018 -2.0912
  164MOL   H20949435   6.333   3.985   5.642  1.8462  2.6532  0.0430
  164MOL   H21049436   6.264   4.216   5.714 -0.0493  1.3275  1.2043
  164MOL   H21149437   6.163   4.232   5.953 -2.0179 -0.3951 -1.2273
  164MOL   C21249438   6.302   3.824   6.167  0.3016 -0.3144 -0.5728
  164MOL   C21349439   6.414   3.724   6.185 -0.4002  0.4337 -0.8766
  164MOL   C21449440   6.484   3.696   6.050  0.2155 -0.2003 -0.7191
  164MOL   C21549441   6.482   3.564   6.004  0.8388 -0.2425 -0.5718
  164MOL   C21649442   6.553   3.531   5.885 -0.1343  0.2368  0.4481
  164MOL   C21749443   6.603   3.638   5.808  0.6034  0.1727  0.5919
  164MOL   C21849444   6.608   3.766   5.868 -1.0307 -0.7104 -0.1830
  164MOL   N21949445   6.547   3.797   5.983 -0.4639 -0.5114 -0.4657
  164MOL   H22049446   6.253   3.861   6.258  1.8827  1.9027 -0.5895
  164MOL   H22149447   6.358   3.910   6.130  0.2350 -0.8216 -1.8459
  164MOL   H22249448   6.365   3.631   6.217 -2.0931  2.0246  1.2661
  164MOL   H22349449   6.436   3.491   6.068  1.3930  0.8341  1.0857
  164MOL   H22449450   6.569   3.428   5.857  0.1307  0.0266  1.3557
  164MOL   H22549451   6.665   3.617   5.722 -1.3050  0.2360 -0.8411
  164MOL   H22649452   6.655   3.846   5.814  1.4341 -1.7914  0.2954
  164MOL   C22749453   6.507   3.750   6.307  0.2267 -0.4322  0.0864
  164MOL   C22849454   6.601   3.867   6.302 -0.2630  0.2784  0.9783
  164MOL   C22949455   6.517   3.993   6.325 -0.5760  0.3665  0.3853
  164MOL   C23049456   6.498   4.082   6.214 -0.1993 -0.3426  0.5124
  164MOL   C23149457   6.425   4.205   6.227 -0.0294  0.8811 -1.0021
  164MOL   C23249458   6.364   4.223   6.353  0.2776  0.1293 -0.2000
  164MOL   C23349459   6.381   4.131   6.453  0.3244  0.1543 -0.5781
  164MOL   N23449460   6.459   4.019   6.440  0.1739 -0.7513  0.0260
  164MOL   H23549461   6.566   3.658   6.299  1.4965  0.2140  1.7249
  164MOL   H23649462   6.457   3.743   6.404 -2.5905  0.6990 -1.2527
  164MOL   H23749463   6.643   3.882   6.203 -0.6190  0.4983  0.8607
  164MOL   H23849464   6.535   4.044   6.120 -0.3669  2.3474 -0.6565
  164MOL   H23949465   6.424   4.278   6.147  1.8021 -0.8804 -2.7009
  164MOL   H24049466   6.315   4.315   6.380 -0.3907 -0.4382  0.5313
  164MOL   H24149467   6.359   4.150   6.557  1.6416 -2.2771  0.1958
  164MOL   C24249468   6.729   3.845   6.392  0.1790  0.1278  0.1433
  164MOL   C24349469   6.837   3.759   6.324 -0.0277 -0.3406 -0.4788
  164MOL   C24449470   6.922   3.848   6.237  0.0135  0.7040  0.7535
  164MOL   C24549471   6.922   3.828   6.097 -0.3292 -0.0666 -0.1042
  164MOL   C24649472   7.015   3.902   6.019 -0.3110 -0.1950 -0.9932
  164MOL   C24749473   7.087   4.005   6.081 -0.4546  0.0583 -0.1104
  164MOL   C24849474   7.065   4.022   6.222 -0.2289  0.6054 -0.5709
  164MOL   N24949475   6.990   3.940   6.300  0.9493  0.4645 -0.4833
  164MOL   H25049476   6.692   3.798   6.483  1.7328  0.2684  0.8785
  164MOL   H25149477   6.766   3.942   6.425  1.4536 -0.9697  2.0410
  164MOL   H25249478   6.788   3.701   6.246 -1.0388  0.9676 -0.8481
  164MOL   H25349479   6.852   3.763   6.046  1.3590 -1.5298 -0.6040
  164MOL   H25449480   7.023   3.899   5.912 -1.5977 -1.2182 -1.0720
  164MOL   H25549481   7.147   4.080   6.030 -0.8212 -0.5850 -1.5025
  164MOL   H25649482   7.119   4.095   6.282 -1.1076  3.1163 -2.7394
  164MOL   C25749483   6.921   3.671   6.418 -0.0632  0.2471  0.5191
  164MOL   C25849484   6.848   3.557   6.501 -0.1902 -0.6232 -0.3631
  164MOL   C25949485   6.762   3.472   6.411  0.0076 -0.3728 -0.2392
  164MOL   C26049486   6.815   3.407   6.295 -0.3833  0.0130  0.3616
  164MOL   C26149487   6.736   3.329   6.206 -0.1194 -0.0407 -0.4952
  164MOL   C26249488   6.598   3.333   6.236 -0.3172 -0.0808 -0.0853
  164MOL   C26349489   6.550   3.397   6.346 -0.1702  0.3641  0.5832
  164MOL   N26449490   6.628   3.459   6.434 -0.3700 -0.2360 -0.4148
  164MOL   H26549491   6.979   3.733   6.487  0.6794  0.7231 -0.5160
  164MOL   H26649492   7.003   3.636   6.356  0.7687  2.0441  0.5604
  164MOL   H26749493   6.783   3.608   6.572 -0.5342 -0.6246 -0.6769
  164MOL   H26849494   6.922   3.412   6.279 -0.2407 -0.6602  1.0687
  164MOL   H26949495   6.779   3.286   6.117  0.3973 -1.3346  0.3576
  164MOL   H27049496   6.531   3.284   6.167  0.0379  0.6208 -0.9323
  164MOL   H27149497   6.446   3.398   6.373 -0.1544 -2.6797  0.9539
  164MOL   C27249498   6.944   3.473   6.586  0.6276  0.0987  0.5026
  164MOL   C27349499   6.880   3.421   6.716 -0.0634  0.2215 -0.0207
  164MOL   C27449500   6.953   3.291   6.763 -1.1261  0.0156 -0.2637
  164MOL   C27549501   6.907   3.162   6.741 -0.0568  0.5193 -0.4249
  164MOL   C27649502   6.981   3.047   6.775  0.1289 -0.3891  0.2692
  164MOL   C27749503   7.110   3.073   6.832 -0.9900  0.0564  0.5269
  164MOL   C27849504   7.155   3.207   6.845 -0.0973  0.2908  0.2892
  164MOL   N27949505   7.079   3.307   6.809  0.7932  0.0800 -0.6823
  164MOL   H28049506   7.034   3.533   6.601 -0.2250  1.8542 -1.1984
  164MOL   H28149507   6.981   3.388   6.529 -0.4256  0.0988 -0.1936
  164MOL   H28249508   6.780   3.378   6.701 -0.9370  2.2294 -0.1336
  164MOL   H28349509   6.805   3.158   6.704  0.1781  2.8729 -1.3662
  164MOL   H28449510   6.947   2.952   6.735  1.5511 -0.4830 -0.7821
  164MOL   H28549511   7.189   3.002   6.852 -1.9698 -0.8177  1.3906
  164MOL   H28649512   7.250   3.219   6.896  0.5393 -1.2524 -0.4941
  164MOL   C28749513   6.857   3.528   6.825  0.0223  0.6769 -0.3364
  164MOL   C28849514   6.766   3.484   6.934 -0.1456  0.3681  0.2052
  164MOL   C28949515   6.617   3.495   6.902 -0.1205 -0.3888 -0.3481
  164MOL   C29049516   6.539   3.387   6.847  0.3271  0.7528 -0.2331
  164MOL   C29149517   6.397   3.405   6.847 -0.2976  0.1924 -0.1279
  164MOL   C29249518   6.347   3.529   6.884 -0.1427  0.1328 -0.3553
  164MOL   C29349519   6.430   3.630   6.930  0.0640  0.3259  0.2043
  164MOL   N29449520   6.561   3.608   6.943  0.7035  0.7929 -0.5485
  164MOL   H29549521   6.817   3.618   6.779 -4.1959 -2.1581 -2.6077
  164MOL   H29649522   6.955   3.546   6.868  0.5636  0.0206 -1.2745
  164MOL   H29749523   6.795   3.548   7.017 -1.1150 -0.4005  1.1367
  164MOL   H29849524   6.581   3.289   6.834  0.0165  0.7010 -0.8522
  164MOL   H29949525   6.322   3.328   6.836 -1.8646  1.4985  1.2042
  164MOL   H30049526   6.239   3.529   6.891 -0.0664 -0.5983  0.9472
  164MOL   H30149527   6.395   3.729   6.956  0.7137  1.2522 -2.2474
  164MOL   H30249528   6.787   3.381   6.962 -3.8839 -1.1284 -2.1646
  165MOL     C149529   5.780   7.682   2.845 -0.1297  0.2805 -0.1375
  165MOL     C249530   5.914   7.674   2.776  0.4933 -0.2721 -0.7290
  165MOL     C349531   6.025   7.713   2.872 -0.4504  0.1761  0.1645
  165MOL     C449532   6.074   7.840   2.869 -0.0568  0.6638 -0.2576
  165MOL     C549533   6.196   7.864   2.940 -0.1206 -0.3429  0.4052
  165MOL     C649534   6.253   7.763   3.016  0.0266  0.3399  0.5073
  165MOL     C749535   6.190   7.638   3.020  0.3959  0.1816  0.0623
  165MOL     N849536   6.080   7.612   2.943  0.1121  0.0151  0.0395
  165MOL     H949537   5.701   7.641   2.781  0.6290 -1.9011  0.2743
  165MOL    H1049538   5.786   7.621   2.935 -0.5007 -0.1728 -0.4158
  165MOL    H1149539   5.920   7.749   2.697  1.4001 -1.6129 -1.9611
  165MOL    H1249540   6.037   7.914   2.800  0.8522  3.0777  1.7769
  165MOL    H1349541   6.245   7.959   2.929 -0.0010 -0.5951 -1.4217
  165MOL    H1449542   6.334   7.780   3.086 -0.1564 -0.3353  0.8955
  165MOL    H1549543   6.232   7.563   3.085 -1.2185 -1.3445 -0.5950
  165MOL    H1649544   5.756   7.787   2.859  0.3134  0.4070 -0.3178
  165MOL    C1749545   5.950   7.539   2.705 -0.1746  0.3662 -0.1296
  165MOL    C1849546   5.871   7.503   2.579 -0.2514  0.0229  0.5241
  165MOL    C1949547   5.857   7.623   2.484 -0.1780  0.3748  0.0300
  165MOL    C2049548   5.957   7.650   2.384  0.2705 -0.0180 -0.7436
  165MOL    C2149549   5.942   7.762   2.304  0.0424 -1.0916  0.1310
  165MOL    C2249550   5.827   7.841   2.306  0.3310  0.4156  0.1621
  165MOL    C2349551   5.728   7.797   2.398 -0.4767  0.2490 -0.1663
  165MOL    N2449552   5.743   7.697   2.488  0.0311 -0.2722  0.2852
  165MOL    H2549553   5.942   7.453   2.773  0.2331  1.7739  1.7385
  165MOL    H2649554   6.058   7.537   2.689 -0.1249 -1.2719  0.2772
  165MOL    H2749555   5.772   7.477   2.617 -0.4258  0.3881  0.3234
  165MOL    H2849556   6.047   7.592   2.376  0.6320  0.2301  1.2298
  165MOL    H2949557   6.021   7.789   2.236 -1.6914  1.7011 -0.8705
  165MOL    H3049558   5.810   7.928   2.245 -1.9796 -0.7388 -0.8968
  165MOL    H3149559   5.644   7.864   2.414  0.8224  1.9725 -0.4210
  165MOL    C3249560   5.909   7.371   2.504 -0.5592  0.1581  0.3779
  165MOL    C3349561   5.897   7.246   2.590  1.2318  0.4254 -0.0408
  165MOL    C3449562   5.758   7.225   2.643 -0.7292  0.5802  0.5194
  165MOL    C3549563   5.730   7.227   2.781  0.0421  0.4512  0.9136
  165MOL    C3649564   5.595   7.211   2.827  0.3368 -0.2044  0.4906
  165MOL    C3749565   5.496   7.186   2.728  0.0617 -0.3901 -0.5437
  165MOL    C3849566   5.546   7.180   2.592  0.1827  0.5986 -0.1666
  165MOL    N3949567   5.672   7.196   2.551  0.3951  0.6620 -0.6171
  165MOL    H4049568   6.012   7.389   2.473 -2.0817  2.8485 -3.5772
  165MOL    H4149569   5.849   7.371   2.413  2.3193  4.6116 -1.6844
  165MOL    H4249570   5.956   7.257   2.682 -0.3265 -0.5658  1.1020
  165MOL    H4349571   5.810   7.233   2.853  2.7294 -0.5500 -1.8861
  165MOL    H4449572   5.565   7.211   2.931  1.7855 -2.1594  0.9453
  165MOL    H4549573   5.395   7.161   2.755  0.5449 -1.0170  0.7104
  165MOL    H4649574   5.469   7.168   2.517  0.5459  3.2091 -1.0470
  165MOL    C4749575   5.961   7.124   2.514 -0.0748 -0.3879 -0.1030
  165MOL    C4849576   5.971   6.988   2.582 -0.3194 -0.6564  0.8318
  165MOL    C4949577   5.998   6.876   2.480 -0.3034 -0.1302  0.4976
  165MOL    C5049578   5.934   6.750   2.490 -0.7285 -0.4993 -0.2347
  165MOL    C5149579   5.974   6.653   2.399 -0.2835  0.2341 -0.4287
  165MOL    C5249580   6.083   6.672   2.315  0.8795 -0.3031 -0.9530
  165MOL    C5349581   6.146   6.791   2.327 -0.0605 -0.3963  0.1534
  165MOL    N5449582   6.102   6.897   2.396  0.1530  0.2629  0.1950
  165MOL    H5549583   6.058   7.161   2.480  0.6744 -2.3733 -0.1974
  165MOL    H5649584   5.897   7.115   2.426 -0.9261 -0.6488  0.5323
  165MOL    H5749585   5.875   6.973   2.632  0.2793 -3.4560  1.2036
  165MOL    H5849586   5.858   6.732   2.565  0.0360 -0.6914  0.4891
  165MOL    H5949587   5.916   6.562   2.394 -1.0368  0.7251 -0.9712
  165MOL    H6049588   6.129   6.595   2.255  1.1353  0.3286 -1.5702
  165MOL    H6149589   6.237   6.800   2.269 -0.1948 -0.8751 -0.1354
  165MOL    C6249590   6.089   6.995   2.686  0.1457 -0.1982  0.0291
  165MOL    C6349591   6.077   6.929   2.830 -0.4962 -0.0916 -0.1183
  165MOL    C6449592   6.052   6.780   2.821 -1.2864  0.4746 -0.1603
  165MOL    C6549593   5.936   6.716   2.877 -0.4915 -0.4569 -0.5185
  165MOL    C6649594   5.937   6.576   2.887  0.2403 -0.3866  0.0517
  165MOL    C6749595   6.045   6.501   2.836  0.7949  0.0427 -0.3528
  165MOL    C6849596   6.151   6.576   2.779  0.4755 -0.4685 -0.3070
  165MOL    N6949597   6.165   6.709   2.781 -0.1142 -1.2997 -0.0064
  165MOL    H7049598   6.112   7.099   2.710 -2.8393  0.9562 -1.8358
  165MOL    H7149599   6.176   6.949   2.639 -0.0561 -1.1197  0.5439
  165MOL    H7249600   5.992   6.963   2.888 -0.3146 -0.7335  0.5278
  165MOL    H7349601   5.853   6.770   2.918 -1.9860 -2.8077 -0.3648
  165MOL    H7449602   5.840   6.537   2.913  0.2207 -0.5027 -0.1996
  165MOL    H7549603   6.047   6.393   2.842  0.5125  0.1898  3.1792
  165MOL    H7649604   6.239   6.527   2.740  0.8245  1.0873 -1.4931
  165MOL    C7749605   6.197   6.960   2.922 -0.2860 -0.0321  0.7085
  165MOL    C7849606   6.200   7.085   3.014 -0.3193 -0.1554  0.2768
  165MOL    C7949607   6.068   7.150   3.053 -0.0007  0.2297  0.4044
  165MOL    C8049608   6.056   7.289   3.033  0.0936 -0.3273 -0.2307
  165MOL    C8149609   5.934   7.347   3.080  0.8869  0.0762  0.0365
  165MOL    C8249610   5.834   7.265   3.131  0.4140  0.2027 -0.3668
  165MOL    C8349611   5.854   7.131   3.144 -0.3192 -0.6843 -0.5160
  165MOL    N8449612   5.973   7.074   3.111  0.5539  0.2279  0.0552
  165MOL    H8549613   6.288   6.963   2.862 -1.6604  0.4579 -1.4087
  165MOL    H8649614   6.216   6.876   2.988  2.4387  2.1742  2.8514
  165MOL    H8749615   6.257   7.160   2.958 -2.3729  0.9416 -0.3888
  165MOL    H8849616   6.121   7.353   2.976 -1.6272  0.7253 -1.0660
  165MOL    H8949617   5.914   7.453   3.067 -2.1867 -0.1378  2.4629
  165MOL    H9049618   5.747   7.322   3.159 -0.5784 -0.6499 -1.6404
  165MOL    H9149619   5.781   7.067   3.191 -1.3940  0.7419 -0.2053
  165MOL    C9249620   6.289   7.050   3.139  0.0960 -0.8911 -0.0672
  165MOL    C9349621   6.326   7.165   3.235 -0.6506  0.8311  0.1598
  165MOL    C9449622   6.409   7.100   3.340 -0.0697 -0.6290 -0.5699
  165MOL    C9549623   6.359   7.100   3.477 -0.5673 -0.1812  0.3298
  165MOL    C9649624   6.430   7.029   3.574  0.5454  0.0968 -0.0047
  165MOL    C9749625   6.547   6.965   3.535 -0.0607 -0.0316 -0.3043
  165MOL    C9849626   6.594   6.984   3.405 -0.4666  0.0574 -0.1743
  165MOL    N9949627   6.530   7.045   3.304 -0.1092  0.3095  0.0712
  165MOL   H10049628   6.382   7.005   3.106  0.8827  0.7181 -0.0971
  165MOL   H10149629   6.237   6.975   3.199 -1.0742  1.9177  2.5332
  165MOL   H10249630   6.228   7.195   3.273 -0.2257  0.1879  1.7924
  165MOL   H10349631   6.265   7.140   3.511 -1.5902 -1.6927 -0.6909
  165MOL   H10449632   6.382   7.021   3.670 -0.0340  0.6558 -0.2411
  165MOL   H10549633   6.597   6.901   3.607  0.1876  2.5605  1.8812
  165MOL   H10649634   6.682   6.928   3.376 -1.1835 -1.0940 -0.1559
  165MOL   C10749635   6.398   7.287   3.164 -0.0996 -1.1683 -0.3757
  165MOL   C10849636   6.456   7.382   3.269  0.0009  0.9453 -0.2856
  165MOL   C10949637   6.571   7.469   3.208 -0.5228 -0.0995 -0.0925
  165MOL   C11049638   6.696   7.406   3.205 -0.7317  0.7951 -0.1200
  165MOL   C11149639   6.797   7.469   3.136 -0.4202 -0.3207 -0.0213
  165MOL   C11249640   6.761   7.588   3.066 -0.1801 -0.0675 -0.2463
  165MOL   C11349641   6.633   7.638   3.067  0.5666 -0.2102  0.4045
  165MOL   N11449642   6.537   7.586   3.146  0.3699 -0.2140  0.2854
  165MOL   H11549643   6.342   7.335   3.084  3.7085  1.9071 -1.3300
  165MOL   H11649644   6.484   7.247   3.111  1.1451 -1.8750  2.0948
  165MOL   H11749645   6.504   7.327   3.350 -0.3922  0.1618 -0.5810
  165MOL   H11849646   6.725   7.322   3.267  2.2716 -0.4476 -3.0531
  165MOL   H11949647   6.898   7.432   3.132 -0.1859  0.2642  0.3195
  165MOL   H12049648   6.844   7.636   3.017  1.2551 -2.2215 -0.0074
  165MOL   H12149649   6.611   7.734   3.023 -0.7856 -0.0326  1.4311
  165MOL   C12249650   6.344   7.469   3.334 -0.7708 -0.0543  0.1516
  165MOL   C12349651   6.351   7.462   3.489  0.5732  0.0701  0.1981
  165MOL   C12449652   6.486   7.489   3.557  0.5328  0.1379  0.3628
  165MOL   C12549653   6.553   7.380   3.614 -0.3750 -0.4184  0.0648
  165MOL   C12649654   6.682   7.403   3.667 -0.1646 -1.0118  0.5647
  165MOL   C12749655   6.732   7.531   3.658 -0.1463  0.3783 -0.0558
  165MOL   C12849656   6.650   7.638   3.607 -0.0482  0.3057 -0.1456
  165MOL   N12949657   6.530   7.618   3.555  0.0292  0.3746 -0.0188
  165MOL   H13049658   6.250   7.425   3.302 -0.6741 -0.6300  0.6426
  165MOL   H13149659   6.346   7.572   3.300  0.9512 -1.0315 -2.9100
  165MOL   H13249660   6.323   7.357   3.505 -1.1059 -0.0516 -3.2553
  165MOL   H13349661   6.522   7.277   3.607 -0.5856 -0.1942 -2.6237
  165MOL   H13449662   6.737   7.319   3.707 -2.1940 -1.4895  2.5112
  165MOL   H13549663   6.826   7.557   3.704  0.2982 -3.2892  1.2690
  165MOL   H13649664   6.688   7.739   3.605 -0.9753  0.6677  0.1655
  165MOL   C13749665   6.245   7.555   3.561 -0.3749  0.8548  0.4316
  165MOL   C13849666   6.107   7.481   3.596 -0.1225 -0.8213  0.1102
  165MOL   C13949667   6.130   7.344   3.665 -0.3288 -0.1348 -0.1802
  165MOL   C14049668   6.230   7.329   3.769  0.0206  0.1857  0.2725
  165MOL   C14149669   6.238   7.212   3.832 -0.5920 -0.1859  0.3638
  165MOL   C14249670   6.144   7.115   3.805  0.5070  0.1622 -0.2450
  165MOL   C14349671   6.051   7.129   3.701 -0.2891 -0.1717 -0.5772
  165MOL   N14449672   6.042   7.247   3.634  0.5471  0.4990  0.2057
  165MOL   H14549673   6.231   7.649   3.508  1.0369  0.9499  0.2048
  165MOL   H14649674   6.278   7.578   3.663  2.3268  0.1861 -0.2573
  165MOL   H14749675   6.051   7.459   3.505  1.0850  1.7626 -1.3053
  165MOL   H14849676   6.300   7.405   3.801 -0.7336  1.0856 -0.1854
  165MOL   H14949677   6.312   7.193   3.908  1.8818  0.0088 -1.9327
  165MOL   H15049678   6.157   7.021   3.857 -0.2023 -1.4500 -2.9074
  165MOL   H15149679   5.983   7.050   3.671 -0.1907 -0.0135 -1.2195
  165MOL   C15249680   6.009   7.567   3.680 -0.2514 -0.5112 -0.4871
  165MOL   C15349681   5.960   7.699   3.613 -0.4487  0.0560  0.5412
  165MOL   C15449682   5.881   7.668   3.487 -0.5420  0.0148  0.2973
  165MOL   C15549683   5.919   7.719   3.357  0.0225 -0.1384  0.0459
  165MOL   C15649684   5.835   7.698   3.253  0.0092  0.8367  0.5543
  165MOL   C15749685   5.721   7.619   3.276 -0.2504 -0.5479 -0.4758
  165MOL   C15849686   5.692   7.579   3.407  0.1913 -0.0183  0.7645
  165MOL   N15949687   5.776   7.596   3.506 -0.4029 -0.2845  0.3160
  165MOL   H16049688   6.062   7.609   3.765  0.7159  0.7000 -1.6623
  165MOL   H16149689   5.925   7.506   3.713  1.0098 -2.0952 -0.1740
  165MOL   H16249690   6.046   7.761   3.586  0.3834 -2.1380 -1.9896
  165MOL   H16349691   6.009   7.777   3.342 -0.2722  0.8242  1.8137
  165MOL   H16449692   5.870   7.734   3.157  1.4106 -1.8973 -0.0294
  165MOL   H16549693   5.655   7.585   3.197 -0.1722  0.3423 -0.9251
  165MOL   H16649694   5.596   7.534   3.426 -0.3353  0.3969 -0.8523
  165MOL   C16749695   5.868   7.778   3.702  0.3744 -0.1263 -0.1537
  165MOL   C16849696   5.939   7.863   3.810 -0.1496  0.2917 -0.0039
  165MOL   C16949697   5.996   7.996   3.751  0.3439 -0.0075 -0.2666
  165MOL   C17049698   5.911   8.107   3.727 -0.1874  0.3845  0.4753
  165MOL   C17149699   5.970   0.081   3.699  0.1641  0.2706  0.0597
  165MOL   C17249700   6.113   0.097   3.694 -0.1723 -0.8002 -0.2540
  165MOL   C17349701   6.183   8.130   3.702  0.6404  0.0916 -0.2375
  165MOL   N17449702   6.127   8.011   3.735  0.4099  0.5664 -0.5192
  165MOL   H17549703   5.786   7.712   3.731  1.3940 -1.8771 -1.1824
  165MOL   H17649704   5.820   7.846   3.631 -0.8609  0.9246  1.6554
  165MOL   H17749705   6.023   7.801   3.842  0.9276  1.5744 -0.2694
  165MOL   H17849706   5.804   8.099   3.739 -0.4737  2.2626 -0.5199
  165MOL   H17949707   5.901   0.160   3.674 -1.3838 -0.5050  1.7194
  165MOL   H18049708   6.171   0.183   3.663 -0.0624 -0.1480  1.7048
  165MOL   H18149709   6.290   8.145   3.707  0.7743 -0.8746 -0.0168
  165MOL   C18249710   5.841   7.893   3.927  0.2548  0.3968  0.1398
  165MOL   C18349711   5.801   7.774   4.011  0.4119  0.6026 -0.1054
  165MOL   C18449712   5.923   7.683   4.058  0.1446 -0.1345  0.3796
  165MOL   C18549713   5.953   7.556   3.998  0.5171  0.6678 -0.6986
  165MOL   C18649714   6.075   7.495   4.029  0.6035 -0.4806 -0.2318
  165MOL   C18749715   6.159   7.549   4.123  0.0768  0.8990 -0.2882
  165MOL   C18849716   6.122   7.668   4.188 -0.5843  0.2310 -0.0322
  165MOL   N18949717   6.003   7.734   4.159 -0.0021 -0.0946 -0.1703
  165MOL   H19049718   5.748   7.933   3.886  0.8629  0.7733 -0.8803
  165MOL   H19149719   5.882   7.967   3.995  1.0145  1.3253 -1.3184
  165MOL   H19249720   5.741   7.705   3.952  0.6853  0.5066 -0.2740
  165MOL   H19349721   5.896   7.504   3.922  3.0342 -0.6846 -1.7293
  165MOL   H19449722   6.099   7.403   3.979 -2.3092 -0.8374 -1.0838
  165MOL   H19549723   6.255   7.504   4.142  0.8742  1.7048 -2.2990
  165MOL   H19649724   6.187   7.701   4.268  0.1378 -1.9149  0.2779
  165MOL   C19749725   5.705   7.823   4.123  0.6380  0.7695  0.8762
  165MOL   C19849726   5.557   7.848   4.075 -0.2126  0.4676  0.3783
  165MOL   C19949727   5.458   7.745   4.124  0.5439  0.7607  0.3285
  165MOL   C20049728   5.398   7.671   4.023 -0.2769 -0.4996  0.4404
  165MOL   C20149729   5.301   7.581   4.067  0.1392  0.2092 -0.0378
  165MOL   C20249730   5.261   7.576   4.198  0.4125  0.3467 -0.2835
  165MOL   C20349731   5.320   7.666   4.284 -0.3119 -0.4231  0.8043
  165MOL   N20449732   5.423   7.742   4.251 -0.1417 -0.6707  0.7451
  165MOL   H20549733   5.738   7.914   4.174  0.2253  1.5153 -0.1642
  165MOL   H20649734   5.710   7.741   4.195 -1.7814 -1.3506 -1.2897
  165MOL   H20749735   5.554   7.852   3.966  2.2766 -0.2789  0.2572
  165MOL   H20849736   5.433   7.683   3.922 -0.1706  0.5119  0.5919
  165MOL   H20949737   5.251   7.517   3.995  0.3796 -0.6085  0.5186
  165MOL   H21049738   5.179   7.513   4.231  1.4853 -0.7365  0.3903
  165MOL   H21149739   5.278   7.687   4.381 -1.6512 -0.0622  0.1557
  165MOL   C21249740   5.504   7.986   4.120 -0.6069  0.5951  0.4778
  165MOL   C21349741   5.571   8.104   4.049 -0.2854  0.7868  0.2183
  165MOL   C21449742   5.497   8.150   3.923 -0.2965  0.6364  0.9956
  165MOL   C21549743   5.396   0.088   3.929 -0.3576 -0.3649  0.2241
  165MOL   C21649744   5.324   0.110   3.812 -0.3759  0.2621 -0.8657
  165MOL   C21749745   5.352   0.035   3.696  0.8465 -0.3082 -0.3616
  165MOL   C21849746   5.464   8.105   3.700 -0.2711 -0.7655  0.3585
  165MOL   N21949747   5.533   8.086   3.813  0.0869 -0.1295 -0.3214
  165MOL   H22049748   5.527   8.001   4.226 -2.6761  1.5514  0.8193
  165MOL   H22149749   5.396   7.994   4.113 -1.1215 -4.6122  0.8936
  165MOL   H22249750   5.672   8.083   4.013 -0.6389  1.2758 -1.0752
  165MOL   H22349751   5.357   0.125   4.022 -1.2354 -1.7829  0.4330
  165MOL   H22449752   5.251   0.189   3.817  1.3416  2.0287 -2.8235
  165MOL   H22549753   5.297   0.046   3.604 -0.0871  1.9608  0.4393
  165MOL   H22649754   5.501   8.051   3.614  1.1373  3.9585 -2.1714
  165MOL   C22749755   5.593   0.075   4.141  0.8799 -0.0586 -0.5857
  165MOL   C22849756   5.735   0.090   4.217 -0.4258 -0.2240  0.0906
  165MOL   C22949757   5.837   0.159   4.130 -0.2079 -0.2832 -0.5344
  165MOL   C23049758   5.962   0.094   4.103 -0.8714 -0.0152  0.2286
  165MOL   C23149759   6.057   0.166   4.029 -0.0558  0.1652 -0.2808
  165MOL   C23249760   6.030   0.300   3.992 -0.8735  0.1552  0.4341
  165MOL   C23349761   5.909   0.353   4.025 -0.7861  0.6527  0.0002
  165MOL   N23449762   5.813   0.282   4.085 -0.0460  0.0645  0.1589
  165MOL   H23549763   5.514   0.055   4.214 -0.3468 -0.6497 -2.0614
  165MOL   H23649764   5.568   0.164   4.085 -0.6155  0.3691  0.7255
  165MOL   H23749765   5.771   8.140   4.234  1.0751  0.4112  0.8471
  165MOL   H23849766   5.973   8.140   4.119 -1.3566 -0.4325 -2.0295
  165MOL   H23949767   6.147   0.115   3.997  0.9663  1.1848  0.9015
  165MOL   H24049768   6.107   0.358   3.944  0.7641 -1.9405  0.4505
  165MOL   H24149769   5.896   0.455   3.992  2.0114  0.9006 -0.4447
  165MOL   C24249770   5.732   0.157   4.357 -0.2099  0.4596 -0.1121
  165MOL   C24349771   5.700   0.311   4.375  0.1324  0.3580  0.8687
  165MOL   C24449772   5.564   0.340   4.320 -0.8463 -0.5259  0.4348
  165MOL   C24549773   5.554   0.412   4.200 -1.1917 -0.1899 -0.2758
  165MOL   C24649774   5.429   0.418   4.137  0.2939  0.4727 -0.2765
  165MOL   C24749775   5.317   0.355   4.202 -0.4992 -0.0781  0.7105
  165MOL   C24849776   5.344   0.291   4.323  0.2647 -0.2006  0.2301
  165MOL   N24949777   5.466   0.279   4.381  0.1880  0.0069  0.0813
  165MOL   H25049778   5.833   0.134   4.390 -0.5235 -0.1314  0.4342
  165MOL   H25149779   5.672   0.097   4.425  0.7893 -0.5154 -0.0959
  165MOL   H25249780   5.768   0.361   4.305 -1.8724  0.9402 -0.7348
  165MOL   H25349781   5.647   0.442   4.153 -0.1249 -2.3402  0.4243
  165MOL   H25449782   5.435   0.447   4.033  2.1433 -0.2697 -0.4060
  165MOL   H25549783   5.215   0.358   4.166 -1.2057 -3.7337  2.1830
  165MOL   H25649784   5.265   0.236   4.372  0.4357  0.3333  1.1273
  165MOL   C25749785   5.716   0.367   4.520  0.6451 -0.2920 -0.0852
  165MOL   C25849786   5.863   0.384   4.556 -0.0652 -0.2943 -0.8764
  165MOL   C25949787   5.948   0.470   4.452  0.7583  0.6938  0.4734
  165MOL   C26049788   6.036   0.414   4.353  0.1059 -1.2785 -0.6876
  165MOL   C26149789   6.110   0.503   4.270  0.8090 -0.0437  0.2773
  165MOL   C26249790   6.092   0.641   4.275 -0.1087 -0.2418  0.0779
  165MOL   C26349791   5.994   0.683   4.365 -0.1672 -0.3970 -0.1808
  165MOL   N26449792   5.927   0.603   4.451 -0.5779 -0.6174  0.2303
  165MOL   H26549793   5.662   0.297   4.584 -3.7789  2.0691 -0.9862
  165MOL   H26649794   5.659   0.460   4.525 -1.6546 -1.7301  1.2266
  165MOL   H26749795   5.899   0.281   4.550 -0.6525 -0.4640 -1.6458
  165MOL   H26849796   6.044   0.307   4.348  3.1628 -0.9966 -3.4224
  165MOL   H26949797   6.183   0.458   4.204 -0.4219  2.1957 -2.7390
  165MOL   H27049798   6.152   0.703   4.210  2.6038 -0.8191  1.9583
  165MOL   H27149799   5.976   0.788   4.381 -0.0684 -0.4765  0.5019
  165MOL   C27249800   5.861   0.429   4.709 -0.3825  0.3899  0.3491
  165MOL   C27349801   5.990   0.511   4.752 -0.4062 -0.1765  0.0235
  165MOL   C27449802   5.955   0.605   4.862 -0.0232 -0.1910 -0.5088
  165MOL   C27549803   5.978   0.742   4.850  0.6289 -0.0210 -0.0556
  165MOL   C27649804   5.942   0.826   4.955 -0.3705 -1.1817  0.2592
  165MOL   C27749805   5.895   0.766   5.072  0.0354  0.0267 -0.4053
  165MOL   C27849806   5.879   0.626   5.078 -0.0293  0.1225  0.1770
  165MOL   N27949807   5.910   0.551   4.975 -0.4413  0.2160 -0.9415
  165MOL   H28049808   5.835   0.346   4.776  0.3647  0.4792  0.7520
  165MOL   H28149809   5.782   0.501   4.728 -0.3386  1.3668 -3.0007
  165MOL   H28249810   6.025   0.576   4.672  0.6762 -0.1647  0.4929
  165MOL   H28349811   6.006   0.784   4.754  0.8685  1.1767  0.5222
  165MOL   H28449812   5.958   0.933   4.948  1.3583 -1.2866  2.0858
  165MOL   H28549813   5.877   0.814   5.167 -0.7599 -1.9932  0.4864
  165MOL   H28649814   5.857   0.574   5.170  2.8087  1.7952  1.8604
  165MOL   C28749815   6.115   0.430   4.790  0.1799  0.3285 -0.3156
  165MOL   C28849816   6.200   0.380   4.665 -0.7052 -0.1200 -0.2656
  165MOL   C28949817   6.302   0.282   4.704 -0.2241 -0.0465 -0.7402
  165MOL   C29049818   6.265   0.161   4.770  0.5083 -0.1898  0.1439
  165MOL   C29149819   6.371   0.082   4.815  0.4483  0.2753 -0.0995
  165MOL   C29249820   6.503   0.114   4.785  0.6374  0.0176  0.5217
  165MOL   C29349821   6.527   0.233   4.713  0.3595  0.5209 -0.3584
  165MOL   N29449822   6.433   0.321   4.676 -0.6151 -0.6609 -0.2992
  165MOL   H29549823   6.085   0.348   4.855 -1.6883  0.8376 -0.4970
  165MOL   H29649824   6.177   0.490   4.856 -0.0036 -0.4956  0.6196
  165MOL   H29749825   6.239   0.463   4.607  1.1063  0.1438  1.2788
  165MOL   H29849826   6.163   0.141   4.798  0.5166  0.4191  0.6137
  165MOL   H29949827   6.350   8.141   4.866 -0.1927  1.4768  1.8783
  165MOL   H30049828   6.584   0.053   4.822  0.3598 -1.2687 -0.9123
  165MOL   H30149829   6.629   0.261   4.692 -0.0910  1.7532 -0.9678
  165MOL   H30249830   6.129   0.317   4.611  0.2355 -1.4273 -0.0119
   8.15185   8.15185   8.15185
