;
; Gromacs include topology (itp) file.
; For Molecular Group XYZ
; Force field scheme: opls2005
; Produced from DL_FIELD v4.11
;


[ moleculetype ]
; name    nrexcl
XYZ    3

[ atoms ]
; nr   type   resnr   residu    atom    cgnr    charge    mass
    1        CT    1  MOL      C1     1  -0.1800000   12.0115
    2        CT    1  MOL      C2     2   0.0550000   12.0115
    3        CA    1  MOL      C3     3   0.3700000   12.0115
    4        CA    1  MOL      C4     4  -0.4470000   12.0115
    5        CA    1  MOL      C5     5   0.2270000   12.0115
    6        CA    1  MOL      C6     6  -0.4470000   12.0115
    7        CA    1  MOL      C7     7   0.4730000   12.0115
    8        NB    1  MOL      N8     8  -0.6780000   14.0067
    9        HC    1  MOL      H9     9   0.0600000    1.0080
   10        HC    1  MOL     H10    10   0.0600000    1.0080
   11        HC    1  MOL     H11    11   0.0600000    1.0080
   12        HA    1  MOL     H12    12   0.1550000    1.0080
   13        HA    1  MOL     H13    13   0.0650000    1.0080
   14        HA    1  MOL     H14    14   0.1550000    1.0080
   15        HA    1  MOL     H15    15   0.0120000    1.0080
   16        HC    1  MOL     H16    16   0.0600000    1.0080
   17        CT    1  MOL     C17    17  -0.1200000   12.0115
   18        CT    1  MOL     C18    18   0.0550000   12.0115
   19        CA    1  MOL     C19    19   0.3700000   12.0115
   20        CA    1  MOL     C20    20  -0.4470000   12.0115
   21        CA    1  MOL     C21    21   0.2270000   12.0115
   22        CA    1  MOL     C22    22  -0.4470000   12.0115
   23        CA    1  MOL     C23    23   0.4730000   12.0115
   24        NB    1  MOL     N24    24  -0.6780000   14.0067
   25        HC    1  MOL     H25    25   0.0600000    1.0080
   26        HC    1  MOL     H26    26   0.0600000    1.0080
   27        HC    1  MOL     H27    27   0.0600000    1.0080
   28        HA    1  MOL     H28    28   0.1550000    1.0080
   29        HA    1  MOL     H29    29   0.0650000    1.0080
   30        HA    1  MOL     H30    30   0.1550000    1.0080
   31        HA    1  MOL     H31    31   0.0120000    1.0080
   32        CT    1  MOL     C32    32  -0.1200000   12.0115
   33        CT    1  MOL     C33    33   0.0550000   12.0115
   34        CA    1  MOL     C34    34   0.3700000   12.0115
   35        CA    1  MOL     C35    35  -0.4470000   12.0115
   36        CA    1  MOL     C36    36   0.2270000   12.0115
   37        CA    1  MOL     C37    37  -0.4470000   12.0115
   38        CA    1  MOL     C38    38   0.4730000   12.0115
   39        NB    1  MOL     N39    39  -0.6780000   14.0067
   40        HC    1  MOL     H40    40   0.0600000    1.0080
   41        HC    1  MOL     H41    41   0.0600000    1.0080
   42        HC    1  MOL     H42    42   0.0600000    1.0080
   43        HA    1  MOL     H43    43   0.1550000    1.0080
   44        HA    1  MOL     H44    44   0.0650000    1.0080
   45        HA    1  MOL     H45    45   0.1550000    1.0080
   46        HA    1  MOL     H46    46   0.0120000    1.0080
   47        CT    1  MOL     C47    47  -0.1200000   12.0115
   48        CT    1  MOL     C48    48   0.0550000   12.0115
   49        CA    1  MOL     C49    49   0.3700000   12.0115
   50        CA    1  MOL     C50    50  -0.4470000   12.0115
   51        CA    1  MOL     C51    51   0.2270000   12.0115
   52        CA    1  MOL     C52    52  -0.4470000   12.0115
   53        CA    1  MOL     C53    53   0.4730000   12.0115
   54        NB    1  MOL     N54    54  -0.6780000   14.0067
   55        HC    1  MOL     H55    55   0.0600000    1.0080
   56        HC    1  MOL     H56    56   0.0600000    1.0080
   57        HC    1  MOL     H57    57   0.0600000    1.0080
   58        HA    1  MOL     H58    58   0.1550000    1.0080
   59        HA    1  MOL     H59    59   0.0650000    1.0080
   60        HA    1  MOL     H60    60   0.1550000    1.0080
   61        HA    1  MOL     H61    61   0.0120000    1.0080
   62        CT    1  MOL     C62    62  -0.1200000   12.0115
   63        CT    1  MOL     C63    63   0.0550000   12.0115
   64        CA    1  MOL     C64    64   0.3700000   12.0115
   65        CA    1  MOL     C65    65  -0.4470000   12.0115
   66        CA    1  MOL     C66    66   0.2270000   12.0115
   67        CA    1  MOL     C67    67  -0.4470000   12.0115
   68        CA    1  MOL     C68    68   0.4730000   12.0115
   69        NB    1  MOL     N69    69  -0.6780000   14.0067
   70        HC    1  MOL     H70    70   0.0600000    1.0080
   71        HC    1  MOL     H71    71   0.0600000    1.0080
   72        HC    1  MOL     H72    72   0.0600000    1.0080
   73        HA    1  MOL     H73    73   0.1550000    1.0080
   74        HA    1  MOL     H74    74   0.0650000    1.0080
   75        HA    1  MOL     H75    75   0.1550000    1.0080
   76        HA    1  MOL     H76    76   0.0120000    1.0080
   77        CT    1  MOL     C77    77  -0.1200000   12.0115
   78        CT    1  MOL     C78    78   0.0550000   12.0115
   79        CA    1  MOL     C79    79   0.3700000   12.0115
   80        CA    1  MOL     C80    80  -0.4470000   12.0115
   81        CA    1  MOL     C81    81   0.2270000   12.0115
   82        CA    1  MOL     C82    82  -0.4470000   12.0115
   83        CA    1  MOL     C83    83   0.4730000   12.0115
   84        NB    1  MOL     N84    84  -0.6780000   14.0067
   85        HC    1  MOL     H85    85   0.0600000    1.0080
   86        HC    1  MOL     H86    86   0.0600000    1.0080
   87        HC    1  MOL     H87    87   0.0600000    1.0080
   88        HA    1  MOL     H88    88   0.1550000    1.0080
   89        HA    1  MOL     H89    89   0.0650000    1.0080
   90        HA    1  MOL     H90    90   0.1550000    1.0080
   91        HA    1  MOL     H91    91   0.0120000    1.0080
   92        CT    1  MOL     C92    92  -0.1200000   12.0115
   93        CT    1  MOL     C93    93   0.0550000   12.0115
   94        CA    1  MOL     C94    94   0.3700000   12.0115
   95        CA    1  MOL     C95    95  -0.4470000   12.0115
   96        CA    1  MOL     C96    96   0.2270000   12.0115
   97        CA    1  MOL     C97    97  -0.4470000   12.0115
   98        CA    1  MOL     C98    98   0.4730000   12.0115
   99        NB    1  MOL     N99    99  -0.6780000   14.0067
  100        HC    1  MOL    H100   100   0.0600000    1.0080
  101        HC    1  MOL    H101   101   0.0600000    1.0080
  102        HC    1  MOL    H102   102   0.0600000    1.0080
  103        HA    1  MOL    H103   103   0.1550000    1.0080
  104        HA    1  MOL    H104   104   0.0650000    1.0080
  105        HA    1  MOL    H105   105   0.1550000    1.0080
  106        HA    1  MOL    H106   106   0.0120000    1.0080
  107        CT    1  MOL    C107   107  -0.1200000   12.0115
  108        CT    1  MOL    C108   108   0.0550000   12.0115
  109        CA    1  MOL    C109   109   0.3700000   12.0115
  110        CA    1  MOL    C110   110  -0.4470000   12.0115
  111        CA    1  MOL    C111   111   0.2270000   12.0115
  112        CA    1  MOL    C112   112  -0.4470000   12.0115
  113        CA    1  MOL    C113   113   0.4730000   12.0115
  114        NB    1  MOL    N114   114  -0.6780000   14.0067
  115        HC    1  MOL    H115   115   0.0600000    1.0080
  116        HC    1  MOL    H116   116   0.0600000    1.0080
  117        HC    1  MOL    H117   117   0.0600000    1.0080
  118        HA    1  MOL    H118   118   0.1550000    1.0080
  119        HA    1  MOL    H119   119   0.0650000    1.0080
  120        HA    1  MOL    H120   120   0.1550000    1.0080
  121        HA    1  MOL    H121   121   0.0120000    1.0080
  122        CT    1  MOL    C122   122  -0.1200000   12.0115
  123        CT    1  MOL    C123   123   0.0550000   12.0115
  124        CA    1  MOL    C124   124   0.3700000   12.0115
  125        CA    1  MOL    C125   125  -0.4470000   12.0115
  126        CA    1  MOL    C126   126   0.2270000   12.0115
  127        CA    1  MOL    C127   127  -0.4470000   12.0115
  128        CA    1  MOL    C128   128   0.4730000   12.0115
  129        NB    1  MOL    N129   129  -0.6780000   14.0067
  130        HC    1  MOL    H130   130   0.0600000    1.0080
  131        HC    1  MOL    H131   131   0.0600000    1.0080
  132        HC    1  MOL    H132   132   0.0600000    1.0080
  133        HA    1  MOL    H133   133   0.1550000    1.0080
  134        HA    1  MOL    H134   134   0.0650000    1.0080
  135        HA    1  MOL    H135   135   0.1550000    1.0080
  136        HA    1  MOL    H136   136   0.0120000    1.0080
  137        CT    1  MOL    C137   137  -0.1200000   12.0115
  138        CT    1  MOL    C138   138   0.0550000   12.0115
  139        CA    1  MOL    C139   139   0.3700000   12.0115
  140        CA    1  MOL    C140   140  -0.4470000   12.0115
  141        CA    1  MOL    C141   141   0.2270000   12.0115
  142        CA    1  MOL    C142   142  -0.4470000   12.0115
  143        CA    1  MOL    C143   143   0.4730000   12.0115
  144        NB    1  MOL    N144   144  -0.6780000   14.0067
  145        HC    1  MOL    H145   145   0.0600000    1.0080
  146        HC    1  MOL    H146   146   0.0600000    1.0080
  147        HC    1  MOL    H147   147   0.0600000    1.0080
  148        HA    1  MOL    H148   148   0.1550000    1.0080
  149        HA    1  MOL    H149   149   0.0650000    1.0080
  150        HA    1  MOL    H150   150   0.1550000    1.0080
  151        HA    1  MOL    H151   151   0.0120000    1.0080
  152        CT    1  MOL    C152   152  -0.1200000   12.0115
  153        CT    1  MOL    C153   153   0.0550000   12.0115
  154        CA    1  MOL    C154   154   0.3700000   12.0115
  155        CA    1  MOL    C155   155  -0.4470000   12.0115
  156        CA    1  MOL    C156   156   0.2270000   12.0115
  157        CA    1  MOL    C157   157  -0.4470000   12.0115
  158        CA    1  MOL    C158   158   0.4730000   12.0115
  159        NB    1  MOL    N159   159  -0.6780000   14.0067
  160        HC    1  MOL    H160   160   0.0600000    1.0080
  161        HC    1  MOL    H161   161   0.0600000    1.0080
  162        HC    1  MOL    H162   162   0.0600000    1.0080
  163        HA    1  MOL    H163   163   0.1550000    1.0080
  164        HA    1  MOL    H164   164   0.0650000    1.0080
  165        HA    1  MOL    H165   165   0.1550000    1.0080
  166        HA    1  MOL    H166   166   0.0120000    1.0080
  167        CT    1  MOL    C167   167  -0.1200000   12.0115
  168        CT    1  MOL    C168   168   0.0550000   12.0115
  169        CA    1  MOL    C169   169   0.3700000   12.0115
  170        CA    1  MOL    C170   170  -0.4470000   12.0115
  171        CA    1  MOL    C171   171   0.2270000   12.0115
  172        CA    1  MOL    C172   172  -0.4470000   12.0115
  173        CA    1  MOL    C173   173   0.4730000   12.0115
  174        NB    1  MOL    N174   174  -0.6780000   14.0067
  175        HC    1  MOL    H175   175   0.0600000    1.0080
  176        HC    1  MOL    H176   176   0.0600000    1.0080
  177        HC    1  MOL    H177   177   0.0600000    1.0080
  178        HA    1  MOL    H178   178   0.1550000    1.0080
  179        HA    1  MOL    H179   179   0.0650000    1.0080
  180        HA    1  MOL    H180   180   0.1550000    1.0080
  181        HA    1  MOL    H181   181   0.0120000    1.0080
  182        CT    1  MOL    C182   182  -0.1200000   12.0115
  183        CT    1  MOL    C183   183   0.0550000   12.0115
  184        CA    1  MOL    C184   184   0.3700000   12.0115
  185        CA    1  MOL    C185   185  -0.4470000   12.0115
  186        CA    1  MOL    C186   186   0.2270000   12.0115
  187        CA    1  MOL    C187   187  -0.4470000   12.0115
  188        CA    1  MOL    C188   188   0.4730000   12.0115
  189        NB    1  MOL    N189   189  -0.6780000   14.0067
  190        HC    1  MOL    H190   190   0.0600000    1.0080
  191        HC    1  MOL    H191   191   0.0600000    1.0080
  192        HC    1  MOL    H192   192   0.0600000    1.0080
  193        HA    1  MOL    H193   193   0.1550000    1.0080
  194        HA    1  MOL    H194   194   0.0650000    1.0080
  195        HA    1  MOL    H195   195   0.1550000    1.0080
  196        HA    1  MOL    H196   196   0.0120000    1.0080
  197        CT    1  MOL    C197   197  -0.1200000   12.0115
  198        CT    1  MOL    C198   198   0.0550000   12.0115
  199        CA    1  MOL    C199   199   0.3700000   12.0115
  200        CA    1  MOL    C200   200  -0.4470000   12.0115
  201        CA    1  MOL    C201   201   0.2270000   12.0115
  202        CA    1  MOL    C202   202  -0.4470000   12.0115
  203        CA    1  MOL    C203   203   0.4730000   12.0115
  204        NB    1  MOL    N204   204  -0.6780000   14.0067
  205        HC    1  MOL    H205   205   0.0600000    1.0080
  206        HC    1  MOL    H206   206   0.0600000    1.0080
  207        HC    1  MOL    H207   207   0.0600000    1.0080
  208        HA    1  MOL    H208   208   0.1550000    1.0080
  209        HA    1  MOL    H209   209   0.0650000    1.0080
  210        HA    1  MOL    H210   210   0.1550000    1.0080
  211        HA    1  MOL    H211   211   0.0120000    1.0080
  212        CT    1  MOL    C212   212  -0.1200000   12.0115
  213        CT    1  MOL    C213   213   0.0550000   12.0115
  214        CA    1  MOL    C214   214   0.3700000   12.0115
  215        CA    1  MOL    C215   215  -0.4470000   12.0115
  216        CA    1  MOL    C216   216   0.2270000   12.0115
  217        CA    1  MOL    C217   217  -0.4470000   12.0115
  218        CA    1  MOL    C218   218   0.4730000   12.0115
  219        NB    1  MOL    N219   219  -0.6780000   14.0067
  220        HC    1  MOL    H220   220   0.0600000    1.0080
  221        HC    1  MOL    H221   221   0.0600000    1.0080
  222        HC    1  MOL    H222   222   0.0600000    1.0080
  223        HA    1  MOL    H223   223   0.1550000    1.0080
  224        HA    1  MOL    H224   224   0.0650000    1.0080
  225        HA    1  MOL    H225   225   0.1550000    1.0080
  226        HA    1  MOL    H226   226   0.0120000    1.0080
  227        CT    1  MOL    C227   227  -0.1200000   12.0115
  228        CT    1  MOL    C228   228   0.0550000   12.0115
  229        CA    1  MOL    C229   229   0.3700000   12.0115
  230        CA    1  MOL    C230   230  -0.4470000   12.0115
  231        CA    1  MOL    C231   231   0.2270000   12.0115
  232        CA    1  MOL    C232   232  -0.4470000   12.0115
  233        CA    1  MOL    C233   233   0.4730000   12.0115
  234        NB    1  MOL    N234   234  -0.6780000   14.0067
  235        HC    1  MOL    H235   235   0.0600000    1.0080
  236        HC    1  MOL    H236   236   0.0600000    1.0080
  237        HC    1  MOL    H237   237   0.0600000    1.0080
  238        HA    1  MOL    H238   238   0.1550000    1.0080
  239        HA    1  MOL    H239   239   0.0650000    1.0080
  240        HA    1  MOL    H240   240   0.1550000    1.0080
  241        HA    1  MOL    H241   241   0.0120000    1.0080
  242        CT    1  MOL    C242   242  -0.1200000   12.0115
  243        CT    1  MOL    C243   243   0.0550000   12.0115
  244        CA    1  MOL    C244   244   0.3700000   12.0115
  245        CA    1  MOL    C245   245  -0.4470000   12.0115
  246        CA    1  MOL    C246   246   0.2270000   12.0115
  247        CA    1  MOL    C247   247  -0.4470000   12.0115
  248        CA    1  MOL    C248   248   0.4730000   12.0115
  249        NB    1  MOL    N249   249  -0.6780000   14.0067
  250        HC    1  MOL    H250   250   0.0600000    1.0080
  251        HC    1  MOL    H251   251   0.0600000    1.0080
  252        HC    1  MOL    H252   252   0.0600000    1.0080
  253        HA    1  MOL    H253   253   0.1550000    1.0080
  254        HA    1  MOL    H254   254   0.0650000    1.0080
  255        HA    1  MOL    H255   255   0.1550000    1.0080
  256        HA    1  MOL    H256   256   0.0120000    1.0080
  257        CT    1  MOL    C257   257  -0.1200000   12.0115
  258        CT    1  MOL    C258   258   0.0550000   12.0115
  259        CA    1  MOL    C259   259   0.3700000   12.0115
  260        CA    1  MOL    C260   260  -0.4470000   12.0115
  261        CA    1  MOL    C261   261   0.2270000   12.0115
  262        CA    1  MOL    C262   262  -0.4470000   12.0115
  263        CA    1  MOL    C263   263   0.4730000   12.0115
  264        NB    1  MOL    N264   264  -0.6780000   14.0067
  265        HC    1  MOL    H265   265   0.0600000    1.0080
  266        HC    1  MOL    H266   266   0.0600000    1.0080
  267        HC    1  MOL    H267   267   0.0600000    1.0080
  268        HA    1  MOL    H268   268   0.1550000    1.0080
  269        HA    1  MOL    H269   269   0.0650000    1.0080
  270        HA    1  MOL    H270   270   0.1550000    1.0080
  271        HA    1  MOL    H271   271   0.0120000    1.0080
  272        CT    1  MOL    C272   272  -0.1200000   12.0115
  273        CT    1  MOL    C273   273   0.0550000   12.0115
  274        CA    1  MOL    C274   274   0.3700000   12.0115
  275        CA    1  MOL    C275   275  -0.4470000   12.0115
  276        CA    1  MOL    C276   276   0.2270000   12.0115
  277        CA    1  MOL    C277   277  -0.4470000   12.0115
  278        CA    1  MOL    C278   278   0.4730000   12.0115
  279        NB    1  MOL    N279   279  -0.6780000   14.0067
  280        HC    1  MOL    H280   280   0.0600000    1.0080
  281        HC    1  MOL    H281   281   0.0600000    1.0080
  282        HC    1  MOL    H282   282   0.0600000    1.0080
  283        HA    1  MOL    H283   283   0.1550000    1.0080
  284        HA    1  MOL    H284   284   0.0650000    1.0080
  285        HA    1  MOL    H285   285   0.1550000    1.0080
  286        HA    1  MOL    H286   286   0.0120000    1.0080
  287        CT    1  MOL    C287   287  -0.1200000   12.0115
  288        CT    1  MOL    C288   288  -0.0050000   12.0115
  289        CA    1  MOL    C289   289   0.3700000   12.0115
  290        CA    1  MOL    C290   290  -0.4470000   12.0115
  291        CA    1  MOL    C291   291   0.2270000   12.0115
  292        CA    1  MOL    C292   292  -0.4470000   12.0115
  293        CA    1  MOL    C293   293   0.4730000   12.0115
  294        NB    1  MOL    N294   294  -0.6780000   14.0067
  295        HC    1  MOL    H295   295   0.0600000    1.0080
  296        HC    1  MOL    H296   296   0.0600000    1.0080
  297        HC    1  MOL    H297   297   0.0600000    1.0080
  298        HA    1  MOL    H298   298   0.1550000    1.0080
  299        HA    1  MOL    H299   299   0.0650000    1.0080
  300        HA    1  MOL    H300   300   0.1550000    1.0080
  301        HA    1  MOL    H301   301   0.0120000    1.0080
  302        HC    1  MOL    H302   302   0.0600000    1.0080

[ bonds ]
      1      2   1      0.1529 224262.4000
      1      9   1      0.1090 284512.0000
      1     10   1      0.1090 284512.0000
      1     16   1      0.1090 284512.0000
      2      3   1      0.1510 265265.6000
      2     11   1      0.1090 284512.0000
      2     17   1      0.1529 224262.4000
      3      4   1      0.1400 392459.2000
      3      8   1      0.1339 404174.4000
      4      5   1      0.1400 392459.2000
      4     12   1      0.1080 307105.6000
      5      6   1      0.1400 392459.2000
      5     13   1      0.1080 307105.6000
      6      7   1      0.1400 392459.2000
      6     14   1      0.1080 307105.6000
      7      8   1      0.1339 404174.4000
      7     15   1      0.1080 307105.6000
     17     18   1      0.1529 224262.4000
     17     25   1      0.1090 284512.0000
     17     26   1      0.1090 284512.0000
     18     19   1      0.1510 265265.6000
     18     27   1      0.1090 284512.0000
     18     32   1      0.1529 224262.4000
     19     20   1      0.1400 392459.2000
     19     24   1      0.1339 404174.4000
     20     21   1      0.1400 392459.2000
     20     28   1      0.1080 307105.6000
     21     22   1      0.1400 392459.2000
     21     29   1      0.1080 307105.6000
     22     23   1      0.1400 392459.2000
     22     30   1      0.1080 307105.6000
     23     24   1      0.1339 404174.4000
     23     31   1      0.1080 307105.6000
     32     33   1      0.1529 224262.4000
     32     40   1      0.1090 284512.0000
     32     41   1      0.1090 284512.0000
     33     34   1      0.1510 265265.6000
     33     42   1      0.1090 284512.0000
     33     47   1      0.1529 224262.4000
     34     35   1      0.1400 392459.2000
     34     39   1      0.1339 404174.4000
     35     36   1      0.1400 392459.2000
     35     43   1      0.1080 307105.6000
     36     37   1      0.1400 392459.2000
     36     44   1      0.1080 307105.6000
     37     38   1      0.1400 392459.2000
     37     45   1      0.1080 307105.6000
     38     39   1      0.1339 404174.4000
     38     46   1      0.1080 307105.6000
     47     48   1      0.1529 224262.4000
     47     55   1      0.1090 284512.0000
     47     56   1      0.1090 284512.0000
     48     49   1      0.1510 265265.6000
     48     57   1      0.1090 284512.0000
     48     62   1      0.1529 224262.4000
     49     50   1      0.1400 392459.2000
     49     54   1      0.1339 404174.4000
     50     51   1      0.1400 392459.2000
     50     58   1      0.1080 307105.6000
     51     52   1      0.1400 392459.2000
     51     59   1      0.1080 307105.6000
     52     53   1      0.1400 392459.2000
     52     60   1      0.1080 307105.6000
     53     54   1      0.1339 404174.4000
     53     61   1      0.1080 307105.6000
     62     63   1      0.1529 224262.4000
     62     70   1      0.1090 284512.0000
     62     71   1      0.1090 284512.0000
     63     64   1      0.1510 265265.6000
     63     72   1      0.1090 284512.0000
     63     77   1      0.1529 224262.4000
     64     65   1      0.1400 392459.2000
     64     69   1      0.1339 404174.4000
     65     66   1      0.1400 392459.2000
     65     73   1      0.1080 307105.6000
     66     67   1      0.1400 392459.2000
     66     74   1      0.1080 307105.6000
     67     68   1      0.1400 392459.2000
     67     75   1      0.1080 307105.6000
     68     69   1      0.1339 404174.4000
     68     76   1      0.1080 307105.6000
     77     78   1      0.1529 224262.4000
     77     85   1      0.1090 284512.0000
     77     86   1      0.1090 284512.0000
     78     79   1      0.1510 265265.6000
     78     87   1      0.1090 284512.0000
     78     92   1      0.1529 224262.4000
     79     80   1      0.1400 392459.2000
     79     84   1      0.1339 404174.4000
     80     81   1      0.1400 392459.2000
     80     88   1      0.1080 307105.6000
     81     82   1      0.1400 392459.2000
     81     89   1      0.1080 307105.6000
     82     83   1      0.1400 392459.2000
     82     90   1      0.1080 307105.6000
     83     84   1      0.1339 404174.4000
     83     91   1      0.1080 307105.6000
     92     93   1      0.1529 224262.4000
     92    100   1      0.1090 284512.0000
     92    101   1      0.1090 284512.0000
     93     94   1      0.1510 265265.6000
     93    102   1      0.1090 284512.0000
     93    107   1      0.1529 224262.4000
     94     95   1      0.1400 392459.2000
     94     99   1      0.1339 404174.4000
     95     96   1      0.1400 392459.2000
     95    103   1      0.1080 307105.6000
     96     97   1      0.1400 392459.2000
     96    104   1      0.1080 307105.6000
     97     98   1      0.1400 392459.2000
     97    105   1      0.1080 307105.6000
     98     99   1      0.1339 404174.4000
     98    106   1      0.1080 307105.6000
    107    108   1      0.1529 224262.4000
    107    115   1      0.1090 284512.0000
    107    116   1      0.1090 284512.0000
    108    109   1      0.1510 265265.6000
    108    117   1      0.1090 284512.0000
    108    122   1      0.1529 224262.4000
    109    110   1      0.1400 392459.2000
    109    114   1      0.1339 404174.4000
    110    111   1      0.1400 392459.2000
    110    118   1      0.1080 307105.6000
    111    112   1      0.1400 392459.2000
    111    119   1      0.1080 307105.6000
    112    113   1      0.1400 392459.2000
    112    120   1      0.1080 307105.6000
    113    114   1      0.1339 404174.4000
    113    121   1      0.1080 307105.6000
    122    123   1      0.1529 224262.4000
    122    130   1      0.1090 284512.0000
    122    131   1      0.1090 284512.0000
    123    124   1      0.1510 265265.6000
    123    132   1      0.1090 284512.0000
    123    137   1      0.1529 224262.4000
    124    125   1      0.1400 392459.2000
    124    129   1      0.1339 404174.4000
    125    126   1      0.1400 392459.2000
    125    133   1      0.1080 307105.6000
    126    127   1      0.1400 392459.2000
    126    134   1      0.1080 307105.6000
    127    128   1      0.1400 392459.2000
    127    135   1      0.1080 307105.6000
    128    129   1      0.1339 404174.4000
    128    136   1      0.1080 307105.6000
    137    138   1      0.1529 224262.4000
    137    145   1      0.1090 284512.0000
    137    146   1      0.1090 284512.0000
    138    139   1      0.1510 265265.6000
    138    147   1      0.1090 284512.0000
    138    152   1      0.1529 224262.4000
    139    140   1      0.1400 392459.2000
    139    144   1      0.1339 404174.4000
    140    141   1      0.1400 392459.2000
    140    148   1      0.1080 307105.6000
    141    142   1      0.1400 392459.2000
    141    149   1      0.1080 307105.6000
    142    143   1      0.1400 392459.2000
    142    150   1      0.1080 307105.6000
    143    144   1      0.1339 404174.4000
    143    151   1      0.1080 307105.6000
    152    153   1      0.1529 224262.4000
    152    160   1      0.1090 284512.0000
    152    161   1      0.1090 284512.0000
    153    154   1      0.1510 265265.6000
    153    162   1      0.1090 284512.0000
    153    167   1      0.1529 224262.4000
    154    155   1      0.1400 392459.2000
    154    159   1      0.1339 404174.4000
    155    156   1      0.1400 392459.2000
    155    163   1      0.1080 307105.6000
    156    157   1      0.1400 392459.2000
    156    164   1      0.1080 307105.6000
    157    158   1      0.1400 392459.2000
    157    165   1      0.1080 307105.6000
    158    159   1      0.1339 404174.4000
    158    166   1      0.1080 307105.6000
    167    168   1      0.1529 224262.4000
    167    175   1      0.1090 284512.0000
    167    176   1      0.1090 284512.0000
    168    169   1      0.1510 265265.6000
    168    177   1      0.1090 284512.0000
    168    182   1      0.1529 224262.4000
    169    170   1      0.1400 392459.2000
    169    174   1      0.1339 404174.4000
    170    171   1      0.1400 392459.2000
    170    178   1      0.1080 307105.6000
    171    172   1      0.1400 392459.2000
    171    179   1      0.1080 307105.6000
    172    173   1      0.1400 392459.2000
    172    180   1      0.1080 307105.6000
    173    174   1      0.1339 404174.4000
    173    181   1      0.1080 307105.6000
    182    183   1      0.1529 224262.4000
    182    190   1      0.1090 284512.0000
    182    191   1      0.1090 284512.0000
    183    184   1      0.1510 265265.6000
    183    192   1      0.1090 284512.0000
    183    197   1      0.1529 224262.4000
    184    185   1      0.1400 392459.2000
    184    189   1      0.1339 404174.4000
    185    186   1      0.1400 392459.2000
    185    193   1      0.1080 307105.6000
    186    187   1      0.1400 392459.2000
    186    194   1      0.1080 307105.6000
    187    188   1      0.1400 392459.2000
    187    195   1      0.1080 307105.6000
    188    189   1      0.1339 404174.4000
    188    196   1      0.1080 307105.6000
    197    198   1      0.1529 224262.4000
    197    205   1      0.1090 284512.0000
    197    206   1      0.1090 284512.0000
    198    199   1      0.1510 265265.6000
    198    207   1      0.1090 284512.0000
    198    212   1      0.1529 224262.4000
    199    200   1      0.1400 392459.2000
    199    204   1      0.1339 404174.4000
    200    201   1      0.1400 392459.2000
    200    208   1      0.1080 307105.6000
    201    202   1      0.1400 392459.2000
    201    209   1      0.1080 307105.6000
    202    203   1      0.1400 392459.2000
    202    210   1      0.1080 307105.6000
    203    204   1      0.1339 404174.4000
    203    211   1      0.1080 307105.6000
    212    213   1      0.1529 224262.4000
    212    220   1      0.1090 284512.0000
    212    221   1      0.1090 284512.0000
    213    214   1      0.1510 265265.6000
    213    222   1      0.1090 284512.0000
    213    227   1      0.1529 224262.4000
    214    215   1      0.1400 392459.2000
    214    219   1      0.1339 404174.4000
    215    216   1      0.1400 392459.2000
    215    223   1      0.1080 307105.6000
    216    217   1      0.1400 392459.2000
    216    224   1      0.1080 307105.6000
    217    218   1      0.1400 392459.2000
    217    225   1      0.1080 307105.6000
    218    219   1      0.1339 404174.4000
    218    226   1      0.1080 307105.6000
    227    228   1      0.1529 224262.4000
    227    235   1      0.1090 284512.0000
    227    236   1      0.1090 284512.0000
    228    229   1      0.1510 265265.6000
    228    237   1      0.1090 284512.0000
    228    242   1      0.1529 224262.4000
    229    230   1      0.1400 392459.2000
    229    234   1      0.1339 404174.4000
    230    231   1      0.1400 392459.2000
    230    238   1      0.1080 307105.6000
    231    232   1      0.1400 392459.2000
    231    239   1      0.1080 307105.6000
    232    233   1      0.1400 392459.2000
    232    240   1      0.1080 307105.6000
    233    234   1      0.1339 404174.4000
    233    241   1      0.1080 307105.6000
    242    243   1      0.1529 224262.4000
    242    250   1      0.1090 284512.0000
    242    251   1      0.1090 284512.0000
    243    244   1      0.1510 265265.6000
    243    252   1      0.1090 284512.0000
    243    257   1      0.1529 224262.4000
    244    245   1      0.1400 392459.2000
    244    249   1      0.1339 404174.4000
    245    246   1      0.1400 392459.2000
    245    253   1      0.1080 307105.6000
    246    247   1      0.1400 392459.2000
    246    254   1      0.1080 307105.6000
    247    248   1      0.1400 392459.2000
    247    255   1      0.1080 307105.6000
    248    249   1      0.1339 404174.4000
    248    256   1      0.1080 307105.6000
    257    258   1      0.1529 224262.4000
    257    265   1      0.1090 284512.0000
    257    266   1      0.1090 284512.0000
    258    259   1      0.1510 265265.6000
    258    267   1      0.1090 284512.0000
    258    272   1      0.1529 224262.4000
    259    260   1      0.1400 392459.2000
    259    264   1      0.1339 404174.4000
    260    261   1      0.1400 392459.2000
    260    268   1      0.1080 307105.6000
    261    262   1      0.1400 392459.2000
    261    269   1      0.1080 307105.6000
    262    263   1      0.1400 392459.2000
    262    270   1      0.1080 307105.6000
    263    264   1      0.1339 404174.4000
    263    271   1      0.1080 307105.6000
    272    273   1      0.1529 224262.4000
    272    280   1      0.1090 284512.0000
    272    281   1      0.1090 284512.0000
    273    274   1      0.1510 265265.6000
    273    282   1      0.1090 284512.0000
    273    287   1      0.1529 224262.4000
    274    275   1      0.1400 392459.2000
    274    279   1      0.1339 404174.4000
    275    276   1      0.1400 392459.2000
    275    283   1      0.1080 307105.6000
    276    277   1      0.1400 392459.2000
    276    284   1      0.1080 307105.6000
    277    278   1      0.1400 392459.2000
    277    285   1      0.1080 307105.6000
    278    279   1      0.1339 404174.4000
    278    286   1      0.1080 307105.6000
    287    288   1      0.1529 224262.4000
    287    295   1      0.1090 284512.0000
    287    296   1      0.1090 284512.0000
    288    289   1      0.1510 265265.6000
    288    297   1      0.1090 284512.0000
    288    302   1      0.1090 284512.0000
    289    290   1      0.1400 392459.2000
    289    294   1      0.1339 404174.4000
    290    291   1      0.1400 392459.2000
    290    298   1      0.1080 307105.6000
    291    292   1      0.1400 392459.2000
    291    299   1      0.1080 307105.6000
    292    293   1      0.1400 392459.2000
    292    300   1      0.1080 307105.6000
    293    294   1      0.1339 404174.4000
    293    301   1      0.1080 307105.6000

[ pairs ]
; ai   aj   funct   fudge_QQ  charge_i   charge_j   c6    c12
      9      3   2   0.50000     0.0600000    0.3700000   2.680627e-04  1.873879e-07
      9     11   2   0.50000     0.0600000    0.0600000   6.128906e-05  1.496315e-08
      9     17   2   0.50000     0.0600000   -0.1200000   2.494471e-04  1.671101e-07
     10      3   2   0.50000     0.0600000    0.3700000   2.680627e-04  1.873879e-07
     10     11   2   0.50000     0.0600000    0.0600000   6.128906e-05  1.496315e-08
     10     17   2   0.50000     0.0600000   -0.1200000   2.494471e-04  1.671101e-07
     16      3   2   0.50000     0.0600000    0.3700000   2.680627e-04  1.873879e-07
     16     11   2   0.50000     0.0600000    0.0600000   6.128906e-05  1.496315e-08
     16     17   2   0.50000     0.0600000   -0.1200000   2.494471e-04  1.671101e-07
      1      4   2   0.50000    -0.1800000   -0.4470000   1.091018e-03  2.092768e-06
      1      8   2   0.50000    -0.1800000   -0.6780000   1.304585e-03  1.920112e-06
     11      4   2   0.50000     0.0600000   -0.4470000   2.680627e-04  1.873879e-07
     11      8   2   0.50000     0.0600000   -0.6780000   3.205360e-04  1.719281e-07
     17      4   2   0.50000    -0.1200000   -0.4470000   1.091018e-03  2.092768e-06
     17      8   2   0.50000    -0.1200000   -0.6780000   1.304585e-03  1.920112e-06
      1     18   2   0.50000    -0.1800000    0.0550000   1.015252e-03  1.866303e-06
      1     25   2   0.50000    -0.1800000    0.0600000   2.494471e-04  1.671101e-07
      1     26   2   0.50000    -0.1800000    0.0600000   2.494471e-04  1.671101e-07
      3     18   2   0.50000     0.3700000    0.0550000   1.091018e-03  2.092768e-06
      3     25   2   0.50000     0.3700000    0.0600000   2.680627e-04  1.873879e-07
      3     26   2   0.50000     0.3700000    0.0600000   2.680627e-04  1.873879e-07
     11     18   2   0.50000     0.0600000    0.0550000   2.494471e-04  1.671101e-07
     11     25   2   0.50000     0.0600000    0.0600000   6.128906e-05  1.496315e-08
     11     26   2   0.50000     0.0600000    0.0600000   6.128906e-05  1.496315e-08
      2      5   2   0.50000     0.0550000    0.2270000   1.091018e-03  2.092768e-06
      2     12   2   0.50000     0.0550000    0.1550000   2.262583e-04  1.374848e-07
      8      5   2   0.50000    -0.6780000    0.2270000   1.401943e-03  2.153106e-06
      8     12   2   0.50000    -0.6780000    0.1550000   2.907388e-04  1.414488e-07
      2      7   2   0.50000     0.0550000    0.4730000   1.091018e-03  2.092768e-06
      4      7   2   0.50000    -0.4470000    0.4730000   1.172438e-03  2.346713e-06
      3      6   2   0.50000     0.3700000   -0.4470000   1.172438e-03  2.346713e-06
      3     13   2   0.50000     0.3700000    0.0650000   2.431434e-04  1.541678e-07
     12      6   2   0.50000     0.1550000   -0.4470000   2.431434e-04  1.541678e-07
     12     13   2   0.50000     0.1550000    0.0650000   5.042375e-05  1.012808e-08
      4     14   2   0.50000    -0.4470000    0.1550000   2.431434e-04  1.541678e-07
     13      7   2   0.50000     0.0650000    0.4730000   2.431434e-04  1.541678e-07
     13     14   2   0.50000     0.0650000    0.1550000   5.042375e-05  1.012808e-08
      5     15   2   0.50000     0.2270000    0.0120000   2.431434e-04  1.541678e-07
     14      8   2   0.50000     0.1550000   -0.6780000   2.907388e-04  1.414488e-07
     14     15   2   0.50000     0.1550000    0.0120000   5.042375e-05  1.012808e-08
     15      3   2   0.50000     0.0120000    0.3700000   2.431434e-04  1.541678e-07
      2     19   2   0.50000     0.0550000    0.3700000   1.091018e-03  2.092768e-06
      2     27   2   0.50000     0.0550000    0.0600000   2.494471e-04  1.671101e-07
      2     32   2   0.50000     0.0550000   -0.1200000   1.015252e-03  1.866303e-06
     25     19   2   0.50000     0.0600000    0.3700000   2.680627e-04  1.873879e-07
     25     27   2   0.50000     0.0600000    0.0600000   6.128906e-05  1.496315e-08
     25     32   2   0.50000     0.0600000   -0.1200000   2.494471e-04  1.671101e-07
     26     19   2   0.50000     0.0600000    0.3700000   2.680627e-04  1.873879e-07
     26     27   2   0.50000     0.0600000    0.0600000   6.128906e-05  1.496315e-08
     26     32   2   0.50000     0.0600000   -0.1200000   2.494471e-04  1.671101e-07
     17     20   2   0.50000    -0.1200000   -0.4470000   1.091018e-03  2.092768e-06
     17     24   2   0.50000    -0.1200000   -0.6780000   1.304585e-03  1.920112e-06
     27     20   2   0.50000     0.0600000   -0.4470000   2.680627e-04  1.873879e-07
     27     24   2   0.50000     0.0600000   -0.6780000   3.205360e-04  1.719281e-07
     32     20   2   0.50000    -0.1200000   -0.4470000   1.091018e-03  2.092768e-06
     32     24   2   0.50000    -0.1200000   -0.6780000   1.304585e-03  1.920112e-06
     17     33   2   0.50000    -0.1200000    0.0550000   1.015252e-03  1.866303e-06
     17     40   2   0.50000    -0.1200000    0.0600000   2.494471e-04  1.671101e-07
     17     41   2   0.50000    -0.1200000    0.0600000   2.494471e-04  1.671101e-07
     19     33   2   0.50000     0.3700000    0.0550000   1.091018e-03  2.092768e-06
     19     40   2   0.50000     0.3700000    0.0600000   2.680627e-04  1.873879e-07
     19     41   2   0.50000     0.3700000    0.0600000   2.680627e-04  1.873879e-07
     27     33   2   0.50000     0.0600000    0.0550000   2.494471e-04  1.671101e-07
     27     40   2   0.50000     0.0600000    0.0600000   6.128906e-05  1.496315e-08
     27     41   2   0.50000     0.0600000    0.0600000   6.128906e-05  1.496315e-08
     18     21   2   0.50000     0.0550000    0.2270000   1.091018e-03  2.092768e-06
     18     28   2   0.50000     0.0550000    0.1550000   2.262583e-04  1.374848e-07
     24     21   2   0.50000    -0.6780000    0.2270000   1.401943e-03  2.153106e-06
     24     28   2   0.50000    -0.6780000    0.1550000   2.907388e-04  1.414488e-07
     18     23   2   0.50000     0.0550000    0.4730000   1.091018e-03  2.092768e-06
     20     23   2   0.50000    -0.4470000    0.4730000   1.172438e-03  2.346713e-06
     19     22   2   0.50000     0.3700000   -0.4470000   1.172438e-03  2.346713e-06
     19     29   2   0.50000     0.3700000    0.0650000   2.431434e-04  1.541678e-07
     28     22   2   0.50000     0.1550000   -0.4470000   2.431434e-04  1.541678e-07
     28     29   2   0.50000     0.1550000    0.0650000   5.042375e-05  1.012808e-08
     20     30   2   0.50000    -0.4470000    0.1550000   2.431434e-04  1.541678e-07
     29     23   2   0.50000     0.0650000    0.4730000   2.431434e-04  1.541678e-07
     29     30   2   0.50000     0.0650000    0.1550000   5.042375e-05  1.012808e-08
     21     31   2   0.50000     0.2270000    0.0120000   2.431434e-04  1.541678e-07
     30     24   2   0.50000     0.1550000   -0.6780000   2.907388e-04  1.414488e-07
     30     31   2   0.50000     0.1550000    0.0120000   5.042375e-05  1.012808e-08
     31     19   2   0.50000     0.0120000    0.3700000   2.431434e-04  1.541678e-07
     18     34   2   0.50000     0.0550000    0.3700000   1.091018e-03  2.092768e-06
     18     42   2   0.50000     0.0550000    0.0600000   2.494471e-04  1.671101e-07
     18     47   2   0.50000     0.0550000   -0.1200000   1.015252e-03  1.866303e-06
     40     34   2   0.50000     0.0600000    0.3700000   2.680627e-04  1.873879e-07
     40     42   2   0.50000     0.0600000    0.0600000   6.128906e-05  1.496315e-08
     40     47   2   0.50000     0.0600000   -0.1200000   2.494471e-04  1.671101e-07
     41     34   2   0.50000     0.0600000    0.3700000   2.680627e-04  1.873879e-07
     41     42   2   0.50000     0.0600000    0.0600000   6.128906e-05  1.496315e-08
     41     47   2   0.50000     0.0600000   -0.1200000   2.494471e-04  1.671101e-07
     32     35   2   0.50000    -0.1200000   -0.4470000   1.091018e-03  2.092768e-06
     32     39   2   0.50000    -0.1200000   -0.6780000   1.304585e-03  1.920112e-06
     42     35   2   0.50000     0.0600000   -0.4470000   2.680627e-04  1.873879e-07
     42     39   2   0.50000     0.0600000   -0.6780000   3.205360e-04  1.719281e-07
     47     35   2   0.50000    -0.1200000   -0.4470000   1.091018e-03  2.092768e-06
     47     39   2   0.50000    -0.1200000   -0.6780000   1.304585e-03  1.920112e-06
     32     48   2   0.50000    -0.1200000    0.0550000   1.015252e-03  1.866303e-06
     32     55   2   0.50000    -0.1200000    0.0600000   2.494471e-04  1.671101e-07
     32     56   2   0.50000    -0.1200000    0.0600000   2.494471e-04  1.671101e-07
     34     48   2   0.50000     0.3700000    0.0550000   1.091018e-03  2.092768e-06
     34     55   2   0.50000     0.3700000    0.0600000   2.680627e-04  1.873879e-07
     34     56   2   0.50000     0.3700000    0.0600000   2.680627e-04  1.873879e-07
     42     48   2   0.50000     0.0600000    0.0550000   2.494471e-04  1.671101e-07
     42     55   2   0.50000     0.0600000    0.0600000   6.128906e-05  1.496315e-08
     42     56   2   0.50000     0.0600000    0.0600000   6.128906e-05  1.496315e-08
     33     36   2   0.50000     0.0550000    0.2270000   1.091018e-03  2.092768e-06
     33     43   2   0.50000     0.0550000    0.1550000   2.262583e-04  1.374848e-07
     39     36   2   0.50000    -0.6780000    0.2270000   1.401943e-03  2.153106e-06
     39     43   2   0.50000    -0.6780000    0.1550000   2.907388e-04  1.414488e-07
     33     38   2   0.50000     0.0550000    0.4730000   1.091018e-03  2.092768e-06
     35     38   2   0.50000    -0.4470000    0.4730000   1.172438e-03  2.346713e-06
     34     37   2   0.50000     0.3700000   -0.4470000   1.172438e-03  2.346713e-06
     34     44   2   0.50000     0.3700000    0.0650000   2.431434e-04  1.541678e-07
     43     37   2   0.50000     0.1550000   -0.4470000   2.431434e-04  1.541678e-07
     43     44   2   0.50000     0.1550000    0.0650000   5.042375e-05  1.012808e-08
     35     45   2   0.50000    -0.4470000    0.1550000   2.431434e-04  1.541678e-07
     44     38   2   0.50000     0.0650000    0.4730000   2.431434e-04  1.541678e-07
     44     45   2   0.50000     0.0650000    0.1550000   5.042375e-05  1.012808e-08
     36     46   2   0.50000     0.2270000    0.0120000   2.431434e-04  1.541678e-07
     45     39   2   0.50000     0.1550000   -0.6780000   2.907388e-04  1.414488e-07
     45     46   2   0.50000     0.1550000    0.0120000   5.042375e-05  1.012808e-08
     46     34   2   0.50000     0.0120000    0.3700000   2.431434e-04  1.541678e-07
     33     49   2   0.50000     0.0550000    0.3700000   1.091018e-03  2.092768e-06
     33     57   2   0.50000     0.0550000    0.0600000   2.494471e-04  1.671101e-07
     33     62   2   0.50000     0.0550000   -0.1200000   1.015252e-03  1.866303e-06
     55     49   2   0.50000     0.0600000    0.3700000   2.680627e-04  1.873879e-07
     55     57   2   0.50000     0.0600000    0.0600000   6.128906e-05  1.496315e-08
     55     62   2   0.50000     0.0600000   -0.1200000   2.494471e-04  1.671101e-07
     56     49   2   0.50000     0.0600000    0.3700000   2.680627e-04  1.873879e-07
     56     57   2   0.50000     0.0600000    0.0600000   6.128906e-05  1.496315e-08
     56     62   2   0.50000     0.0600000   -0.1200000   2.494471e-04  1.671101e-07
     47     50   2   0.50000    -0.1200000   -0.4470000   1.091018e-03  2.092768e-06
     47     54   2   0.50000    -0.1200000   -0.6780000   1.304585e-03  1.920112e-06
     57     50   2   0.50000     0.0600000   -0.4470000   2.680627e-04  1.873879e-07
     57     54   2   0.50000     0.0600000   -0.6780000   3.205360e-04  1.719281e-07
     62     50   2   0.50000    -0.1200000   -0.4470000   1.091018e-03  2.092768e-06
     62     54   2   0.50000    -0.1200000   -0.6780000   1.304585e-03  1.920112e-06
     47     63   2   0.50000    -0.1200000    0.0550000   1.015252e-03  1.866303e-06
     47     70   2   0.50000    -0.1200000    0.0600000   2.494471e-04  1.671101e-07
     47     71   2   0.50000    -0.1200000    0.0600000   2.494471e-04  1.671101e-07
     49     63   2   0.50000     0.3700000    0.0550000   1.091018e-03  2.092768e-06
     49     70   2   0.50000     0.3700000    0.0600000   2.680627e-04  1.873879e-07
     49     71   2   0.50000     0.3700000    0.0600000   2.680627e-04  1.873879e-07
     57     63   2   0.50000     0.0600000    0.0550000   2.494471e-04  1.671101e-07
     57     70   2   0.50000     0.0600000    0.0600000   6.128906e-05  1.496315e-08
     57     71   2   0.50000     0.0600000    0.0600000   6.128906e-05  1.496315e-08
     48     51   2   0.50000     0.0550000    0.2270000   1.091018e-03  2.092768e-06
     48     58   2   0.50000     0.0550000    0.1550000   2.262583e-04  1.374848e-07
     54     51   2   0.50000    -0.6780000    0.2270000   1.401943e-03  2.153106e-06
     54     58   2   0.50000    -0.6780000    0.1550000   2.907388e-04  1.414488e-07
     48     53   2   0.50000     0.0550000    0.4730000   1.091018e-03  2.092768e-06
     50     53   2   0.50000    -0.4470000    0.4730000   1.172438e-03  2.346713e-06
     49     52   2   0.50000     0.3700000   -0.4470000   1.172438e-03  2.346713e-06
     49     59   2   0.50000     0.3700000    0.0650000   2.431434e-04  1.541678e-07
     58     52   2   0.50000     0.1550000   -0.4470000   2.431434e-04  1.541678e-07
     58     59   2   0.50000     0.1550000    0.0650000   5.042375e-05  1.012808e-08
     50     60   2   0.50000    -0.4470000    0.1550000   2.431434e-04  1.541678e-07
     59     53   2   0.50000     0.0650000    0.4730000   2.431434e-04  1.541678e-07
     59     60   2   0.50000     0.0650000    0.1550000   5.042375e-05  1.012808e-08
     51     61   2   0.50000     0.2270000    0.0120000   2.431434e-04  1.541678e-07
     60     54   2   0.50000     0.1550000   -0.6780000   2.907388e-04  1.414488e-07
     60     61   2   0.50000     0.1550000    0.0120000   5.042375e-05  1.012808e-08
     61     49   2   0.50000     0.0120000    0.3700000   2.431434e-04  1.541678e-07
     48     64   2   0.50000     0.0550000    0.3700000   1.091018e-03  2.092768e-06
     48     72   2   0.50000     0.0550000    0.0600000   2.494471e-04  1.671101e-07
     48     77   2   0.50000     0.0550000   -0.1200000   1.015252e-03  1.866303e-06
     70     64   2   0.50000     0.0600000    0.3700000   2.680627e-04  1.873879e-07
     70     72   2   0.50000     0.0600000    0.0600000   6.128906e-05  1.496315e-08
     70     77   2   0.50000     0.0600000   -0.1200000   2.494471e-04  1.671101e-07
     71     64   2   0.50000     0.0600000    0.3700000   2.680627e-04  1.873879e-07
     71     72   2   0.50000     0.0600000    0.0600000   6.128906e-05  1.496315e-08
     71     77   2   0.50000     0.0600000   -0.1200000   2.494471e-04  1.671101e-07
     62     65   2   0.50000    -0.1200000   -0.4470000   1.091018e-03  2.092768e-06
     62     69   2   0.50000    -0.1200000   -0.6780000   1.304585e-03  1.920112e-06
     72     65   2   0.50000     0.0600000   -0.4470000   2.680627e-04  1.873879e-07
     72     69   2   0.50000     0.0600000   -0.6780000   3.205360e-04  1.719281e-07
     77     65   2   0.50000    -0.1200000   -0.4470000   1.091018e-03  2.092768e-06
     77     69   2   0.50000    -0.1200000   -0.6780000   1.304585e-03  1.920112e-06
     62     78   2   0.50000    -0.1200000    0.0550000   1.015252e-03  1.866303e-06
     62     85   2   0.50000    -0.1200000    0.0600000   2.494471e-04  1.671101e-07
     62     86   2   0.50000    -0.1200000    0.0600000   2.494471e-04  1.671101e-07
     64     78   2   0.50000     0.3700000    0.0550000   1.091018e-03  2.092768e-06
     64     85   2   0.50000     0.3700000    0.0600000   2.680627e-04  1.873879e-07
     64     86   2   0.50000     0.3700000    0.0600000   2.680627e-04  1.873879e-07
     72     78   2   0.50000     0.0600000    0.0550000   2.494471e-04  1.671101e-07
     72     85   2   0.50000     0.0600000    0.0600000   6.128906e-05  1.496315e-08
     72     86   2   0.50000     0.0600000    0.0600000   6.128906e-05  1.496315e-08
     63     66   2   0.50000     0.0550000    0.2270000   1.091018e-03  2.092768e-06
     63     73   2   0.50000     0.0550000    0.1550000   2.262583e-04  1.374848e-07
     69     66   2   0.50000    -0.6780000    0.2270000   1.401943e-03  2.153106e-06
     69     73   2   0.50000    -0.6780000    0.1550000   2.907388e-04  1.414488e-07
     63     68   2   0.50000     0.0550000    0.4730000   1.091018e-03  2.092768e-06
     65     68   2   0.50000    -0.4470000    0.4730000   1.172438e-03  2.346713e-06
     64     67   2   0.50000     0.3700000   -0.4470000   1.172438e-03  2.346713e-06
     64     74   2   0.50000     0.3700000    0.0650000   2.431434e-04  1.541678e-07
     73     67   2   0.50000     0.1550000   -0.4470000   2.431434e-04  1.541678e-07
     73     74   2   0.50000     0.1550000    0.0650000   5.042375e-05  1.012808e-08
     65     75   2   0.50000    -0.4470000    0.1550000   2.431434e-04  1.541678e-07
     74     68   2   0.50000     0.0650000    0.4730000   2.431434e-04  1.541678e-07
     74     75   2   0.50000     0.0650000    0.1550000   5.042375e-05  1.012808e-08
     66     76   2   0.50000     0.2270000    0.0120000   2.431434e-04  1.541678e-07
     75     69   2   0.50000     0.1550000   -0.6780000   2.907388e-04  1.414488e-07
     75     76   2   0.50000     0.1550000    0.0120000   5.042375e-05  1.012808e-08
     76     64   2   0.50000     0.0120000    0.3700000   2.431434e-04  1.541678e-07
     63     79   2   0.50000     0.0550000    0.3700000   1.091018e-03  2.092768e-06
     63     87   2   0.50000     0.0550000    0.0600000   2.494471e-04  1.671101e-07
     63     92   2   0.50000     0.0550000   -0.1200000   1.015252e-03  1.866303e-06
     85     79   2   0.50000     0.0600000    0.3700000   2.680627e-04  1.873879e-07
     85     87   2   0.50000     0.0600000    0.0600000   6.128906e-05  1.496315e-08
     85     92   2   0.50000     0.0600000   -0.1200000   2.494471e-04  1.671101e-07
     86     79   2   0.50000     0.0600000    0.3700000   2.680627e-04  1.873879e-07
     86     87   2   0.50000     0.0600000    0.0600000   6.128906e-05  1.496315e-08
     86     92   2   0.50000     0.0600000   -0.1200000   2.494471e-04  1.671101e-07
     77     80   2   0.50000    -0.1200000   -0.4470000   1.091018e-03  2.092768e-06
     77     84   2   0.50000    -0.1200000   -0.6780000   1.304585e-03  1.920112e-06
     87     80   2   0.50000     0.0600000   -0.4470000   2.680627e-04  1.873879e-07
     87     84   2   0.50000     0.0600000   -0.6780000   3.205360e-04  1.719281e-07
     92     80   2   0.50000    -0.1200000   -0.4470000   1.091018e-03  2.092768e-06
     92     84   2   0.50000    -0.1200000   -0.6780000   1.304585e-03  1.920112e-06
     77     93   2   0.50000    -0.1200000    0.0550000   1.015252e-03  1.866303e-06
     77    100   2   0.50000    -0.1200000    0.0600000   2.494471e-04  1.671101e-07
     77    101   2   0.50000    -0.1200000    0.0600000   2.494471e-04  1.671101e-07
     79     93   2   0.50000     0.3700000    0.0550000   1.091018e-03  2.092768e-06
     79    100   2   0.50000     0.3700000    0.0600000   2.680627e-04  1.873879e-07
     79    101   2   0.50000     0.3700000    0.0600000   2.680627e-04  1.873879e-07
     87     93   2   0.50000     0.0600000    0.0550000   2.494471e-04  1.671101e-07
     87    100   2   0.50000     0.0600000    0.0600000   6.128906e-05  1.496315e-08
     87    101   2   0.50000     0.0600000    0.0600000   6.128906e-05  1.496315e-08
     78     81   2   0.50000     0.0550000    0.2270000   1.091018e-03  2.092768e-06
     78     88   2   0.50000     0.0550000    0.1550000   2.262583e-04  1.374848e-07
     84     81   2   0.50000    -0.6780000    0.2270000   1.401943e-03  2.153106e-06
     84     88   2   0.50000    -0.6780000    0.1550000   2.907388e-04  1.414488e-07
     78     83   2   0.50000     0.0550000    0.4730000   1.091018e-03  2.092768e-06
     80     83   2   0.50000    -0.4470000    0.4730000   1.172438e-03  2.346713e-06
     79     82   2   0.50000     0.3700000   -0.4470000   1.172438e-03  2.346713e-06
     79     89   2   0.50000     0.3700000    0.0650000   2.431434e-04  1.541678e-07
     88     82   2   0.50000     0.1550000   -0.4470000   2.431434e-04  1.541678e-07
     88     89   2   0.50000     0.1550000    0.0650000   5.042375e-05  1.012808e-08
     80     90   2   0.50000    -0.4470000    0.1550000   2.431434e-04  1.541678e-07
     89     83   2   0.50000     0.0650000    0.4730000   2.431434e-04  1.541678e-07
     89     90   2   0.50000     0.0650000    0.1550000   5.042375e-05  1.012808e-08
     81     91   2   0.50000     0.2270000    0.0120000   2.431434e-04  1.541678e-07
     90     84   2   0.50000     0.1550000   -0.6780000   2.907388e-04  1.414488e-07
     90     91   2   0.50000     0.1550000    0.0120000   5.042375e-05  1.012808e-08
     91     79   2   0.50000     0.0120000    0.3700000   2.431434e-04  1.541678e-07
     78     94   2   0.50000     0.0550000    0.3700000   1.091018e-03  2.092768e-06
     78    102   2   0.50000     0.0550000    0.0600000   2.494471e-04  1.671101e-07
     78    107   2   0.50000     0.0550000   -0.1200000   1.015252e-03  1.866303e-06
    100     94   2   0.50000     0.0600000    0.3700000   2.680627e-04  1.873879e-07
    100    102   2   0.50000     0.0600000    0.0600000   6.128906e-05  1.496315e-08
    100    107   2   0.50000     0.0600000   -0.1200000   2.494471e-04  1.671101e-07
    101     94   2   0.50000     0.0600000    0.3700000   2.680627e-04  1.873879e-07
    101    102   2   0.50000     0.0600000    0.0600000   6.128906e-05  1.496315e-08
    101    107   2   0.50000     0.0600000   -0.1200000   2.494471e-04  1.671101e-07
     92     95   2   0.50000    -0.1200000   -0.4470000   1.091018e-03  2.092768e-06
     92     99   2   0.50000    -0.1200000   -0.6780000   1.304585e-03  1.920112e-06
    102     95   2   0.50000     0.0600000   -0.4470000   2.680627e-04  1.873879e-07
    102     99   2   0.50000     0.0600000   -0.6780000   3.205360e-04  1.719281e-07
    107     95   2   0.50000    -0.1200000   -0.4470000   1.091018e-03  2.092768e-06
    107     99   2   0.50000    -0.1200000   -0.6780000   1.304585e-03  1.920112e-06
     92    108   2   0.50000    -0.1200000    0.0550000   1.015252e-03  1.866303e-06
     92    115   2   0.50000    -0.1200000    0.0600000   2.494471e-04  1.671101e-07
     92    116   2   0.50000    -0.1200000    0.0600000   2.494471e-04  1.671101e-07
     94    108   2   0.50000     0.3700000    0.0550000   1.091018e-03  2.092768e-06
     94    115   2   0.50000     0.3700000    0.0600000   2.680627e-04  1.873879e-07
     94    116   2   0.50000     0.3700000    0.0600000   2.680627e-04  1.873879e-07
    102    108   2   0.50000     0.0600000    0.0550000   2.494471e-04  1.671101e-07
    102    115   2   0.50000     0.0600000    0.0600000   6.128906e-05  1.496315e-08
    102    116   2   0.50000     0.0600000    0.0600000   6.128906e-05  1.496315e-08
     93     96   2   0.50000     0.0550000    0.2270000   1.091018e-03  2.092768e-06
     93    103   2   0.50000     0.0550000    0.1550000   2.262583e-04  1.374848e-07
     99     96   2   0.50000    -0.6780000    0.2270000   1.401943e-03  2.153106e-06
     99    103   2   0.50000    -0.6780000    0.1550000   2.907388e-04  1.414488e-07
     93     98   2   0.50000     0.0550000    0.4730000   1.091018e-03  2.092768e-06
     95     98   2   0.50000    -0.4470000    0.4730000   1.172438e-03  2.346713e-06
     94     97   2   0.50000     0.3700000   -0.4470000   1.172438e-03  2.346713e-06
     94    104   2   0.50000     0.3700000    0.0650000   2.431434e-04  1.541678e-07
    103     97   2   0.50000     0.1550000   -0.4470000   2.431434e-04  1.541678e-07
    103    104   2   0.50000     0.1550000    0.0650000   5.042375e-05  1.012808e-08
     95    105   2   0.50000    -0.4470000    0.1550000   2.431434e-04  1.541678e-07
    104     98   2   0.50000     0.0650000    0.4730000   2.431434e-04  1.541678e-07
    104    105   2   0.50000     0.0650000    0.1550000   5.042375e-05  1.012808e-08
     96    106   2   0.50000     0.2270000    0.0120000   2.431434e-04  1.541678e-07
    105     99   2   0.50000     0.1550000   -0.6780000   2.907388e-04  1.414488e-07
    105    106   2   0.50000     0.1550000    0.0120000   5.042375e-05  1.012808e-08
    106     94   2   0.50000     0.0120000    0.3700000   2.431434e-04  1.541678e-07
     93    109   2   0.50000     0.0550000    0.3700000   1.091018e-03  2.092768e-06
     93    117   2   0.50000     0.0550000    0.0600000   2.494471e-04  1.671101e-07
     93    122   2   0.50000     0.0550000   -0.1200000   1.015252e-03  1.866303e-06
    115    109   2   0.50000     0.0600000    0.3700000   2.680627e-04  1.873879e-07
    115    117   2   0.50000     0.0600000    0.0600000   6.128906e-05  1.496315e-08
    115    122   2   0.50000     0.0600000   -0.1200000   2.494471e-04  1.671101e-07
    116    109   2   0.50000     0.0600000    0.3700000   2.680627e-04  1.873879e-07
    116    117   2   0.50000     0.0600000    0.0600000   6.128906e-05  1.496315e-08
    116    122   2   0.50000     0.0600000   -0.1200000   2.494471e-04  1.671101e-07
    107    110   2   0.50000    -0.1200000   -0.4470000   1.091018e-03  2.092768e-06
    107    114   2   0.50000    -0.1200000   -0.6780000   1.304585e-03  1.920112e-06
    117    110   2   0.50000     0.0600000   -0.4470000   2.680627e-04  1.873879e-07
    117    114   2   0.50000     0.0600000   -0.6780000   3.205360e-04  1.719281e-07
    122    110   2   0.50000    -0.1200000   -0.4470000   1.091018e-03  2.092768e-06
    122    114   2   0.50000    -0.1200000   -0.6780000   1.304585e-03  1.920112e-06
    107    123   2   0.50000    -0.1200000    0.0550000   1.015252e-03  1.866303e-06
    107    130   2   0.50000    -0.1200000    0.0600000   2.494471e-04  1.671101e-07
    107    131   2   0.50000    -0.1200000    0.0600000   2.494471e-04  1.671101e-07
    109    123   2   0.50000     0.3700000    0.0550000   1.091018e-03  2.092768e-06
    109    130   2   0.50000     0.3700000    0.0600000   2.680627e-04  1.873879e-07
    109    131   2   0.50000     0.3700000    0.0600000   2.680627e-04  1.873879e-07
    117    123   2   0.50000     0.0600000    0.0550000   2.494471e-04  1.671101e-07
    117    130   2   0.50000     0.0600000    0.0600000   6.128906e-05  1.496315e-08
    117    131   2   0.50000     0.0600000    0.0600000   6.128906e-05  1.496315e-08
    108    111   2   0.50000     0.0550000    0.2270000   1.091018e-03  2.092768e-06
    108    118   2   0.50000     0.0550000    0.1550000   2.262583e-04  1.374848e-07
    114    111   2   0.50000    -0.6780000    0.2270000   1.401943e-03  2.153106e-06
    114    118   2   0.50000    -0.6780000    0.1550000   2.907388e-04  1.414488e-07
    108    113   2   0.50000     0.0550000    0.4730000   1.091018e-03  2.092768e-06
    110    113   2   0.50000    -0.4470000    0.4730000   1.172438e-03  2.346713e-06
    109    112   2   0.50000     0.3700000   -0.4470000   1.172438e-03  2.346713e-06
    109    119   2   0.50000     0.3700000    0.0650000   2.431434e-04  1.541678e-07
    118    112   2   0.50000     0.1550000   -0.4470000   2.431434e-04  1.541678e-07
    118    119   2   0.50000     0.1550000    0.0650000   5.042375e-05  1.012808e-08
    110    120   2   0.50000    -0.4470000    0.1550000   2.431434e-04  1.541678e-07
    119    113   2   0.50000     0.0650000    0.4730000   2.431434e-04  1.541678e-07
    119    120   2   0.50000     0.0650000    0.1550000   5.042375e-05  1.012808e-08
    111    121   2   0.50000     0.2270000    0.0120000   2.431434e-04  1.541678e-07
    120    114   2   0.50000     0.1550000   -0.6780000   2.907388e-04  1.414488e-07
    120    121   2   0.50000     0.1550000    0.0120000   5.042375e-05  1.012808e-08
    121    109   2   0.50000     0.0120000    0.3700000   2.431434e-04  1.541678e-07
    108    124   2   0.50000     0.0550000    0.3700000   1.091018e-03  2.092768e-06
    108    132   2   0.50000     0.0550000    0.0600000   2.494471e-04  1.671101e-07
    108    137   2   0.50000     0.0550000   -0.1200000   1.015252e-03  1.866303e-06
    130    124   2   0.50000     0.0600000    0.3700000   2.680627e-04  1.873879e-07
    130    132   2   0.50000     0.0600000    0.0600000   6.128906e-05  1.496315e-08
    130    137   2   0.50000     0.0600000   -0.1200000   2.494471e-04  1.671101e-07
    131    124   2   0.50000     0.0600000    0.3700000   2.680627e-04  1.873879e-07
    131    132   2   0.50000     0.0600000    0.0600000   6.128906e-05  1.496315e-08
    131    137   2   0.50000     0.0600000   -0.1200000   2.494471e-04  1.671101e-07
    122    125   2   0.50000    -0.1200000   -0.4470000   1.091018e-03  2.092768e-06
    122    129   2   0.50000    -0.1200000   -0.6780000   1.304585e-03  1.920112e-06
    132    125   2   0.50000     0.0600000   -0.4470000   2.680627e-04  1.873879e-07
    132    129   2   0.50000     0.0600000   -0.6780000   3.205360e-04  1.719281e-07
    137    125   2   0.50000    -0.1200000   -0.4470000   1.091018e-03  2.092768e-06
    137    129   2   0.50000    -0.1200000   -0.6780000   1.304585e-03  1.920112e-06
    122    138   2   0.50000    -0.1200000    0.0550000   1.015252e-03  1.866303e-06
    122    145   2   0.50000    -0.1200000    0.0600000   2.494471e-04  1.671101e-07
    122    146   2   0.50000    -0.1200000    0.0600000   2.494471e-04  1.671101e-07
    124    138   2   0.50000     0.3700000    0.0550000   1.091018e-03  2.092768e-06
    124    145   2   0.50000     0.3700000    0.0600000   2.680627e-04  1.873879e-07
    124    146   2   0.50000     0.3700000    0.0600000   2.680627e-04  1.873879e-07
    132    138   2   0.50000     0.0600000    0.0550000   2.494471e-04  1.671101e-07
    132    145   2   0.50000     0.0600000    0.0600000   6.128906e-05  1.496315e-08
    132    146   2   0.50000     0.0600000    0.0600000   6.128906e-05  1.496315e-08
    123    126   2   0.50000     0.0550000    0.2270000   1.091018e-03  2.092768e-06
    123    133   2   0.50000     0.0550000    0.1550000   2.262583e-04  1.374848e-07
    129    126   2   0.50000    -0.6780000    0.2270000   1.401943e-03  2.153106e-06
    129    133   2   0.50000    -0.6780000    0.1550000   2.907388e-04  1.414488e-07
    123    128   2   0.50000     0.0550000    0.4730000   1.091018e-03  2.092768e-06
    125    128   2   0.50000    -0.4470000    0.4730000   1.172438e-03  2.346713e-06
    124    127   2   0.50000     0.3700000   -0.4470000   1.172438e-03  2.346713e-06
    124    134   2   0.50000     0.3700000    0.0650000   2.431434e-04  1.541678e-07
    133    127   2   0.50000     0.1550000   -0.4470000   2.431434e-04  1.541678e-07
    133    134   2   0.50000     0.1550000    0.0650000   5.042375e-05  1.012808e-08
    125    135   2   0.50000    -0.4470000    0.1550000   2.431434e-04  1.541678e-07
    134    128   2   0.50000     0.0650000    0.4730000   2.431434e-04  1.541678e-07
    134    135   2   0.50000     0.0650000    0.1550000   5.042375e-05  1.012808e-08
    126    136   2   0.50000     0.2270000    0.0120000   2.431434e-04  1.541678e-07
    135    129   2   0.50000     0.1550000   -0.6780000   2.907388e-04  1.414488e-07
    135    136   2   0.50000     0.1550000    0.0120000   5.042375e-05  1.012808e-08
    136    124   2   0.50000     0.0120000    0.3700000   2.431434e-04  1.541678e-07
    123    139   2   0.50000     0.0550000    0.3700000   1.091018e-03  2.092768e-06
    123    147   2   0.50000     0.0550000    0.0600000   2.494471e-04  1.671101e-07
    123    152   2   0.50000     0.0550000   -0.1200000   1.015252e-03  1.866303e-06
    145    139   2   0.50000     0.0600000    0.3700000   2.680627e-04  1.873879e-07
    145    147   2   0.50000     0.0600000    0.0600000   6.128906e-05  1.496315e-08
    145    152   2   0.50000     0.0600000   -0.1200000   2.494471e-04  1.671101e-07
    146    139   2   0.50000     0.0600000    0.3700000   2.680627e-04  1.873879e-07
    146    147   2   0.50000     0.0600000    0.0600000   6.128906e-05  1.496315e-08
    146    152   2   0.50000     0.0600000   -0.1200000   2.494471e-04  1.671101e-07
    137    140   2   0.50000    -0.1200000   -0.4470000   1.091018e-03  2.092768e-06
    137    144   2   0.50000    -0.1200000   -0.6780000   1.304585e-03  1.920112e-06
    147    140   2   0.50000     0.0600000   -0.4470000   2.680627e-04  1.873879e-07
    147    144   2   0.50000     0.0600000   -0.6780000   3.205360e-04  1.719281e-07
    152    140   2   0.50000    -0.1200000   -0.4470000   1.091018e-03  2.092768e-06
    152    144   2   0.50000    -0.1200000   -0.6780000   1.304585e-03  1.920112e-06
    137    153   2   0.50000    -0.1200000    0.0550000   1.015252e-03  1.866303e-06
    137    160   2   0.50000    -0.1200000    0.0600000   2.494471e-04  1.671101e-07
    137    161   2   0.50000    -0.1200000    0.0600000   2.494471e-04  1.671101e-07
    139    153   2   0.50000     0.3700000    0.0550000   1.091018e-03  2.092768e-06
    139    160   2   0.50000     0.3700000    0.0600000   2.680627e-04  1.873879e-07
    139    161   2   0.50000     0.3700000    0.0600000   2.680627e-04  1.873879e-07
    147    153   2   0.50000     0.0600000    0.0550000   2.494471e-04  1.671101e-07
    147    160   2   0.50000     0.0600000    0.0600000   6.128906e-05  1.496315e-08
    147    161   2   0.50000     0.0600000    0.0600000   6.128906e-05  1.496315e-08
    138    141   2   0.50000     0.0550000    0.2270000   1.091018e-03  2.092768e-06
    138    148   2   0.50000     0.0550000    0.1550000   2.262583e-04  1.374848e-07
    144    141   2   0.50000    -0.6780000    0.2270000   1.401943e-03  2.153106e-06
    144    148   2   0.50000    -0.6780000    0.1550000   2.907388e-04  1.414488e-07
    138    143   2   0.50000     0.0550000    0.4730000   1.091018e-03  2.092768e-06
    140    143   2   0.50000    -0.4470000    0.4730000   1.172438e-03  2.346713e-06
    139    142   2   0.50000     0.3700000   -0.4470000   1.172438e-03  2.346713e-06
    139    149   2   0.50000     0.3700000    0.0650000   2.431434e-04  1.541678e-07
    148    142   2   0.50000     0.1550000   -0.4470000   2.431434e-04  1.541678e-07
    148    149   2   0.50000     0.1550000    0.0650000   5.042375e-05  1.012808e-08
    140    150   2   0.50000    -0.4470000    0.1550000   2.431434e-04  1.541678e-07
    149    143   2   0.50000     0.0650000    0.4730000   2.431434e-04  1.541678e-07
    149    150   2   0.50000     0.0650000    0.1550000   5.042375e-05  1.012808e-08
    141    151   2   0.50000     0.2270000    0.0120000   2.431434e-04  1.541678e-07
    150    144   2   0.50000     0.1550000   -0.6780000   2.907388e-04  1.414488e-07
    150    151   2   0.50000     0.1550000    0.0120000   5.042375e-05  1.012808e-08
    151    139   2   0.50000     0.0120000    0.3700000   2.431434e-04  1.541678e-07
    138    154   2   0.50000     0.0550000    0.3700000   1.091018e-03  2.092768e-06
    138    162   2   0.50000     0.0550000    0.0600000   2.494471e-04  1.671101e-07
    138    167   2   0.50000     0.0550000   -0.1200000   1.015252e-03  1.866303e-06
    160    154   2   0.50000     0.0600000    0.3700000   2.680627e-04  1.873879e-07
    160    162   2   0.50000     0.0600000    0.0600000   6.128906e-05  1.496315e-08
    160    167   2   0.50000     0.0600000   -0.1200000   2.494471e-04  1.671101e-07
    161    154   2   0.50000     0.0600000    0.3700000   2.680627e-04  1.873879e-07
    161    162   2   0.50000     0.0600000    0.0600000   6.128906e-05  1.496315e-08
    161    167   2   0.50000     0.0600000   -0.1200000   2.494471e-04  1.671101e-07
    152    155   2   0.50000    -0.1200000   -0.4470000   1.091018e-03  2.092768e-06
    152    159   2   0.50000    -0.1200000   -0.6780000   1.304585e-03  1.920112e-06
    162    155   2   0.50000     0.0600000   -0.4470000   2.680627e-04  1.873879e-07
    162    159   2   0.50000     0.0600000   -0.6780000   3.205360e-04  1.719281e-07
    167    155   2   0.50000    -0.1200000   -0.4470000   1.091018e-03  2.092768e-06
    167    159   2   0.50000    -0.1200000   -0.6780000   1.304585e-03  1.920112e-06
    152    168   2   0.50000    -0.1200000    0.0550000   1.015252e-03  1.866303e-06
    152    175   2   0.50000    -0.1200000    0.0600000   2.494471e-04  1.671101e-07
    152    176   2   0.50000    -0.1200000    0.0600000   2.494471e-04  1.671101e-07
    154    168   2   0.50000     0.3700000    0.0550000   1.091018e-03  2.092768e-06
    154    175   2   0.50000     0.3700000    0.0600000   2.680627e-04  1.873879e-07
    154    176   2   0.50000     0.3700000    0.0600000   2.680627e-04  1.873879e-07
    162    168   2   0.50000     0.0600000    0.0550000   2.494471e-04  1.671101e-07
    162    175   2   0.50000     0.0600000    0.0600000   6.128906e-05  1.496315e-08
    162    176   2   0.50000     0.0600000    0.0600000   6.128906e-05  1.496315e-08
    153    156   2   0.50000     0.0550000    0.2270000   1.091018e-03  2.092768e-06
    153    163   2   0.50000     0.0550000    0.1550000   2.262583e-04  1.374848e-07
    159    156   2   0.50000    -0.6780000    0.2270000   1.401943e-03  2.153106e-06
    159    163   2   0.50000    -0.6780000    0.1550000   2.907388e-04  1.414488e-07
    153    158   2   0.50000     0.0550000    0.4730000   1.091018e-03  2.092768e-06
    155    158   2   0.50000    -0.4470000    0.4730000   1.172438e-03  2.346713e-06
    154    157   2   0.50000     0.3700000   -0.4470000   1.172438e-03  2.346713e-06
    154    164   2   0.50000     0.3700000    0.0650000   2.431434e-04  1.541678e-07
    163    157   2   0.50000     0.1550000   -0.4470000   2.431434e-04  1.541678e-07
    163    164   2   0.50000     0.1550000    0.0650000   5.042375e-05  1.012808e-08
    155    165   2   0.50000    -0.4470000    0.1550000   2.431434e-04  1.541678e-07
    164    158   2   0.50000     0.0650000    0.4730000   2.431434e-04  1.541678e-07
    164    165   2   0.50000     0.0650000    0.1550000   5.042375e-05  1.012808e-08
    156    166   2   0.50000     0.2270000    0.0120000   2.431434e-04  1.541678e-07
    165    159   2   0.50000     0.1550000   -0.6780000   2.907388e-04  1.414488e-07
    165    166   2   0.50000     0.1550000    0.0120000   5.042375e-05  1.012808e-08
    166    154   2   0.50000     0.0120000    0.3700000   2.431434e-04  1.541678e-07
    153    169   2   0.50000     0.0550000    0.3700000   1.091018e-03  2.092768e-06
    153    177   2   0.50000     0.0550000    0.0600000   2.494471e-04  1.671101e-07
    153    182   2   0.50000     0.0550000   -0.1200000   1.015252e-03  1.866303e-06
    175    169   2   0.50000     0.0600000    0.3700000   2.680627e-04  1.873879e-07
    175    177   2   0.50000     0.0600000    0.0600000   6.128906e-05  1.496315e-08
    175    182   2   0.50000     0.0600000   -0.1200000   2.494471e-04  1.671101e-07
    176    169   2   0.50000     0.0600000    0.3700000   2.680627e-04  1.873879e-07
    176    177   2   0.50000     0.0600000    0.0600000   6.128906e-05  1.496315e-08
    176    182   2   0.50000     0.0600000   -0.1200000   2.494471e-04  1.671101e-07
    167    170   2   0.50000    -0.1200000   -0.4470000   1.091018e-03  2.092768e-06
    167    174   2   0.50000    -0.1200000   -0.6780000   1.304585e-03  1.920112e-06
    177    170   2   0.50000     0.0600000   -0.4470000   2.680627e-04  1.873879e-07
    177    174   2   0.50000     0.0600000   -0.6780000   3.205360e-04  1.719281e-07
    182    170   2   0.50000    -0.1200000   -0.4470000   1.091018e-03  2.092768e-06
    182    174   2   0.50000    -0.1200000   -0.6780000   1.304585e-03  1.920112e-06
    167    183   2   0.50000    -0.1200000    0.0550000   1.015252e-03  1.866303e-06
    167    190   2   0.50000    -0.1200000    0.0600000   2.494471e-04  1.671101e-07
    167    191   2   0.50000    -0.1200000    0.0600000   2.494471e-04  1.671101e-07
    169    183   2   0.50000     0.3700000    0.0550000   1.091018e-03  2.092768e-06
    169    190   2   0.50000     0.3700000    0.0600000   2.680627e-04  1.873879e-07
    169    191   2   0.50000     0.3700000    0.0600000   2.680627e-04  1.873879e-07
    177    183   2   0.50000     0.0600000    0.0550000   2.494471e-04  1.671101e-07
    177    190   2   0.50000     0.0600000    0.0600000   6.128906e-05  1.496315e-08
    177    191   2   0.50000     0.0600000    0.0600000   6.128906e-05  1.496315e-08
    168    171   2   0.50000     0.0550000    0.2270000   1.091018e-03  2.092768e-06
    168    178   2   0.50000     0.0550000    0.1550000   2.262583e-04  1.374848e-07
    174    171   2   0.50000    -0.6780000    0.2270000   1.401943e-03  2.153106e-06
    174    178   2   0.50000    -0.6780000    0.1550000   2.907388e-04  1.414488e-07
    168    173   2   0.50000     0.0550000    0.4730000   1.091018e-03  2.092768e-06
    170    173   2   0.50000    -0.4470000    0.4730000   1.172438e-03  2.346713e-06
    169    172   2   0.50000     0.3700000   -0.4470000   1.172438e-03  2.346713e-06
    169    179   2   0.50000     0.3700000    0.0650000   2.431434e-04  1.541678e-07
    178    172   2   0.50000     0.1550000   -0.4470000   2.431434e-04  1.541678e-07
    178    179   2   0.50000     0.1550000    0.0650000   5.042375e-05  1.012808e-08
    170    180   2   0.50000    -0.4470000    0.1550000   2.431434e-04  1.541678e-07
    179    173   2   0.50000     0.0650000    0.4730000   2.431434e-04  1.541678e-07
    179    180   2   0.50000     0.0650000    0.1550000   5.042375e-05  1.012808e-08
    171    181   2   0.50000     0.2270000    0.0120000   2.431434e-04  1.541678e-07
    180    174   2   0.50000     0.1550000   -0.6780000   2.907388e-04  1.414488e-07
    180    181   2   0.50000     0.1550000    0.0120000   5.042375e-05  1.012808e-08
    181    169   2   0.50000     0.0120000    0.3700000   2.431434e-04  1.541678e-07
    168    184   2   0.50000     0.0550000    0.3700000   1.091018e-03  2.092768e-06
    168    192   2   0.50000     0.0550000    0.0600000   2.494471e-04  1.671101e-07
    168    197   2   0.50000     0.0550000   -0.1200000   1.015252e-03  1.866303e-06
    190    184   2   0.50000     0.0600000    0.3700000   2.680627e-04  1.873879e-07
    190    192   2   0.50000     0.0600000    0.0600000   6.128906e-05  1.496315e-08
    190    197   2   0.50000     0.0600000   -0.1200000   2.494471e-04  1.671101e-07
    191    184   2   0.50000     0.0600000    0.3700000   2.680627e-04  1.873879e-07
    191    192   2   0.50000     0.0600000    0.0600000   6.128906e-05  1.496315e-08
    191    197   2   0.50000     0.0600000   -0.1200000   2.494471e-04  1.671101e-07
    182    185   2   0.50000    -0.1200000   -0.4470000   1.091018e-03  2.092768e-06
    182    189   2   0.50000    -0.1200000   -0.6780000   1.304585e-03  1.920112e-06
    192    185   2   0.50000     0.0600000   -0.4470000   2.680627e-04  1.873879e-07
    192    189   2   0.50000     0.0600000   -0.6780000   3.205360e-04  1.719281e-07
    197    185   2   0.50000    -0.1200000   -0.4470000   1.091018e-03  2.092768e-06
    197    189   2   0.50000    -0.1200000   -0.6780000   1.304585e-03  1.920112e-06
    182    198   2   0.50000    -0.1200000    0.0550000   1.015252e-03  1.866303e-06
    182    205   2   0.50000    -0.1200000    0.0600000   2.494471e-04  1.671101e-07
    182    206   2   0.50000    -0.1200000    0.0600000   2.494471e-04  1.671101e-07
    184    198   2   0.50000     0.3700000    0.0550000   1.091018e-03  2.092768e-06
    184    205   2   0.50000     0.3700000    0.0600000   2.680627e-04  1.873879e-07
    184    206   2   0.50000     0.3700000    0.0600000   2.680627e-04  1.873879e-07
    192    198   2   0.50000     0.0600000    0.0550000   2.494471e-04  1.671101e-07
    192    205   2   0.50000     0.0600000    0.0600000   6.128906e-05  1.496315e-08
    192    206   2   0.50000     0.0600000    0.0600000   6.128906e-05  1.496315e-08
    183    186   2   0.50000     0.0550000    0.2270000   1.091018e-03  2.092768e-06
    183    193   2   0.50000     0.0550000    0.1550000   2.262583e-04  1.374848e-07
    189    186   2   0.50000    -0.6780000    0.2270000   1.401943e-03  2.153106e-06
    189    193   2   0.50000    -0.6780000    0.1550000   2.907388e-04  1.414488e-07
    183    188   2   0.50000     0.0550000    0.4730000   1.091018e-03  2.092768e-06
    185    188   2   0.50000    -0.4470000    0.4730000   1.172438e-03  2.346713e-06
    184    187   2   0.50000     0.3700000   -0.4470000   1.172438e-03  2.346713e-06
    184    194   2   0.50000     0.3700000    0.0650000   2.431434e-04  1.541678e-07
    193    187   2   0.50000     0.1550000   -0.4470000   2.431434e-04  1.541678e-07
    193    194   2   0.50000     0.1550000    0.0650000   5.042375e-05  1.012808e-08
    185    195   2   0.50000    -0.4470000    0.1550000   2.431434e-04  1.541678e-07
    194    188   2   0.50000     0.0650000    0.4730000   2.431434e-04  1.541678e-07
    194    195   2   0.50000     0.0650000    0.1550000   5.042375e-05  1.012808e-08
    186    196   2   0.50000     0.2270000    0.0120000   2.431434e-04  1.541678e-07
    195    189   2   0.50000     0.1550000   -0.6780000   2.907388e-04  1.414488e-07
    195    196   2   0.50000     0.1550000    0.0120000   5.042375e-05  1.012808e-08
    196    184   2   0.50000     0.0120000    0.3700000   2.431434e-04  1.541678e-07
    183    199   2   0.50000     0.0550000    0.3700000   1.091018e-03  2.092768e-06
    183    207   2   0.50000     0.0550000    0.0600000   2.494471e-04  1.671101e-07
    183    212   2   0.50000     0.0550000   -0.1200000   1.015252e-03  1.866303e-06
    205    199   2   0.50000     0.0600000    0.3700000   2.680627e-04  1.873879e-07
    205    207   2   0.50000     0.0600000    0.0600000   6.128906e-05  1.496315e-08
    205    212   2   0.50000     0.0600000   -0.1200000   2.494471e-04  1.671101e-07
    206    199   2   0.50000     0.0600000    0.3700000   2.680627e-04  1.873879e-07
    206    207   2   0.50000     0.0600000    0.0600000   6.128906e-05  1.496315e-08
    206    212   2   0.50000     0.0600000   -0.1200000   2.494471e-04  1.671101e-07
    197    200   2   0.50000    -0.1200000   -0.4470000   1.091018e-03  2.092768e-06
    197    204   2   0.50000    -0.1200000   -0.6780000   1.304585e-03  1.920112e-06
    207    200   2   0.50000     0.0600000   -0.4470000   2.680627e-04  1.873879e-07
    207    204   2   0.50000     0.0600000   -0.6780000   3.205360e-04  1.719281e-07
    212    200   2   0.50000    -0.1200000   -0.4470000   1.091018e-03  2.092768e-06
    212    204   2   0.50000    -0.1200000   -0.6780000   1.304585e-03  1.920112e-06
    197    213   2   0.50000    -0.1200000    0.0550000   1.015252e-03  1.866303e-06
    197    220   2   0.50000    -0.1200000    0.0600000   2.494471e-04  1.671101e-07
    197    221   2   0.50000    -0.1200000    0.0600000   2.494471e-04  1.671101e-07
    199    213   2   0.50000     0.3700000    0.0550000   1.091018e-03  2.092768e-06
    199    220   2   0.50000     0.3700000    0.0600000   2.680627e-04  1.873879e-07
    199    221   2   0.50000     0.3700000    0.0600000   2.680627e-04  1.873879e-07
    207    213   2   0.50000     0.0600000    0.0550000   2.494471e-04  1.671101e-07
    207    220   2   0.50000     0.0600000    0.0600000   6.128906e-05  1.496315e-08
    207    221   2   0.50000     0.0600000    0.0600000   6.128906e-05  1.496315e-08
    198    201   2   0.50000     0.0550000    0.2270000   1.091018e-03  2.092768e-06
    198    208   2   0.50000     0.0550000    0.1550000   2.262583e-04  1.374848e-07
    204    201   2   0.50000    -0.6780000    0.2270000   1.401943e-03  2.153106e-06
    204    208   2   0.50000    -0.6780000    0.1550000   2.907388e-04  1.414488e-07
    198    203   2   0.50000     0.0550000    0.4730000   1.091018e-03  2.092768e-06
    200    203   2   0.50000    -0.4470000    0.4730000   1.172438e-03  2.346713e-06
    199    202   2   0.50000     0.3700000   -0.4470000   1.172438e-03  2.346713e-06
    199    209   2   0.50000     0.3700000    0.0650000   2.431434e-04  1.541678e-07
    208    202   2   0.50000     0.1550000   -0.4470000   2.431434e-04  1.541678e-07
    208    209   2   0.50000     0.1550000    0.0650000   5.042375e-05  1.012808e-08
    200    210   2   0.50000    -0.4470000    0.1550000   2.431434e-04  1.541678e-07
    209    203   2   0.50000     0.0650000    0.4730000   2.431434e-04  1.541678e-07
    209    210   2   0.50000     0.0650000    0.1550000   5.042375e-05  1.012808e-08
    201    211   2   0.50000     0.2270000    0.0120000   2.431434e-04  1.541678e-07
    210    204   2   0.50000     0.1550000   -0.6780000   2.907388e-04  1.414488e-07
    210    211   2   0.50000     0.1550000    0.0120000   5.042375e-05  1.012808e-08
    211    199   2   0.50000     0.0120000    0.3700000   2.431434e-04  1.541678e-07
    198    214   2   0.50000     0.0550000    0.3700000   1.091018e-03  2.092768e-06
    198    222   2   0.50000     0.0550000    0.0600000   2.494471e-04  1.671101e-07
    198    227   2   0.50000     0.0550000   -0.1200000   1.015252e-03  1.866303e-06
    220    214   2   0.50000     0.0600000    0.3700000   2.680627e-04  1.873879e-07
    220    222   2   0.50000     0.0600000    0.0600000   6.128906e-05  1.496315e-08
    220    227   2   0.50000     0.0600000   -0.1200000   2.494471e-04  1.671101e-07
    221    214   2   0.50000     0.0600000    0.3700000   2.680627e-04  1.873879e-07
    221    222   2   0.50000     0.0600000    0.0600000   6.128906e-05  1.496315e-08
    221    227   2   0.50000     0.0600000   -0.1200000   2.494471e-04  1.671101e-07
    212    215   2   0.50000    -0.1200000   -0.4470000   1.091018e-03  2.092768e-06
    212    219   2   0.50000    -0.1200000   -0.6780000   1.304585e-03  1.920112e-06
    222    215   2   0.50000     0.0600000   -0.4470000   2.680627e-04  1.873879e-07
    222    219   2   0.50000     0.0600000   -0.6780000   3.205360e-04  1.719281e-07
    227    215   2   0.50000    -0.1200000   -0.4470000   1.091018e-03  2.092768e-06
    227    219   2   0.50000    -0.1200000   -0.6780000   1.304585e-03  1.920112e-06
    212    228   2   0.50000    -0.1200000    0.0550000   1.015252e-03  1.866303e-06
    212    235   2   0.50000    -0.1200000    0.0600000   2.494471e-04  1.671101e-07
    212    236   2   0.50000    -0.1200000    0.0600000   2.494471e-04  1.671101e-07
    214    228   2   0.50000     0.3700000    0.0550000   1.091018e-03  2.092768e-06
    214    235   2   0.50000     0.3700000    0.0600000   2.680627e-04  1.873879e-07
    214    236   2   0.50000     0.3700000    0.0600000   2.680627e-04  1.873879e-07
    222    228   2   0.50000     0.0600000    0.0550000   2.494471e-04  1.671101e-07
    222    235   2   0.50000     0.0600000    0.0600000   6.128906e-05  1.496315e-08
    222    236   2   0.50000     0.0600000    0.0600000   6.128906e-05  1.496315e-08
    213    216   2   0.50000     0.0550000    0.2270000   1.091018e-03  2.092768e-06
    213    223   2   0.50000     0.0550000    0.1550000   2.262583e-04  1.374848e-07
    219    216   2   0.50000    -0.6780000    0.2270000   1.401943e-03  2.153106e-06
    219    223   2   0.50000    -0.6780000    0.1550000   2.907388e-04  1.414488e-07
    213    218   2   0.50000     0.0550000    0.4730000   1.091018e-03  2.092768e-06
    215    218   2   0.50000    -0.4470000    0.4730000   1.172438e-03  2.346713e-06
    214    217   2   0.50000     0.3700000   -0.4470000   1.172438e-03  2.346713e-06
    214    224   2   0.50000     0.3700000    0.0650000   2.431434e-04  1.541678e-07
    223    217   2   0.50000     0.1550000   -0.4470000   2.431434e-04  1.541678e-07
    223    224   2   0.50000     0.1550000    0.0650000   5.042375e-05  1.012808e-08
    215    225   2   0.50000    -0.4470000    0.1550000   2.431434e-04  1.541678e-07
    224    218   2   0.50000     0.0650000    0.4730000   2.431434e-04  1.541678e-07
    224    225   2   0.50000     0.0650000    0.1550000   5.042375e-05  1.012808e-08
    216    226   2   0.50000     0.2270000    0.0120000   2.431434e-04  1.541678e-07
    225    219   2   0.50000     0.1550000   -0.6780000   2.907388e-04  1.414488e-07
    225    226   2   0.50000     0.1550000    0.0120000   5.042375e-05  1.012808e-08
    226    214   2   0.50000     0.0120000    0.3700000   2.431434e-04  1.541678e-07
    213    229   2   0.50000     0.0550000    0.3700000   1.091018e-03  2.092768e-06
    213    237   2   0.50000     0.0550000    0.0600000   2.494471e-04  1.671101e-07
    213    242   2   0.50000     0.0550000   -0.1200000   1.015252e-03  1.866303e-06
    235    229   2   0.50000     0.0600000    0.3700000   2.680627e-04  1.873879e-07
    235    237   2   0.50000     0.0600000    0.0600000   6.128906e-05  1.496315e-08
    235    242   2   0.50000     0.0600000   -0.1200000   2.494471e-04  1.671101e-07
    236    229   2   0.50000     0.0600000    0.3700000   2.680627e-04  1.873879e-07
    236    237   2   0.50000     0.0600000    0.0600000   6.128906e-05  1.496315e-08
    236    242   2   0.50000     0.0600000   -0.1200000   2.494471e-04  1.671101e-07
    227    230   2   0.50000    -0.1200000   -0.4470000   1.091018e-03  2.092768e-06
    227    234   2   0.50000    -0.1200000   -0.6780000   1.304585e-03  1.920112e-06
    237    230   2   0.50000     0.0600000   -0.4470000   2.680627e-04  1.873879e-07
    237    234   2   0.50000     0.0600000   -0.6780000   3.205360e-04  1.719281e-07
    242    230   2   0.50000    -0.1200000   -0.4470000   1.091018e-03  2.092768e-06
    242    234   2   0.50000    -0.1200000   -0.6780000   1.304585e-03  1.920112e-06
    227    243   2   0.50000    -0.1200000    0.0550000   1.015252e-03  1.866303e-06
    227    250   2   0.50000    -0.1200000    0.0600000   2.494471e-04  1.671101e-07
    227    251   2   0.50000    -0.1200000    0.0600000   2.494471e-04  1.671101e-07
    229    243   2   0.50000     0.3700000    0.0550000   1.091018e-03  2.092768e-06
    229    250   2   0.50000     0.3700000    0.0600000   2.680627e-04  1.873879e-07
    229    251   2   0.50000     0.3700000    0.0600000   2.680627e-04  1.873879e-07
    237    243   2   0.50000     0.0600000    0.0550000   2.494471e-04  1.671101e-07
    237    250   2   0.50000     0.0600000    0.0600000   6.128906e-05  1.496315e-08
    237    251   2   0.50000     0.0600000    0.0600000   6.128906e-05  1.496315e-08
    228    231   2   0.50000     0.0550000    0.2270000   1.091018e-03  2.092768e-06
    228    238   2   0.50000     0.0550000    0.1550000   2.262583e-04  1.374848e-07
    234    231   2   0.50000    -0.6780000    0.2270000   1.401943e-03  2.153106e-06
    234    238   2   0.50000    -0.6780000    0.1550000   2.907388e-04  1.414488e-07
    228    233   2   0.50000     0.0550000    0.4730000   1.091018e-03  2.092768e-06
    230    233   2   0.50000    -0.4470000    0.4730000   1.172438e-03  2.346713e-06
    229    232   2   0.50000     0.3700000   -0.4470000   1.172438e-03  2.346713e-06
    229    239   2   0.50000     0.3700000    0.0650000   2.431434e-04  1.541678e-07
    238    232   2   0.50000     0.1550000   -0.4470000   2.431434e-04  1.541678e-07
    238    239   2   0.50000     0.1550000    0.0650000   5.042375e-05  1.012808e-08
    230    240   2   0.50000    -0.4470000    0.1550000   2.431434e-04  1.541678e-07
    239    233   2   0.50000     0.0650000    0.4730000   2.431434e-04  1.541678e-07
    239    240   2   0.50000     0.0650000    0.1550000   5.042375e-05  1.012808e-08
    231    241   2   0.50000     0.2270000    0.0120000   2.431434e-04  1.541678e-07
    240    234   2   0.50000     0.1550000   -0.6780000   2.907388e-04  1.414488e-07
    240    241   2   0.50000     0.1550000    0.0120000   5.042375e-05  1.012808e-08
    241    229   2   0.50000     0.0120000    0.3700000   2.431434e-04  1.541678e-07
    228    244   2   0.50000     0.0550000    0.3700000   1.091018e-03  2.092768e-06
    228    252   2   0.50000     0.0550000    0.0600000   2.494471e-04  1.671101e-07
    228    257   2   0.50000     0.0550000   -0.1200000   1.015252e-03  1.866303e-06
    250    244   2   0.50000     0.0600000    0.3700000   2.680627e-04  1.873879e-07
    250    252   2   0.50000     0.0600000    0.0600000   6.128906e-05  1.496315e-08
    250    257   2   0.50000     0.0600000   -0.1200000   2.494471e-04  1.671101e-07
    251    244   2   0.50000     0.0600000    0.3700000   2.680627e-04  1.873879e-07
    251    252   2   0.50000     0.0600000    0.0600000   6.128906e-05  1.496315e-08
    251    257   2   0.50000     0.0600000   -0.1200000   2.494471e-04  1.671101e-07
    242    245   2   0.50000    -0.1200000   -0.4470000   1.091018e-03  2.092768e-06
    242    249   2   0.50000    -0.1200000   -0.6780000   1.304585e-03  1.920112e-06
    252    245   2   0.50000     0.0600000   -0.4470000   2.680627e-04  1.873879e-07
    252    249   2   0.50000     0.0600000   -0.6780000   3.205360e-04  1.719281e-07
    257    245   2   0.50000    -0.1200000   -0.4470000   1.091018e-03  2.092768e-06
    257    249   2   0.50000    -0.1200000   -0.6780000   1.304585e-03  1.920112e-06
    242    258   2   0.50000    -0.1200000    0.0550000   1.015252e-03  1.866303e-06
    242    265   2   0.50000    -0.1200000    0.0600000   2.494471e-04  1.671101e-07
    242    266   2   0.50000    -0.1200000    0.0600000   2.494471e-04  1.671101e-07
    244    258   2   0.50000     0.3700000    0.0550000   1.091018e-03  2.092768e-06
    244    265   2   0.50000     0.3700000    0.0600000   2.680627e-04  1.873879e-07
    244    266   2   0.50000     0.3700000    0.0600000   2.680627e-04  1.873879e-07
    252    258   2   0.50000     0.0600000    0.0550000   2.494471e-04  1.671101e-07
    252    265   2   0.50000     0.0600000    0.0600000   6.128906e-05  1.496315e-08
    252    266   2   0.50000     0.0600000    0.0600000   6.128906e-05  1.496315e-08
    243    246   2   0.50000     0.0550000    0.2270000   1.091018e-03  2.092768e-06
    243    253   2   0.50000     0.0550000    0.1550000   2.262583e-04  1.374848e-07
    249    246   2   0.50000    -0.6780000    0.2270000   1.401943e-03  2.153106e-06
    249    253   2   0.50000    -0.6780000    0.1550000   2.907388e-04  1.414488e-07
    243    248   2   0.50000     0.0550000    0.4730000   1.091018e-03  2.092768e-06
    245    248   2   0.50000    -0.4470000    0.4730000   1.172438e-03  2.346713e-06
    244    247   2   0.50000     0.3700000   -0.4470000   1.172438e-03  2.346713e-06
    244    254   2   0.50000     0.3700000    0.0650000   2.431434e-04  1.541678e-07
    253    247   2   0.50000     0.1550000   -0.4470000   2.431434e-04  1.541678e-07
    253    254   2   0.50000     0.1550000    0.0650000   5.042375e-05  1.012808e-08
    245    255   2   0.50000    -0.4470000    0.1550000   2.431434e-04  1.541678e-07
    254    248   2   0.50000     0.0650000    0.4730000   2.431434e-04  1.541678e-07
    254    255   2   0.50000     0.0650000    0.1550000   5.042375e-05  1.012808e-08
    246    256   2   0.50000     0.2270000    0.0120000   2.431434e-04  1.541678e-07
    255    249   2   0.50000     0.1550000   -0.6780000   2.907388e-04  1.414488e-07
    255    256   2   0.50000     0.1550000    0.0120000   5.042375e-05  1.012808e-08
    256    244   2   0.50000     0.0120000    0.3700000   2.431434e-04  1.541678e-07
    243    259   2   0.50000     0.0550000    0.3700000   1.091018e-03  2.092768e-06
    243    267   2   0.50000     0.0550000    0.0600000   2.494471e-04  1.671101e-07
    243    272   2   0.50000     0.0550000   -0.1200000   1.015252e-03  1.866303e-06
    265    259   2   0.50000     0.0600000    0.3700000   2.680627e-04  1.873879e-07
    265    267   2   0.50000     0.0600000    0.0600000   6.128906e-05  1.496315e-08
    265    272   2   0.50000     0.0600000   -0.1200000   2.494471e-04  1.671101e-07
    266    259   2   0.50000     0.0600000    0.3700000   2.680627e-04  1.873879e-07
    266    267   2   0.50000     0.0600000    0.0600000   6.128906e-05  1.496315e-08
    266    272   2   0.50000     0.0600000   -0.1200000   2.494471e-04  1.671101e-07
    257    260   2   0.50000    -0.1200000   -0.4470000   1.091018e-03  2.092768e-06
    257    264   2   0.50000    -0.1200000   -0.6780000   1.304585e-03  1.920112e-06
    267    260   2   0.50000     0.0600000   -0.4470000   2.680627e-04  1.873879e-07
    267    264   2   0.50000     0.0600000   -0.6780000   3.205360e-04  1.719281e-07
    272    260   2   0.50000    -0.1200000   -0.4470000   1.091018e-03  2.092768e-06
    272    264   2   0.50000    -0.1200000   -0.6780000   1.304585e-03  1.920112e-06
    257    273   2   0.50000    -0.1200000    0.0550000   1.015252e-03  1.866303e-06
    257    280   2   0.50000    -0.1200000    0.0600000   2.494471e-04  1.671101e-07
    257    281   2   0.50000    -0.1200000    0.0600000   2.494471e-04  1.671101e-07
    259    273   2   0.50000     0.3700000    0.0550000   1.091018e-03  2.092768e-06
    259    280   2   0.50000     0.3700000    0.0600000   2.680627e-04  1.873879e-07
    259    281   2   0.50000     0.3700000    0.0600000   2.680627e-04  1.873879e-07
    267    273   2   0.50000     0.0600000    0.0550000   2.494471e-04  1.671101e-07
    267    280   2   0.50000     0.0600000    0.0600000   6.128906e-05  1.496315e-08
    267    281   2   0.50000     0.0600000    0.0600000   6.128906e-05  1.496315e-08
    258    261   2   0.50000     0.0550000    0.2270000   1.091018e-03  2.092768e-06
    258    268   2   0.50000     0.0550000    0.1550000   2.262583e-04  1.374848e-07
    264    261   2   0.50000    -0.6780000    0.2270000   1.401943e-03  2.153106e-06
    264    268   2   0.50000    -0.6780000    0.1550000   2.907388e-04  1.414488e-07
    258    263   2   0.50000     0.0550000    0.4730000   1.091018e-03  2.092768e-06
    260    263   2   0.50000    -0.4470000    0.4730000   1.172438e-03  2.346713e-06
    259    262   2   0.50000     0.3700000   -0.4470000   1.172438e-03  2.346713e-06
    259    269   2   0.50000     0.3700000    0.0650000   2.431434e-04  1.541678e-07
    268    262   2   0.50000     0.1550000   -0.4470000   2.431434e-04  1.541678e-07
    268    269   2   0.50000     0.1550000    0.0650000   5.042375e-05  1.012808e-08
    260    270   2   0.50000    -0.4470000    0.1550000   2.431434e-04  1.541678e-07
    269    263   2   0.50000     0.0650000    0.4730000   2.431434e-04  1.541678e-07
    269    270   2   0.50000     0.0650000    0.1550000   5.042375e-05  1.012808e-08
    261    271   2   0.50000     0.2270000    0.0120000   2.431434e-04  1.541678e-07
    270    264   2   0.50000     0.1550000   -0.6780000   2.907388e-04  1.414488e-07
    270    271   2   0.50000     0.1550000    0.0120000   5.042375e-05  1.012808e-08
    271    259   2   0.50000     0.0120000    0.3700000   2.431434e-04  1.541678e-07
    258    274   2   0.50000     0.0550000    0.3700000   1.091018e-03  2.092768e-06
    258    282   2   0.50000     0.0550000    0.0600000   2.494471e-04  1.671101e-07
    258    287   2   0.50000     0.0550000   -0.1200000   1.015252e-03  1.866303e-06
    280    274   2   0.50000     0.0600000    0.3700000   2.680627e-04  1.873879e-07
    280    282   2   0.50000     0.0600000    0.0600000   6.128906e-05  1.496315e-08
    280    287   2   0.50000     0.0600000   -0.1200000   2.494471e-04  1.671101e-07
    281    274   2   0.50000     0.0600000    0.3700000   2.680627e-04  1.873879e-07
    281    282   2   0.50000     0.0600000    0.0600000   6.128906e-05  1.496315e-08
    281    287   2   0.50000     0.0600000   -0.1200000   2.494471e-04  1.671101e-07
    272    275   2   0.50000    -0.1200000   -0.4470000   1.091018e-03  2.092768e-06
    272    279   2   0.50000    -0.1200000   -0.6780000   1.304585e-03  1.920112e-06
    282    275   2   0.50000     0.0600000   -0.4470000   2.680627e-04  1.873879e-07
    282    279   2   0.50000     0.0600000   -0.6780000   3.205360e-04  1.719281e-07
    287    275   2   0.50000    -0.1200000   -0.4470000   1.091018e-03  2.092768e-06
    287    279   2   0.50000    -0.1200000   -0.6780000   1.304585e-03  1.920112e-06
    272    288   2   0.50000    -0.1200000   -0.0050000   1.015252e-03  1.866303e-06
    272    295   2   0.50000    -0.1200000    0.0600000   2.494471e-04  1.671101e-07
    272    296   2   0.50000    -0.1200000    0.0600000   2.494471e-04  1.671101e-07
    274    288   2   0.50000     0.3700000   -0.0050000   1.091018e-03  2.092768e-06
    274    295   2   0.50000     0.3700000    0.0600000   2.680627e-04  1.873879e-07
    274    296   2   0.50000     0.3700000    0.0600000   2.680627e-04  1.873879e-07
    282    288   2   0.50000     0.0600000   -0.0050000   2.494471e-04  1.671101e-07
    282    295   2   0.50000     0.0600000    0.0600000   6.128906e-05  1.496315e-08
    282    296   2   0.50000     0.0600000    0.0600000   6.128906e-05  1.496315e-08
    273    276   2   0.50000     0.0550000    0.2270000   1.091018e-03  2.092768e-06
    273    283   2   0.50000     0.0550000    0.1550000   2.262583e-04  1.374848e-07
    279    276   2   0.50000    -0.6780000    0.2270000   1.401943e-03  2.153106e-06
    279    283   2   0.50000    -0.6780000    0.1550000   2.907388e-04  1.414488e-07
    273    278   2   0.50000     0.0550000    0.4730000   1.091018e-03  2.092768e-06
    275    278   2   0.50000    -0.4470000    0.4730000   1.172438e-03  2.346713e-06
    274    277   2   0.50000     0.3700000   -0.4470000   1.172438e-03  2.346713e-06
    274    284   2   0.50000     0.3700000    0.0650000   2.431434e-04  1.541678e-07
    283    277   2   0.50000     0.1550000   -0.4470000   2.431434e-04  1.541678e-07
    283    284   2   0.50000     0.1550000    0.0650000   5.042375e-05  1.012808e-08
    275    285   2   0.50000    -0.4470000    0.1550000   2.431434e-04  1.541678e-07
    284    278   2   0.50000     0.0650000    0.4730000   2.431434e-04  1.541678e-07
    284    285   2   0.50000     0.0650000    0.1550000   5.042375e-05  1.012808e-08
    276    286   2   0.50000     0.2270000    0.0120000   2.431434e-04  1.541678e-07
    285    279   2   0.50000     0.1550000   -0.6780000   2.907388e-04  1.414488e-07
    285    286   2   0.50000     0.1550000    0.0120000   5.042375e-05  1.012808e-08
    286    274   2   0.50000     0.0120000    0.3700000   2.431434e-04  1.541678e-07
    273    289   2   0.50000     0.0550000    0.3700000   1.091018e-03  2.092768e-06
    273    297   2   0.50000     0.0550000    0.0600000   2.494471e-04  1.671101e-07
    273    302   2   0.50000     0.0550000    0.0600000   2.494471e-04  1.671101e-07
    295    289   2   0.50000     0.0600000    0.3700000   2.680627e-04  1.873879e-07
    295    297   2   0.50000     0.0600000    0.0600000   6.128906e-05  1.496315e-08
    295    302   2   0.50000     0.0600000    0.0600000   6.128906e-05  1.496315e-08
    296    289   2   0.50000     0.0600000    0.3700000   2.680627e-04  1.873879e-07
    296    297   2   0.50000     0.0600000    0.0600000   6.128906e-05  1.496315e-08
    296    302   2   0.50000     0.0600000    0.0600000   6.128906e-05  1.496315e-08
    287    290   2   0.50000    -0.1200000   -0.4470000   1.091018e-03  2.092768e-06
    287    294   2   0.50000    -0.1200000   -0.6780000   1.304585e-03  1.920112e-06
    297    290   2   0.50000     0.0600000   -0.4470000   2.680627e-04  1.873879e-07
    297    294   2   0.50000     0.0600000   -0.6780000   3.205360e-04  1.719281e-07
    302    290   2   0.50000     0.0600000   -0.4470000   2.680627e-04  1.873879e-07
    302    294   2   0.50000     0.0600000   -0.6780000   3.205360e-04  1.719281e-07
    288    291   2   0.50000    -0.0050000    0.2270000   1.091018e-03  2.092768e-06
    288    298   2   0.50000    -0.0050000    0.1550000   2.262583e-04  1.374848e-07
    294    291   2   0.50000    -0.6780000    0.2270000   1.401943e-03  2.153106e-06
    294    298   2   0.50000    -0.6780000    0.1550000   2.907388e-04  1.414488e-07
    288    293   2   0.50000    -0.0050000    0.4730000   1.091018e-03  2.092768e-06
    290    293   2   0.50000    -0.4470000    0.4730000   1.172438e-03  2.346713e-06
    289    292   2   0.50000     0.3700000   -0.4470000   1.172438e-03  2.346713e-06
    289    299   2   0.50000     0.3700000    0.0650000   2.431434e-04  1.541678e-07
    298    292   2   0.50000     0.1550000   -0.4470000   2.431434e-04  1.541678e-07
    298    299   2   0.50000     0.1550000    0.0650000   5.042375e-05  1.012808e-08
    290    300   2   0.50000    -0.4470000    0.1550000   2.431434e-04  1.541678e-07
    299    293   2   0.50000     0.0650000    0.4730000   2.431434e-04  1.541678e-07
    299    300   2   0.50000     0.0650000    0.1550000   5.042375e-05  1.012808e-08
    291    301   2   0.50000     0.2270000    0.0120000   2.431434e-04  1.541678e-07
    300    294   2   0.50000     0.1550000   -0.6780000   2.907388e-04  1.414488e-07
    300    301   2   0.50000     0.1550000    0.0120000   5.042375e-05  1.012808e-08
    301    289   2   0.50000     0.0120000    0.3700000   2.431434e-04  1.541678e-07

[ angles ]
; ai  aj  ak
      2      1      9   1    110.7000    313.8000
      2      1     10   1    110.7000    313.8000
      2      1     16   1    110.7000    313.8000
      9      1     10   1    107.8000    276.1440
      9      1     16   1    107.8000    276.1440
     10      1     16   1    107.8000    276.1440
      1      2      3   1    112.1750    585.7600
      1      2     11   1    110.7000    313.8000
      1      2     17   1    112.7000    488.2728
      3      2     11   1    109.5000    292.8800
      3      2     17   1    112.1750    585.7600
     11      2     17   1    110.7000    313.8000
      2      3      4   1    120.0000    585.7600
      2      3      8   1    115.7470    627.6000
      4      3      8   1    124.0000    585.7600
      3      4      5   1    120.0000    527.1840
      3      4     12   1    120.0000    292.8800
      5      4     12   1    120.0000    292.8800
      4      5      6   1    120.0000    527.1840
      4      5     13   1    120.0000    292.8800
      6      5     13   1    120.0000    292.8800
      5      6      7   1    120.0000    527.1840
      5      6     14   1    120.0000    292.8800
      7      6     14   1    120.0000    292.8800
      6      7      8   1    124.0000    585.7600
      6      7     15   1    120.0000    292.8800
      8      7     15   1    116.0000    292.8800
      3      8      7   1    117.0000    585.7600
      2     17     18   1    112.7000    488.2728
      2     17     25   1    110.7000    313.8000
      2     17     26   1    110.7000    313.8000
     18     17     25   1    110.7000    313.8000
     18     17     26   1    110.7000    313.8000
     25     17     26   1    107.8000    276.1440
     17     18     19   1    112.1750    585.7600
     17     18     27   1    110.7000    313.8000
     17     18     32   1    112.7000    488.2728
     19     18     27   1    109.5000    292.8800
     19     18     32   1    112.1750    585.7600
     27     18     32   1    110.7000    313.8000
     18     19     20   1    120.0000    585.7600
     18     19     24   1    115.7470    627.6000
     20     19     24   1    124.0000    585.7600
     19     20     21   1    120.0000    527.1840
     19     20     28   1    120.0000    292.8800
     21     20     28   1    120.0000    292.8800
     20     21     22   1    120.0000    527.1840
     20     21     29   1    120.0000    292.8800
     22     21     29   1    120.0000    292.8800
     21     22     23   1    120.0000    527.1840
     21     22     30   1    120.0000    292.8800
     23     22     30   1    120.0000    292.8800
     22     23     24   1    124.0000    585.7600
     22     23     31   1    120.0000    292.8800
     24     23     31   1    116.0000    292.8800
     19     24     23   1    117.0000    585.7600
     18     32     33   1    112.7000    488.2728
     18     32     40   1    110.7000    313.8000
     18     32     41   1    110.7000    313.8000
     33     32     40   1    110.7000    313.8000
     33     32     41   1    110.7000    313.8000
     40     32     41   1    107.8000    276.1440
     32     33     34   1    112.1750    585.7600
     32     33     42   1    110.7000    313.8000
     32     33     47   1    112.7000    488.2728
     34     33     42   1    109.5000    292.8800
     34     33     47   1    112.1750    585.7600
     42     33     47   1    110.7000    313.8000
     33     34     35   1    120.0000    585.7600
     33     34     39   1    115.7470    627.6000
     35     34     39   1    124.0000    585.7600
     34     35     36   1    120.0000    527.1840
     34     35     43   1    120.0000    292.8800
     36     35     43   1    120.0000    292.8800
     35     36     37   1    120.0000    527.1840
     35     36     44   1    120.0000    292.8800
     37     36     44   1    120.0000    292.8800
     36     37     38   1    120.0000    527.1840
     36     37     45   1    120.0000    292.8800
     38     37     45   1    120.0000    292.8800
     37     38     39   1    124.0000    585.7600
     37     38     46   1    120.0000    292.8800
     39     38     46   1    116.0000    292.8800
     34     39     38   1    117.0000    585.7600
     33     47     48   1    112.7000    488.2728
     33     47     55   1    110.7000    313.8000
     33     47     56   1    110.7000    313.8000
     48     47     55   1    110.7000    313.8000
     48     47     56   1    110.7000    313.8000
     55     47     56   1    107.8000    276.1440
     47     48     49   1    112.1750    585.7600
     47     48     57   1    110.7000    313.8000
     47     48     62   1    112.7000    488.2728
     49     48     57   1    109.5000    292.8800
     49     48     62   1    112.1750    585.7600
     57     48     62   1    110.7000    313.8000
     48     49     50   1    120.0000    585.7600
     48     49     54   1    115.7470    627.6000
     50     49     54   1    124.0000    585.7600
     49     50     51   1    120.0000    527.1840
     49     50     58   1    120.0000    292.8800
     51     50     58   1    120.0000    292.8800
     50     51     52   1    120.0000    527.1840
     50     51     59   1    120.0000    292.8800
     52     51     59   1    120.0000    292.8800
     51     52     53   1    120.0000    527.1840
     51     52     60   1    120.0000    292.8800
     53     52     60   1    120.0000    292.8800
     52     53     54   1    124.0000    585.7600
     52     53     61   1    120.0000    292.8800
     54     53     61   1    116.0000    292.8800
     49     54     53   1    117.0000    585.7600
     48     62     63   1    112.7000    488.2728
     48     62     70   1    110.7000    313.8000
     48     62     71   1    110.7000    313.8000
     63     62     70   1    110.7000    313.8000
     63     62     71   1    110.7000    313.8000
     70     62     71   1    107.8000    276.1440
     62     63     64   1    112.1750    585.7600
     62     63     72   1    110.7000    313.8000
     62     63     77   1    112.7000    488.2728
     64     63     72   1    109.5000    292.8800
     64     63     77   1    112.1750    585.7600
     72     63     77   1    110.7000    313.8000
     63     64     65   1    120.0000    585.7600
     63     64     69   1    115.7470    627.6000
     65     64     69   1    124.0000    585.7600
     64     65     66   1    120.0000    527.1840
     64     65     73   1    120.0000    292.8800
     66     65     73   1    120.0000    292.8800
     65     66     67   1    120.0000    527.1840
     65     66     74   1    120.0000    292.8800
     67     66     74   1    120.0000    292.8800
     66     67     68   1    120.0000    527.1840
     66     67     75   1    120.0000    292.8800
     68     67     75   1    120.0000    292.8800
     67     68     69   1    124.0000    585.7600
     67     68     76   1    120.0000    292.8800
     69     68     76   1    116.0000    292.8800
     64     69     68   1    117.0000    585.7600
     63     77     78   1    112.7000    488.2728
     63     77     85   1    110.7000    313.8000
     63     77     86   1    110.7000    313.8000
     78     77     85   1    110.7000    313.8000
     78     77     86   1    110.7000    313.8000
     85     77     86   1    107.8000    276.1440
     77     78     79   1    112.1750    585.7600
     77     78     87   1    110.7000    313.8000
     77     78     92   1    112.7000    488.2728
     79     78     87   1    109.5000    292.8800
     79     78     92   1    112.1750    585.7600
     87     78     92   1    110.7000    313.8000
     78     79     80   1    120.0000    585.7600
     78     79     84   1    115.7470    627.6000
     80     79     84   1    124.0000    585.7600
     79     80     81   1    120.0000    527.1840
     79     80     88   1    120.0000    292.8800
     81     80     88   1    120.0000    292.8800
     80     81     82   1    120.0000    527.1840
     80     81     89   1    120.0000    292.8800
     82     81     89   1    120.0000    292.8800
     81     82     83   1    120.0000    527.1840
     81     82     90   1    120.0000    292.8800
     83     82     90   1    120.0000    292.8800
     82     83     84   1    124.0000    585.7600
     82     83     91   1    120.0000    292.8800
     84     83     91   1    116.0000    292.8800
     79     84     83   1    117.0000    585.7600
     78     92     93   1    112.7000    488.2728
     78     92    100   1    110.7000    313.8000
     78     92    101   1    110.7000    313.8000
     93     92    100   1    110.7000    313.8000
     93     92    101   1    110.7000    313.8000
    100     92    101   1    107.8000    276.1440
     92     93     94   1    112.1750    585.7600
     92     93    102   1    110.7000    313.8000
     92     93    107   1    112.7000    488.2728
     94     93    102   1    109.5000    292.8800
     94     93    107   1    112.1750    585.7600
    102     93    107   1    110.7000    313.8000
     93     94     95   1    120.0000    585.7600
     93     94     99   1    115.7470    627.6000
     95     94     99   1    124.0000    585.7600
     94     95     96   1    120.0000    527.1840
     94     95    103   1    120.0000    292.8800
     96     95    103   1    120.0000    292.8800
     95     96     97   1    120.0000    527.1840
     95     96    104   1    120.0000    292.8800
     97     96    104   1    120.0000    292.8800
     96     97     98   1    120.0000    527.1840
     96     97    105   1    120.0000    292.8800
     98     97    105   1    120.0000    292.8800
     97     98     99   1    124.0000    585.7600
     97     98    106   1    120.0000    292.8800
     99     98    106   1    116.0000    292.8800
     94     99     98   1    117.0000    585.7600
     93    107    108   1    112.7000    488.2728
     93    107    115   1    110.7000    313.8000
     93    107    116   1    110.7000    313.8000
    108    107    115   1    110.7000    313.8000
    108    107    116   1    110.7000    313.8000
    115    107    116   1    107.8000    276.1440
    107    108    109   1    112.1750    585.7600
    107    108    117   1    110.7000    313.8000
    107    108    122   1    112.7000    488.2728
    109    108    117   1    109.5000    292.8800
    109    108    122   1    112.1750    585.7600
    117    108    122   1    110.7000    313.8000
    108    109    110   1    120.0000    585.7600
    108    109    114   1    115.7470    627.6000
    110    109    114   1    124.0000    585.7600
    109    110    111   1    120.0000    527.1840
    109    110    118   1    120.0000    292.8800
    111    110    118   1    120.0000    292.8800
    110    111    112   1    120.0000    527.1840
    110    111    119   1    120.0000    292.8800
    112    111    119   1    120.0000    292.8800
    111    112    113   1    120.0000    527.1840
    111    112    120   1    120.0000    292.8800
    113    112    120   1    120.0000    292.8800
    112    113    114   1    124.0000    585.7600
    112    113    121   1    120.0000    292.8800
    114    113    121   1    116.0000    292.8800
    109    114    113   1    117.0000    585.7600
    108    122    123   1    112.7000    488.2728
    108    122    130   1    110.7000    313.8000
    108    122    131   1    110.7000    313.8000
    123    122    130   1    110.7000    313.8000
    123    122    131   1    110.7000    313.8000
    130    122    131   1    107.8000    276.1440
    122    123    124   1    112.1750    585.7600
    122    123    132   1    110.7000    313.8000
    122    123    137   1    112.7000    488.2728
    124    123    132   1    109.5000    292.8800
    124    123    137   1    112.1750    585.7600
    132    123    137   1    110.7000    313.8000
    123    124    125   1    120.0000    585.7600
    123    124    129   1    115.7470    627.6000
    125    124    129   1    124.0000    585.7600
    124    125    126   1    120.0000    527.1840
    124    125    133   1    120.0000    292.8800
    126    125    133   1    120.0000    292.8800
    125    126    127   1    120.0000    527.1840
    125    126    134   1    120.0000    292.8800
    127    126    134   1    120.0000    292.8800
    126    127    128   1    120.0000    527.1840
    126    127    135   1    120.0000    292.8800
    128    127    135   1    120.0000    292.8800
    127    128    129   1    124.0000    585.7600
    127    128    136   1    120.0000    292.8800
    129    128    136   1    116.0000    292.8800
    124    129    128   1    117.0000    585.7600
    123    137    138   1    112.7000    488.2728
    123    137    145   1    110.7000    313.8000
    123    137    146   1    110.7000    313.8000
    138    137    145   1    110.7000    313.8000
    138    137    146   1    110.7000    313.8000
    145    137    146   1    107.8000    276.1440
    137    138    139   1    112.1750    585.7600
    137    138    147   1    110.7000    313.8000
    137    138    152   1    112.7000    488.2728
    139    138    147   1    109.5000    292.8800
    139    138    152   1    112.1750    585.7600
    147    138    152   1    110.7000    313.8000
    138    139    140   1    120.0000    585.7600
    138    139    144   1    115.7470    627.6000
    140    139    144   1    124.0000    585.7600
    139    140    141   1    120.0000    527.1840
    139    140    148   1    120.0000    292.8800
    141    140    148   1    120.0000    292.8800
    140    141    142   1    120.0000    527.1840
    140    141    149   1    120.0000    292.8800
    142    141    149   1    120.0000    292.8800
    141    142    143   1    120.0000    527.1840
    141    142    150   1    120.0000    292.8800
    143    142    150   1    120.0000    292.8800
    142    143    144   1    124.0000    585.7600
    142    143    151   1    120.0000    292.8800
    144    143    151   1    116.0000    292.8800
    139    144    143   1    117.0000    585.7600
    138    152    153   1    112.7000    488.2728
    138    152    160   1    110.7000    313.8000
    138    152    161   1    110.7000    313.8000
    153    152    160   1    110.7000    313.8000
    153    152    161   1    110.7000    313.8000
    160    152    161   1    107.8000    276.1440
    152    153    154   1    112.1750    585.7600
    152    153    162   1    110.7000    313.8000
    152    153    167   1    112.7000    488.2728
    154    153    162   1    109.5000    292.8800
    154    153    167   1    112.1750    585.7600
    162    153    167   1    110.7000    313.8000
    153    154    155   1    120.0000    585.7600
    153    154    159   1    115.7470    627.6000
    155    154    159   1    124.0000    585.7600
    154    155    156   1    120.0000    527.1840
    154    155    163   1    120.0000    292.8800
    156    155    163   1    120.0000    292.8800
    155    156    157   1    120.0000    527.1840
    155    156    164   1    120.0000    292.8800
    157    156    164   1    120.0000    292.8800
    156    157    158   1    120.0000    527.1840
    156    157    165   1    120.0000    292.8800
    158    157    165   1    120.0000    292.8800
    157    158    159   1    124.0000    585.7600
    157    158    166   1    120.0000    292.8800
    159    158    166   1    116.0000    292.8800
    154    159    158   1    117.0000    585.7600
    153    167    168   1    112.7000    488.2728
    153    167    175   1    110.7000    313.8000
    153    167    176   1    110.7000    313.8000
    168    167    175   1    110.7000    313.8000
    168    167    176   1    110.7000    313.8000
    175    167    176   1    107.8000    276.1440
    167    168    169   1    112.1750    585.7600
    167    168    177   1    110.7000    313.8000
    167    168    182   1    112.7000    488.2728
    169    168    177   1    109.5000    292.8800
    169    168    182   1    112.1750    585.7600
    177    168    182   1    110.7000    313.8000
    168    169    170   1    120.0000    585.7600
    168    169    174   1    115.7470    627.6000
    170    169    174   1    124.0000    585.7600
    169    170    171   1    120.0000    527.1840
    169    170    178   1    120.0000    292.8800
    171    170    178   1    120.0000    292.8800
    170    171    172   1    120.0000    527.1840
    170    171    179   1    120.0000    292.8800
    172    171    179   1    120.0000    292.8800
    171    172    173   1    120.0000    527.1840
    171    172    180   1    120.0000    292.8800
    173    172    180   1    120.0000    292.8800
    172    173    174   1    124.0000    585.7600
    172    173    181   1    120.0000    292.8800
    174    173    181   1    116.0000    292.8800
    169    174    173   1    117.0000    585.7600
    168    182    183   1    112.7000    488.2728
    168    182    190   1    110.7000    313.8000
    168    182    191   1    110.7000    313.8000
    183    182    190   1    110.7000    313.8000
    183    182    191   1    110.7000    313.8000
    190    182    191   1    107.8000    276.1440
    182    183    184   1    112.1750    585.7600
    182    183    192   1    110.7000    313.8000
    182    183    197   1    112.7000    488.2728
    184    183    192   1    109.5000    292.8800
    184    183    197   1    112.1750    585.7600
    192    183    197   1    110.7000    313.8000
    183    184    185   1    120.0000    585.7600
    183    184    189   1    115.7470    627.6000
    185    184    189   1    124.0000    585.7600
    184    185    186   1    120.0000    527.1840
    184    185    193   1    120.0000    292.8800
    186    185    193   1    120.0000    292.8800
    185    186    187   1    120.0000    527.1840
    185    186    194   1    120.0000    292.8800
    187    186    194   1    120.0000    292.8800
    186    187    188   1    120.0000    527.1840
    186    187    195   1    120.0000    292.8800
    188    187    195   1    120.0000    292.8800
    187    188    189   1    124.0000    585.7600
    187    188    196   1    120.0000    292.8800
    189    188    196   1    116.0000    292.8800
    184    189    188   1    117.0000    585.7600
    183    197    198   1    112.7000    488.2728
    183    197    205   1    110.7000    313.8000
    183    197    206   1    110.7000    313.8000
    198    197    205   1    110.7000    313.8000
    198    197    206   1    110.7000    313.8000
    205    197    206   1    107.8000    276.1440
    197    198    199   1    112.1750    585.7600
    197    198    207   1    110.7000    313.8000
    197    198    212   1    112.7000    488.2728
    199    198    207   1    109.5000    292.8800
    199    198    212   1    112.1750    585.7600
    207    198    212   1    110.7000    313.8000
    198    199    200   1    120.0000    585.7600
    198    199    204   1    115.7470    627.6000
    200    199    204   1    124.0000    585.7600
    199    200    201   1    120.0000    527.1840
    199    200    208   1    120.0000    292.8800
    201    200    208   1    120.0000    292.8800
    200    201    202   1    120.0000    527.1840
    200    201    209   1    120.0000    292.8800
    202    201    209   1    120.0000    292.8800
    201    202    203   1    120.0000    527.1840
    201    202    210   1    120.0000    292.8800
    203    202    210   1    120.0000    292.8800
    202    203    204   1    124.0000    585.7600
    202    203    211   1    120.0000    292.8800
    204    203    211   1    116.0000    292.8800
    199    204    203   1    117.0000    585.7600
    198    212    213   1    112.7000    488.2728
    198    212    220   1    110.7000    313.8000
    198    212    221   1    110.7000    313.8000
    213    212    220   1    110.7000    313.8000
    213    212    221   1    110.7000    313.8000
    220    212    221   1    107.8000    276.1440
    212    213    214   1    112.1750    585.7600
    212    213    222   1    110.7000    313.8000
    212    213    227   1    112.7000    488.2728
    214    213    222   1    109.5000    292.8800
    214    213    227   1    112.1750    585.7600
    222    213    227   1    110.7000    313.8000
    213    214    215   1    120.0000    585.7600
    213    214    219   1    115.7470    627.6000
    215    214    219   1    124.0000    585.7600
    214    215    216   1    120.0000    527.1840
    214    215    223   1    120.0000    292.8800
    216    215    223   1    120.0000    292.8800
    215    216    217   1    120.0000    527.1840
    215    216    224   1    120.0000    292.8800
    217    216    224   1    120.0000    292.8800
    216    217    218   1    120.0000    527.1840
    216    217    225   1    120.0000    292.8800
    218    217    225   1    120.0000    292.8800
    217    218    219   1    124.0000    585.7600
    217    218    226   1    120.0000    292.8800
    219    218    226   1    116.0000    292.8800
    214    219    218   1    117.0000    585.7600
    213    227    228   1    112.7000    488.2728
    213    227    235   1    110.7000    313.8000
    213    227    236   1    110.7000    313.8000
    228    227    235   1    110.7000    313.8000
    228    227    236   1    110.7000    313.8000
    235    227    236   1    107.8000    276.1440
    227    228    229   1    112.1750    585.7600
    227    228    237   1    110.7000    313.8000
    227    228    242   1    112.7000    488.2728
    229    228    237   1    109.5000    292.8800
    229    228    242   1    112.1750    585.7600
    237    228    242   1    110.7000    313.8000
    228    229    230   1    120.0000    585.7600
    228    229    234   1    115.7470    627.6000
    230    229    234   1    124.0000    585.7600
    229    230    231   1    120.0000    527.1840
    229    230    238   1    120.0000    292.8800
    231    230    238   1    120.0000    292.8800
    230    231    232   1    120.0000    527.1840
    230    231    239   1    120.0000    292.8800
    232    231    239   1    120.0000    292.8800
    231    232    233   1    120.0000    527.1840
    231    232    240   1    120.0000    292.8800
    233    232    240   1    120.0000    292.8800
    232    233    234   1    124.0000    585.7600
    232    233    241   1    120.0000    292.8800
    234    233    241   1    116.0000    292.8800
    229    234    233   1    117.0000    585.7600
    228    242    243   1    112.7000    488.2728
    228    242    250   1    110.7000    313.8000
    228    242    251   1    110.7000    313.8000
    243    242    250   1    110.7000    313.8000
    243    242    251   1    110.7000    313.8000
    250    242    251   1    107.8000    276.1440
    242    243    244   1    112.1750    585.7600
    242    243    252   1    110.7000    313.8000
    242    243    257   1    112.7000    488.2728
    244    243    252   1    109.5000    292.8800
    244    243    257   1    112.1750    585.7600
    252    243    257   1    110.7000    313.8000
    243    244    245   1    120.0000    585.7600
    243    244    249   1    115.7470    627.6000
    245    244    249   1    124.0000    585.7600
    244    245    246   1    120.0000    527.1840
    244    245    253   1    120.0000    292.8800
    246    245    253   1    120.0000    292.8800
    245    246    247   1    120.0000    527.1840
    245    246    254   1    120.0000    292.8800
    247    246    254   1    120.0000    292.8800
    246    247    248   1    120.0000    527.1840
    246    247    255   1    120.0000    292.8800
    248    247    255   1    120.0000    292.8800
    247    248    249   1    124.0000    585.7600
    247    248    256   1    120.0000    292.8800
    249    248    256   1    116.0000    292.8800
    244    249    248   1    117.0000    585.7600
    243    257    258   1    112.7000    488.2728
    243    257    265   1    110.7000    313.8000
    243    257    266   1    110.7000    313.8000
    258    257    265   1    110.7000    313.8000
    258    257    266   1    110.7000    313.8000
    265    257    266   1    107.8000    276.1440
    257    258    259   1    112.1750    585.7600
    257    258    267   1    110.7000    313.8000
    257    258    272   1    112.7000    488.2728
    259    258    267   1    109.5000    292.8800
    259    258    272   1    112.1750    585.7600
    267    258    272   1    110.7000    313.8000
    258    259    260   1    120.0000    585.7600
    258    259    264   1    115.7470    627.6000
    260    259    264   1    124.0000    585.7600
    259    260    261   1    120.0000    527.1840
    259    260    268   1    120.0000    292.8800
    261    260    268   1    120.0000    292.8800
    260    261    262   1    120.0000    527.1840
    260    261    269   1    120.0000    292.8800
    262    261    269   1    120.0000    292.8800
    261    262    263   1    120.0000    527.1840
    261    262    270   1    120.0000    292.8800
    263    262    270   1    120.0000    292.8800
    262    263    264   1    124.0000    585.7600
    262    263    271   1    120.0000    292.8800
    264    263    271   1    116.0000    292.8800
    259    264    263   1    117.0000    585.7600
    258    272    273   1    112.7000    488.2728
    258    272    280   1    110.7000    313.8000
    258    272    281   1    110.7000    313.8000
    273    272    280   1    110.7000    313.8000
    273    272    281   1    110.7000    313.8000
    280    272    281   1    107.8000    276.1440
    272    273    274   1    112.1750    585.7600
    272    273    282   1    110.7000    313.8000
    272    273    287   1    112.7000    488.2728
    274    273    282   1    109.5000    292.8800
    274    273    287   1    112.1750    585.7600
    282    273    287   1    110.7000    313.8000
    273    274    275   1    120.0000    585.7600
    273    274    279   1    115.7470    627.6000
    275    274    279   1    124.0000    585.7600
    274    275    276   1    120.0000    527.1840
    274    275    283   1    120.0000    292.8800
    276    275    283   1    120.0000    292.8800
    275    276    277   1    120.0000    527.1840
    275    276    284   1    120.0000    292.8800
    277    276    284   1    120.0000    292.8800
    276    277    278   1    120.0000    527.1840
    276    277    285   1    120.0000    292.8800
    278    277    285   1    120.0000    292.8800
    277    278    279   1    124.0000    585.7600
    277    278    286   1    120.0000    292.8800
    279    278    286   1    116.0000    292.8800
    274    279    278   1    117.0000    585.7600
    273    287    288   1    112.7000    488.2728
    273    287    295   1    110.7000    313.8000
    273    287    296   1    110.7000    313.8000
    288    287    295   1    110.7000    313.8000
    288    287    296   1    110.7000    313.8000
    295    287    296   1    107.8000    276.1440
    287    288    289   1    112.1750    585.7600
    287    288    297   1    110.7000    313.8000
    287    288    302   1    110.7000    313.8000
    289    288    297   1    109.5000    292.8800
    289    288    302   1    109.5000    292.8800
    297    288    302   1    107.8000    276.1440
    288    289    290   1    120.0000    585.7600
    288    289    294   1    115.7470    627.6000
    290    289    294   1    124.0000    585.7600
    289    290    291   1    120.0000    527.1840
    289    290    298   1    120.0000    292.8800
    291    290    298   1    120.0000    292.8800
    290    291    292   1    120.0000    527.1840
    290    291    299   1    120.0000    292.8800
    292    291    299   1    120.0000    292.8800
    291    292    293   1    120.0000    527.1840
    291    292    300   1    120.0000    292.8800
    293    292    300   1    120.0000    292.8800
    292    293    294   1    124.0000    585.7600
    292    293    301   1    120.0000    292.8800
    294    293    301   1    116.0000    292.8800
    289    294    293   1    117.0000    585.7600

[ dihedrals ]
; Proper dihedrals
      9      1      2      3   5     0.00000     0.00000     3.61498  0.0
      9      1      2     11   5     0.00000     0.00000     1.25520  0.0
      9      1      2     17   5     0.00000     0.00000     1.25520  0.0
     10      1      2      3   5     0.00000     0.00000     3.61498  0.0
     10      1      2     11   5     0.00000     0.00000     1.25520  0.0
     10      1      2     17   5     0.00000     0.00000     1.25520  0.0
     16      1      2      3   5     0.00000     0.00000     3.61498  0.0
     16      1      2     11   5     0.00000     0.00000     1.25520  0.0
     16      1      2     17   5     0.00000     0.00000     1.25520  0.0
      1      2      3      4   5     0.00000     0.34727     0.00000  0.0
      1      2      3      8   5     2.45182   -10.01650     5.09611  0.0
     11      2      3      4   5     0.00000     0.00000     0.00000  0.0
     11      2      3      8   5     0.00000     0.00000     0.00000  0.0
     17      2      3      4   5     0.00000     0.34727     0.00000  0.0
     17      2      3      8   5     2.45182   -10.01650     5.09611  0.0
      1      2     17     18   5     4.74884    -0.63178     1.67360  0.0
      1      2     17     25   5     0.00000     0.00000     1.25520  0.0
      1      2     17     26   5     0.00000     0.00000     1.25520  0.0
      3      2     17     18   5    -0.30962     3.11290    -3.95806  0.0
      3      2     17     25   5     0.00000     0.00000     3.61498  0.0
      3      2     17     26   5     0.00000     0.00000     3.61498  0.0
     11      2     17     18   5     0.00000     0.00000     1.25520  0.0
     11      2     17     25   5     0.00000     0.00000     1.25520  0.0
     11      2     17     26   5     0.00000     0.00000     1.25520  0.0
      2      3      4      5   5     0.00000    30.33400     0.00000  0.0
      2      3      4     12   5     0.00000    30.33400     0.00000  0.0
      8      3      4      5   5     0.00000    30.33400     0.00000  0.0
      8      3      4     12   5     0.00000    30.33400     0.00000  0.0
      2      3      8      7   5     0.00000    30.33400     0.00000  0.0
      4      3      8      7   5     0.00000    30.33400     0.00000  0.0
      3      4      5      6   5     0.00000    30.33400     0.00000  0.0
      3      4      5     13   5     0.00000    30.33400     0.00000  0.0
     12      4      5      6   5     0.00000    30.33400     0.00000  0.0
     12      4      5     13   5     0.00000    30.33400     0.00000  0.0
      4      5      6      7   5     0.00000    30.33400     0.00000  0.0
      4      5      6     14   5     0.00000    30.33400     0.00000  0.0
     13      5      6      7   5     0.00000    30.33400     0.00000  0.0
     13      5      6     14   5     0.00000    30.33400     0.00000  0.0
      5      6      7      8   5     0.00000    30.33400     0.00000  0.0
      5      6      7     15   5     0.00000    30.33400     0.00000  0.0
     14      6      7      8   5     0.00000    30.33400     0.00000  0.0
     14      6      7     15   5     0.00000    30.33400     0.00000  0.0
      6      7      8      3   5     0.00000    30.33400     0.00000  0.0
     15      7      8      3   5     0.00000    30.33400     0.00000  0.0
      2     17     18     19   5    -0.30962     3.11290    -3.95806  0.0
      2     17     18     27   5     0.00000     0.00000     1.25520  0.0
      2     17     18     32   5     4.74884    -0.63178     1.67360  0.0
     25     17     18     19   5     0.00000     0.00000     3.61498  0.0
     25     17     18     27   5     0.00000     0.00000     1.25520  0.0
     25     17     18     32   5     0.00000     0.00000     1.25520  0.0
     26     17     18     19   5     0.00000     0.00000     3.61498  0.0
     26     17     18     27   5     0.00000     0.00000     1.25520  0.0
     26     17     18     32   5     0.00000     0.00000     1.25520  0.0
     17     18     19     20   5     0.00000     0.34727     0.00000  0.0
     17     18     19     24   5     2.45182   -10.01650     5.09611  0.0
     27     18     19     20   5     0.00000     0.00000     0.00000  0.0
     27     18     19     24   5     0.00000     0.00000     0.00000  0.0
     32     18     19     20   5     0.00000     0.34727     0.00000  0.0
     32     18     19     24   5     2.45182   -10.01650     5.09611  0.0
     17     18     32     33   5     4.74884    -0.63178     1.67360  0.0
     17     18     32     40   5     0.00000     0.00000     1.25520  0.0
     17     18     32     41   5     0.00000     0.00000     1.25520  0.0
     19     18     32     33   5    -0.30962     3.11290    -3.95806  0.0
     19     18     32     40   5     0.00000     0.00000     3.61498  0.0
     19     18     32     41   5     0.00000     0.00000     3.61498  0.0
     27     18     32     33   5     0.00000     0.00000     1.25520  0.0
     27     18     32     40   5     0.00000     0.00000     1.25520  0.0
     27     18     32     41   5     0.00000     0.00000     1.25520  0.0
     18     19     20     21   5     0.00000    30.33400     0.00000  0.0
     18     19     20     28   5     0.00000    30.33400     0.00000  0.0
     24     19     20     21   5     0.00000    30.33400     0.00000  0.0
     24     19     20     28   5     0.00000    30.33400     0.00000  0.0
     18     19     24     23   5     0.00000    30.33400     0.00000  0.0
     20     19     24     23   5     0.00000    30.33400     0.00000  0.0
     19     20     21     22   5     0.00000    30.33400     0.00000  0.0
     19     20     21     29   5     0.00000    30.33400     0.00000  0.0
     28     20     21     22   5     0.00000    30.33400     0.00000  0.0
     28     20     21     29   5     0.00000    30.33400     0.00000  0.0
     20     21     22     23   5     0.00000    30.33400     0.00000  0.0
     20     21     22     30   5     0.00000    30.33400     0.00000  0.0
     29     21     22     23   5     0.00000    30.33400     0.00000  0.0
     29     21     22     30   5     0.00000    30.33400     0.00000  0.0
     21     22     23     24   5     0.00000    30.33400     0.00000  0.0
     21     22     23     31   5     0.00000    30.33400     0.00000  0.0
     30     22     23     24   5     0.00000    30.33400     0.00000  0.0
     30     22     23     31   5     0.00000    30.33400     0.00000  0.0
     22     23     24     19   5     0.00000    30.33400     0.00000  0.0
     31     23     24     19   5     0.00000    30.33400     0.00000  0.0
     18     32     33     34   5    -0.30962     3.11290    -3.95806  0.0
     18     32     33     42   5     0.00000     0.00000     1.25520  0.0
     18     32     33     47   5     4.74884    -0.63178     1.67360  0.0
     40     32     33     34   5     0.00000     0.00000     3.61498  0.0
     40     32     33     42   5     0.00000     0.00000     1.25520  0.0
     40     32     33     47   5     0.00000     0.00000     1.25520  0.0
     41     32     33     34   5     0.00000     0.00000     3.61498  0.0
     41     32     33     42   5     0.00000     0.00000     1.25520  0.0
     41     32     33     47   5     0.00000     0.00000     1.25520  0.0
     32     33     34     35   5     0.00000     0.34727     0.00000  0.0
     32     33     34     39   5     2.45182   -10.01650     5.09611  0.0
     42     33     34     35   5     0.00000     0.00000     0.00000  0.0
     42     33     34     39   5     0.00000     0.00000     0.00000  0.0
     47     33     34     35   5     0.00000     0.34727     0.00000  0.0
     47     33     34     39   5     2.45182   -10.01650     5.09611  0.0
     32     33     47     48   5     4.74884    -0.63178     1.67360  0.0
     32     33     47     55   5     0.00000     0.00000     1.25520  0.0
     32     33     47     56   5     0.00000     0.00000     1.25520  0.0
     34     33     47     48   5    -0.30962     3.11290    -3.95806  0.0
     34     33     47     55   5     0.00000     0.00000     3.61498  0.0
     34     33     47     56   5     0.00000     0.00000     3.61498  0.0
     42     33     47     48   5     0.00000     0.00000     1.25520  0.0
     42     33     47     55   5     0.00000     0.00000     1.25520  0.0
     42     33     47     56   5     0.00000     0.00000     1.25520  0.0
     33     34     35     36   5     0.00000    30.33400     0.00000  0.0
     33     34     35     43   5     0.00000    30.33400     0.00000  0.0
     39     34     35     36   5     0.00000    30.33400     0.00000  0.0
     39     34     35     43   5     0.00000    30.33400     0.00000  0.0
     33     34     39     38   5     0.00000    30.33400     0.00000  0.0
     35     34     39     38   5     0.00000    30.33400     0.00000  0.0
     34     35     36     37   5     0.00000    30.33400     0.00000  0.0
     34     35     36     44   5     0.00000    30.33400     0.00000  0.0
     43     35     36     37   5     0.00000    30.33400     0.00000  0.0
     43     35     36     44   5     0.00000    30.33400     0.00000  0.0
     35     36     37     38   5     0.00000    30.33400     0.00000  0.0
     35     36     37     45   5     0.00000    30.33400     0.00000  0.0
     44     36     37     38   5     0.00000    30.33400     0.00000  0.0
     44     36     37     45   5     0.00000    30.33400     0.00000  0.0
     36     37     38     39   5     0.00000    30.33400     0.00000  0.0
     36     37     38     46   5     0.00000    30.33400     0.00000  0.0
     45     37     38     39   5     0.00000    30.33400     0.00000  0.0
     45     37     38     46   5     0.00000    30.33400     0.00000  0.0
     37     38     39     34   5     0.00000    30.33400     0.00000  0.0
     46     38     39     34   5     0.00000    30.33400     0.00000  0.0
     33     47     48     49   5    -0.30962     3.11290    -3.95806  0.0
     33     47     48     57   5     0.00000     0.00000     1.25520  0.0
     33     47     48     62   5     4.74884    -0.63178     1.67360  0.0
     55     47     48     49   5     0.00000     0.00000     3.61498  0.0
     55     47     48     57   5     0.00000     0.00000     1.25520  0.0
     55     47     48     62   5     0.00000     0.00000     1.25520  0.0
     56     47     48     49   5     0.00000     0.00000     3.61498  0.0
     56     47     48     57   5     0.00000     0.00000     1.25520  0.0
     56     47     48     62   5     0.00000     0.00000     1.25520  0.0
     47     48     49     50   5     0.00000     0.34727     0.00000  0.0
     47     48     49     54   5     2.45182   -10.01650     5.09611  0.0
     57     48     49     50   5     0.00000     0.00000     0.00000  0.0
     57     48     49     54   5     0.00000     0.00000     0.00000  0.0
     62     48     49     50   5     0.00000     0.34727     0.00000  0.0
     62     48     49     54   5     2.45182   -10.01650     5.09611  0.0
     47     48     62     63   5     4.74884    -0.63178     1.67360  0.0
     47     48     62     70   5     0.00000     0.00000     1.25520  0.0
     47     48     62     71   5     0.00000     0.00000     1.25520  0.0
     49     48     62     63   5    -0.30962     3.11290    -3.95806  0.0
     49     48     62     70   5     0.00000     0.00000     3.61498  0.0
     49     48     62     71   5     0.00000     0.00000     3.61498  0.0
     57     48     62     63   5     0.00000     0.00000     1.25520  0.0
     57     48     62     70   5     0.00000     0.00000     1.25520  0.0
     57     48     62     71   5     0.00000     0.00000     1.25520  0.0
     48     49     50     51   5     0.00000    30.33400     0.00000  0.0
     48     49     50     58   5     0.00000    30.33400     0.00000  0.0
     54     49     50     51   5     0.00000    30.33400     0.00000  0.0
     54     49     50     58   5     0.00000    30.33400     0.00000  0.0
     48     49     54     53   5     0.00000    30.33400     0.00000  0.0
     50     49     54     53   5     0.00000    30.33400     0.00000  0.0
     49     50     51     52   5     0.00000    30.33400     0.00000  0.0
     49     50     51     59   5     0.00000    30.33400     0.00000  0.0
     58     50     51     52   5     0.00000    30.33400     0.00000  0.0
     58     50     51     59   5     0.00000    30.33400     0.00000  0.0
     50     51     52     53   5     0.00000    30.33400     0.00000  0.0
     50     51     52     60   5     0.00000    30.33400     0.00000  0.0
     59     51     52     53   5     0.00000    30.33400     0.00000  0.0
     59     51     52     60   5     0.00000    30.33400     0.00000  0.0
     51     52     53     54   5     0.00000    30.33400     0.00000  0.0
     51     52     53     61   5     0.00000    30.33400     0.00000  0.0
     60     52     53     54   5     0.00000    30.33400     0.00000  0.0
     60     52     53     61   5     0.00000    30.33400     0.00000  0.0
     52     53     54     49   5     0.00000    30.33400     0.00000  0.0
     61     53     54     49   5     0.00000    30.33400     0.00000  0.0
     48     62     63     64   5    -0.30962     3.11290    -3.95806  0.0
     48     62     63     72   5     0.00000     0.00000     1.25520  0.0
     48     62     63     77   5     4.74884    -0.63178     1.67360  0.0
     70     62     63     64   5     0.00000     0.00000     3.61498  0.0
     70     62     63     72   5     0.00000     0.00000     1.25520  0.0
     70     62     63     77   5     0.00000     0.00000     1.25520  0.0
     71     62     63     64   5     0.00000     0.00000     3.61498  0.0
     71     62     63     72   5     0.00000     0.00000     1.25520  0.0
     71     62     63     77   5     0.00000     0.00000     1.25520  0.0
     62     63     64     65   5     0.00000     0.34727     0.00000  0.0
     62     63     64     69   5     2.45182   -10.01650     5.09611  0.0
     72     63     64     65   5     0.00000     0.00000     0.00000  0.0
     72     63     64     69   5     0.00000     0.00000     0.00000  0.0
     77     63     64     65   5     0.00000     0.34727     0.00000  0.0
     77     63     64     69   5     2.45182   -10.01650     5.09611  0.0
     62     63     77     78   5     4.74884    -0.63178     1.67360  0.0
     62     63     77     85   5     0.00000     0.00000     1.25520  0.0
     62     63     77     86   5     0.00000     0.00000     1.25520  0.0
     64     63     77     78   5    -0.30962     3.11290    -3.95806  0.0
     64     63     77     85   5     0.00000     0.00000     3.61498  0.0
     64     63     77     86   5     0.00000     0.00000     3.61498  0.0
     72     63     77     78   5     0.00000     0.00000     1.25520  0.0
     72     63     77     85   5     0.00000     0.00000     1.25520  0.0
     72     63     77     86   5     0.00000     0.00000     1.25520  0.0
     63     64     65     66   5     0.00000    30.33400     0.00000  0.0
     63     64     65     73   5     0.00000    30.33400     0.00000  0.0
     69     64     65     66   5     0.00000    30.33400     0.00000  0.0
     69     64     65     73   5     0.00000    30.33400     0.00000  0.0
     63     64     69     68   5     0.00000    30.33400     0.00000  0.0
     65     64     69     68   5     0.00000    30.33400     0.00000  0.0
     64     65     66     67   5     0.00000    30.33400     0.00000  0.0
     64     65     66     74   5     0.00000    30.33400     0.00000  0.0
     73     65     66     67   5     0.00000    30.33400     0.00000  0.0
     73     65     66     74   5     0.00000    30.33400     0.00000  0.0
     65     66     67     68   5     0.00000    30.33400     0.00000  0.0
     65     66     67     75   5     0.00000    30.33400     0.00000  0.0
     74     66     67     68   5     0.00000    30.33400     0.00000  0.0
     74     66     67     75   5     0.00000    30.33400     0.00000  0.0
     66     67     68     69   5     0.00000    30.33400     0.00000  0.0
     66     67     68     76   5     0.00000    30.33400     0.00000  0.0
     75     67     68     69   5     0.00000    30.33400     0.00000  0.0
     75     67     68     76   5     0.00000    30.33400     0.00000  0.0
     67     68     69     64   5     0.00000    30.33400     0.00000  0.0
     76     68     69     64   5     0.00000    30.33400     0.00000  0.0
     63     77     78     79   5    -0.30962     3.11290    -3.95806  0.0
     63     77     78     87   5     0.00000     0.00000     1.25520  0.0
     63     77     78     92   5     4.74884    -0.63178     1.67360  0.0
     85     77     78     79   5     0.00000     0.00000     3.61498  0.0
     85     77     78     87   5     0.00000     0.00000     1.25520  0.0
     85     77     78     92   5     0.00000     0.00000     1.25520  0.0
     86     77     78     79   5     0.00000     0.00000     3.61498  0.0
     86     77     78     87   5     0.00000     0.00000     1.25520  0.0
     86     77     78     92   5     0.00000     0.00000     1.25520  0.0
     77     78     79     80   5     0.00000     0.34727     0.00000  0.0
     77     78     79     84   5     2.45182   -10.01650     5.09611  0.0
     87     78     79     80   5     0.00000     0.00000     0.00000  0.0
     87     78     79     84   5     0.00000     0.00000     0.00000  0.0
     92     78     79     80   5     0.00000     0.34727     0.00000  0.0
     92     78     79     84   5     2.45182   -10.01650     5.09611  0.0
     77     78     92     93   5     4.74884    -0.63178     1.67360  0.0
     77     78     92    100   5     0.00000     0.00000     1.25520  0.0
     77     78     92    101   5     0.00000     0.00000     1.25520  0.0
     79     78     92     93   5    -0.30962     3.11290    -3.95806  0.0
     79     78     92    100   5     0.00000     0.00000     3.61498  0.0
     79     78     92    101   5     0.00000     0.00000     3.61498  0.0
     87     78     92     93   5     0.00000     0.00000     1.25520  0.0
     87     78     92    100   5     0.00000     0.00000     1.25520  0.0
     87     78     92    101   5     0.00000     0.00000     1.25520  0.0
     78     79     80     81   5     0.00000    30.33400     0.00000  0.0
     78     79     80     88   5     0.00000    30.33400     0.00000  0.0
     84     79     80     81   5     0.00000    30.33400     0.00000  0.0
     84     79     80     88   5     0.00000    30.33400     0.00000  0.0
     78     79     84     83   5     0.00000    30.33400     0.00000  0.0
     80     79     84     83   5     0.00000    30.33400     0.00000  0.0
     79     80     81     82   5     0.00000    30.33400     0.00000  0.0
     79     80     81     89   5     0.00000    30.33400     0.00000  0.0
     88     80     81     82   5     0.00000    30.33400     0.00000  0.0
     88     80     81     89   5     0.00000    30.33400     0.00000  0.0
     80     81     82     83   5     0.00000    30.33400     0.00000  0.0
     80     81     82     90   5     0.00000    30.33400     0.00000  0.0
     89     81     82     83   5     0.00000    30.33400     0.00000  0.0
     89     81     82     90   5     0.00000    30.33400     0.00000  0.0
     81     82     83     84   5     0.00000    30.33400     0.00000  0.0
     81     82     83     91   5     0.00000    30.33400     0.00000  0.0
     90     82     83     84   5     0.00000    30.33400     0.00000  0.0
     90     82     83     91   5     0.00000    30.33400     0.00000  0.0
     82     83     84     79   5     0.00000    30.33400     0.00000  0.0
     91     83     84     79   5     0.00000    30.33400     0.00000  0.0
     78     92     93     94   5    -0.30962     3.11290    -3.95806  0.0
     78     92     93    102   5     0.00000     0.00000     1.25520  0.0
     78     92     93    107   5     4.74884    -0.63178     1.67360  0.0
    100     92     93     94   5     0.00000     0.00000     3.61498  0.0
    100     92     93    102   5     0.00000     0.00000     1.25520  0.0
    100     92     93    107   5     0.00000     0.00000     1.25520  0.0
    101     92     93     94   5     0.00000     0.00000     3.61498  0.0
    101     92     93    102   5     0.00000     0.00000     1.25520  0.0
    101     92     93    107   5     0.00000     0.00000     1.25520  0.0
     92     93     94     95   5     0.00000     0.34727     0.00000  0.0
     92     93     94     99   5     2.45182   -10.01650     5.09611  0.0
    102     93     94     95   5     0.00000     0.00000     0.00000  0.0
    102     93     94     99   5     0.00000     0.00000     0.00000  0.0
    107     93     94     95   5     0.00000     0.34727     0.00000  0.0
    107     93     94     99   5     2.45182   -10.01650     5.09611  0.0
     92     93    107    108   5     4.74884    -0.63178     1.67360  0.0
     92     93    107    115   5     0.00000     0.00000     1.25520  0.0
     92     93    107    116   5     0.00000     0.00000     1.25520  0.0
     94     93    107    108   5    -0.30962     3.11290    -3.95806  0.0
     94     93    107    115   5     0.00000     0.00000     3.61498  0.0
     94     93    107    116   5     0.00000     0.00000     3.61498  0.0
    102     93    107    108   5     0.00000     0.00000     1.25520  0.0
    102     93    107    115   5     0.00000     0.00000     1.25520  0.0
    102     93    107    116   5     0.00000     0.00000     1.25520  0.0
     93     94     95     96   5     0.00000    30.33400     0.00000  0.0
     93     94     95    103   5     0.00000    30.33400     0.00000  0.0
     99     94     95     96   5     0.00000    30.33400     0.00000  0.0
     99     94     95    103   5     0.00000    30.33400     0.00000  0.0
     93     94     99     98   5     0.00000    30.33400     0.00000  0.0
     95     94     99     98   5     0.00000    30.33400     0.00000  0.0
     94     95     96     97   5     0.00000    30.33400     0.00000  0.0
     94     95     96    104   5     0.00000    30.33400     0.00000  0.0
    103     95     96     97   5     0.00000    30.33400     0.00000  0.0
    103     95     96    104   5     0.00000    30.33400     0.00000  0.0
     95     96     97     98   5     0.00000    30.33400     0.00000  0.0
     95     96     97    105   5     0.00000    30.33400     0.00000  0.0
    104     96     97     98   5     0.00000    30.33400     0.00000  0.0
    104     96     97    105   5     0.00000    30.33400     0.00000  0.0
     96     97     98     99   5     0.00000    30.33400     0.00000  0.0
     96     97     98    106   5     0.00000    30.33400     0.00000  0.0
    105     97     98     99   5     0.00000    30.33400     0.00000  0.0
    105     97     98    106   5     0.00000    30.33400     0.00000  0.0
     97     98     99     94   5     0.00000    30.33400     0.00000  0.0
    106     98     99     94   5     0.00000    30.33400     0.00000  0.0
     93    107    108    109   5    -0.30962     3.11290    -3.95806  0.0
     93    107    108    117   5     0.00000     0.00000     1.25520  0.0
     93    107    108    122   5     4.74884    -0.63178     1.67360  0.0
    115    107    108    109   5     0.00000     0.00000     3.61498  0.0
    115    107    108    117   5     0.00000     0.00000     1.25520  0.0
    115    107    108    122   5     0.00000     0.00000     1.25520  0.0
    116    107    108    109   5     0.00000     0.00000     3.61498  0.0
    116    107    108    117   5     0.00000     0.00000     1.25520  0.0
    116    107    108    122   5     0.00000     0.00000     1.25520  0.0
    107    108    109    110   5     0.00000     0.34727     0.00000  0.0
    107    108    109    114   5     2.45182   -10.01650     5.09611  0.0
    117    108    109    110   5     0.00000     0.00000     0.00000  0.0
    117    108    109    114   5     0.00000     0.00000     0.00000  0.0
    122    108    109    110   5     0.00000     0.34727     0.00000  0.0
    122    108    109    114   5     2.45182   -10.01650     5.09611  0.0
    107    108    122    123   5     4.74884    -0.63178     1.67360  0.0
    107    108    122    130   5     0.00000     0.00000     1.25520  0.0
    107    108    122    131   5     0.00000     0.00000     1.25520  0.0
    109    108    122    123   5    -0.30962     3.11290    -3.95806  0.0
    109    108    122    130   5     0.00000     0.00000     3.61498  0.0
    109    108    122    131   5     0.00000     0.00000     3.61498  0.0
    117    108    122    123   5     0.00000     0.00000     1.25520  0.0
    117    108    122    130   5     0.00000     0.00000     1.25520  0.0
    117    108    122    131   5     0.00000     0.00000     1.25520  0.0
    108    109    110    111   5     0.00000    30.33400     0.00000  0.0
    108    109    110    118   5     0.00000    30.33400     0.00000  0.0
    114    109    110    111   5     0.00000    30.33400     0.00000  0.0
    114    109    110    118   5     0.00000    30.33400     0.00000  0.0
    108    109    114    113   5     0.00000    30.33400     0.00000  0.0
    110    109    114    113   5     0.00000    30.33400     0.00000  0.0
    109    110    111    112   5     0.00000    30.33400     0.00000  0.0
    109    110    111    119   5     0.00000    30.33400     0.00000  0.0
    118    110    111    112   5     0.00000    30.33400     0.00000  0.0
    118    110    111    119   5     0.00000    30.33400     0.00000  0.0
    110    111    112    113   5     0.00000    30.33400     0.00000  0.0
    110    111    112    120   5     0.00000    30.33400     0.00000  0.0
    119    111    112    113   5     0.00000    30.33400     0.00000  0.0
    119    111    112    120   5     0.00000    30.33400     0.00000  0.0
    111    112    113    114   5     0.00000    30.33400     0.00000  0.0
    111    112    113    121   5     0.00000    30.33400     0.00000  0.0
    120    112    113    114   5     0.00000    30.33400     0.00000  0.0
    120    112    113    121   5     0.00000    30.33400     0.00000  0.0
    112    113    114    109   5     0.00000    30.33400     0.00000  0.0
    121    113    114    109   5     0.00000    30.33400     0.00000  0.0
    108    122    123    124   5    -0.30962     3.11290    -3.95806  0.0
    108    122    123    132   5     0.00000     0.00000     1.25520  0.0
    108    122    123    137   5     4.74884    -0.63178     1.67360  0.0
    130    122    123    124   5     0.00000     0.00000     3.61498  0.0
    130    122    123    132   5     0.00000     0.00000     1.25520  0.0
    130    122    123    137   5     0.00000     0.00000     1.25520  0.0
    131    122    123    124   5     0.00000     0.00000     3.61498  0.0
    131    122    123    132   5     0.00000     0.00000     1.25520  0.0
    131    122    123    137   5     0.00000     0.00000     1.25520  0.0
    122    123    124    125   5     0.00000     0.34727     0.00000  0.0
    122    123    124    129   5     2.45182   -10.01650     5.09611  0.0
    132    123    124    125   5     0.00000     0.00000     0.00000  0.0
    132    123    124    129   5     0.00000     0.00000     0.00000  0.0
    137    123    124    125   5     0.00000     0.34727     0.00000  0.0
    137    123    124    129   5     2.45182   -10.01650     5.09611  0.0
    122    123    137    138   5     4.74884    -0.63178     1.67360  0.0
    122    123    137    145   5     0.00000     0.00000     1.25520  0.0
    122    123    137    146   5     0.00000     0.00000     1.25520  0.0
    124    123    137    138   5    -0.30962     3.11290    -3.95806  0.0
    124    123    137    145   5     0.00000     0.00000     3.61498  0.0
    124    123    137    146   5     0.00000     0.00000     3.61498  0.0
    132    123    137    138   5     0.00000     0.00000     1.25520  0.0
    132    123    137    145   5     0.00000     0.00000     1.25520  0.0
    132    123    137    146   5     0.00000     0.00000     1.25520  0.0
    123    124    125    126   5     0.00000    30.33400     0.00000  0.0
    123    124    125    133   5     0.00000    30.33400     0.00000  0.0
    129    124    125    126   5     0.00000    30.33400     0.00000  0.0
    129    124    125    133   5     0.00000    30.33400     0.00000  0.0
    123    124    129    128   5     0.00000    30.33400     0.00000  0.0
    125    124    129    128   5     0.00000    30.33400     0.00000  0.0
    124    125    126    127   5     0.00000    30.33400     0.00000  0.0
    124    125    126    134   5     0.00000    30.33400     0.00000  0.0
    133    125    126    127   5     0.00000    30.33400     0.00000  0.0
    133    125    126    134   5     0.00000    30.33400     0.00000  0.0
    125    126    127    128   5     0.00000    30.33400     0.00000  0.0
    125    126    127    135   5     0.00000    30.33400     0.00000  0.0
    134    126    127    128   5     0.00000    30.33400     0.00000  0.0
    134    126    127    135   5     0.00000    30.33400     0.00000  0.0
    126    127    128    129   5     0.00000    30.33400     0.00000  0.0
    126    127    128    136   5     0.00000    30.33400     0.00000  0.0
    135    127    128    129   5     0.00000    30.33400     0.00000  0.0
    135    127    128    136   5     0.00000    30.33400     0.00000  0.0
    127    128    129    124   5     0.00000    30.33400     0.00000  0.0
    136    128    129    124   5     0.00000    30.33400     0.00000  0.0
    123    137    138    139   5    -0.30962     3.11290    -3.95806  0.0
    123    137    138    147   5     0.00000     0.00000     1.25520  0.0
    123    137    138    152   5     4.74884    -0.63178     1.67360  0.0
    145    137    138    139   5     0.00000     0.00000     3.61498  0.0
    145    137    138    147   5     0.00000     0.00000     1.25520  0.0
    145    137    138    152   5     0.00000     0.00000     1.25520  0.0
    146    137    138    139   5     0.00000     0.00000     3.61498  0.0
    146    137    138    147   5     0.00000     0.00000     1.25520  0.0
    146    137    138    152   5     0.00000     0.00000     1.25520  0.0
    137    138    139    140   5     0.00000     0.34727     0.00000  0.0
    137    138    139    144   5     2.45182   -10.01650     5.09611  0.0
    147    138    139    140   5     0.00000     0.00000     0.00000  0.0
    147    138    139    144   5     0.00000     0.00000     0.00000  0.0
    152    138    139    140   5     0.00000     0.34727     0.00000  0.0
    152    138    139    144   5     2.45182   -10.01650     5.09611  0.0
    137    138    152    153   5     4.74884    -0.63178     1.67360  0.0
    137    138    152    160   5     0.00000     0.00000     1.25520  0.0
    137    138    152    161   5     0.00000     0.00000     1.25520  0.0
    139    138    152    153   5    -0.30962     3.11290    -3.95806  0.0
    139    138    152    160   5     0.00000     0.00000     3.61498  0.0
    139    138    152    161   5     0.00000     0.00000     3.61498  0.0
    147    138    152    153   5     0.00000     0.00000     1.25520  0.0
    147    138    152    160   5     0.00000     0.00000     1.25520  0.0
    147    138    152    161   5     0.00000     0.00000     1.25520  0.0
    138    139    140    141   5     0.00000    30.33400     0.00000  0.0
    138    139    140    148   5     0.00000    30.33400     0.00000  0.0
    144    139    140    141   5     0.00000    30.33400     0.00000  0.0
    144    139    140    148   5     0.00000    30.33400     0.00000  0.0
    138    139    144    143   5     0.00000    30.33400     0.00000  0.0
    140    139    144    143   5     0.00000    30.33400     0.00000  0.0
    139    140    141    142   5     0.00000    30.33400     0.00000  0.0
    139    140    141    149   5     0.00000    30.33400     0.00000  0.0
    148    140    141    142   5     0.00000    30.33400     0.00000  0.0
    148    140    141    149   5     0.00000    30.33400     0.00000  0.0
    140    141    142    143   5     0.00000    30.33400     0.00000  0.0
    140    141    142    150   5     0.00000    30.33400     0.00000  0.0
    149    141    142    143   5     0.00000    30.33400     0.00000  0.0
    149    141    142    150   5     0.00000    30.33400     0.00000  0.0
    141    142    143    144   5     0.00000    30.33400     0.00000  0.0
    141    142    143    151   5     0.00000    30.33400     0.00000  0.0
    150    142    143    144   5     0.00000    30.33400     0.00000  0.0
    150    142    143    151   5     0.00000    30.33400     0.00000  0.0
    142    143    144    139   5     0.00000    30.33400     0.00000  0.0
    151    143    144    139   5     0.00000    30.33400     0.00000  0.0
    138    152    153    154   5    -0.30962     3.11290    -3.95806  0.0
    138    152    153    162   5     0.00000     0.00000     1.25520  0.0
    138    152    153    167   5     4.74884    -0.63178     1.67360  0.0
    160    152    153    154   5     0.00000     0.00000     3.61498  0.0
    160    152    153    162   5     0.00000     0.00000     1.25520  0.0
    160    152    153    167   5     0.00000     0.00000     1.25520  0.0
    161    152    153    154   5     0.00000     0.00000     3.61498  0.0
    161    152    153    162   5     0.00000     0.00000     1.25520  0.0
    161    152    153    167   5     0.00000     0.00000     1.25520  0.0
    152    153    154    155   5     0.00000     0.34727     0.00000  0.0
    152    153    154    159   5     2.45182   -10.01650     5.09611  0.0
    162    153    154    155   5     0.00000     0.00000     0.00000  0.0
    162    153    154    159   5     0.00000     0.00000     0.00000  0.0
    167    153    154    155   5     0.00000     0.34727     0.00000  0.0
    167    153    154    159   5     2.45182   -10.01650     5.09611  0.0
    152    153    167    168   5     4.74884    -0.63178     1.67360  0.0
    152    153    167    175   5     0.00000     0.00000     1.25520  0.0
    152    153    167    176   5     0.00000     0.00000     1.25520  0.0
    154    153    167    168   5    -0.30962     3.11290    -3.95806  0.0
    154    153    167    175   5     0.00000     0.00000     3.61498  0.0
    154    153    167    176   5     0.00000     0.00000     3.61498  0.0
    162    153    167    168   5     0.00000     0.00000     1.25520  0.0
    162    153    167    175   5     0.00000     0.00000     1.25520  0.0
    162    153    167    176   5     0.00000     0.00000     1.25520  0.0
    153    154    155    156   5     0.00000    30.33400     0.00000  0.0
    153    154    155    163   5     0.00000    30.33400     0.00000  0.0
    159    154    155    156   5     0.00000    30.33400     0.00000  0.0
    159    154    155    163   5     0.00000    30.33400     0.00000  0.0
    153    154    159    158   5     0.00000    30.33400     0.00000  0.0
    155    154    159    158   5     0.00000    30.33400     0.00000  0.0
    154    155    156    157   5     0.00000    30.33400     0.00000  0.0
    154    155    156    164   5     0.00000    30.33400     0.00000  0.0
    163    155    156    157   5     0.00000    30.33400     0.00000  0.0
    163    155    156    164   5     0.00000    30.33400     0.00000  0.0
    155    156    157    158   5     0.00000    30.33400     0.00000  0.0
    155    156    157    165   5     0.00000    30.33400     0.00000  0.0
    164    156    157    158   5     0.00000    30.33400     0.00000  0.0
    164    156    157    165   5     0.00000    30.33400     0.00000  0.0
    156    157    158    159   5     0.00000    30.33400     0.00000  0.0
    156    157    158    166   5     0.00000    30.33400     0.00000  0.0
    165    157    158    159   5     0.00000    30.33400     0.00000  0.0
    165    157    158    166   5     0.00000    30.33400     0.00000  0.0
    157    158    159    154   5     0.00000    30.33400     0.00000  0.0
    166    158    159    154   5     0.00000    30.33400     0.00000  0.0
    153    167    168    169   5    -0.30962     3.11290    -3.95806  0.0
    153    167    168    177   5     0.00000     0.00000     1.25520  0.0
    153    167    168    182   5     4.74884    -0.63178     1.67360  0.0
    175    167    168    169   5     0.00000     0.00000     3.61498  0.0
    175    167    168    177   5     0.00000     0.00000     1.25520  0.0
    175    167    168    182   5     0.00000     0.00000     1.25520  0.0
    176    167    168    169   5     0.00000     0.00000     3.61498  0.0
    176    167    168    177   5     0.00000     0.00000     1.25520  0.0
    176    167    168    182   5     0.00000     0.00000     1.25520  0.0
    167    168    169    170   5     0.00000     0.34727     0.00000  0.0
    167    168    169    174   5     2.45182   -10.01650     5.09611  0.0
    177    168    169    170   5     0.00000     0.00000     0.00000  0.0
    177    168    169    174   5     0.00000     0.00000     0.00000  0.0
    182    168    169    170   5     0.00000     0.34727     0.00000  0.0
    182    168    169    174   5     2.45182   -10.01650     5.09611  0.0
    167    168    182    183   5     4.74884    -0.63178     1.67360  0.0
    167    168    182    190   5     0.00000     0.00000     1.25520  0.0
    167    168    182    191   5     0.00000     0.00000     1.25520  0.0
    169    168    182    183   5    -0.30962     3.11290    -3.95806  0.0
    169    168    182    190   5     0.00000     0.00000     3.61498  0.0
    169    168    182    191   5     0.00000     0.00000     3.61498  0.0
    177    168    182    183   5     0.00000     0.00000     1.25520  0.0
    177    168    182    190   5     0.00000     0.00000     1.25520  0.0
    177    168    182    191   5     0.00000     0.00000     1.25520  0.0
    168    169    170    171   5     0.00000    30.33400     0.00000  0.0
    168    169    170    178   5     0.00000    30.33400     0.00000  0.0
    174    169    170    171   5     0.00000    30.33400     0.00000  0.0
    174    169    170    178   5     0.00000    30.33400     0.00000  0.0
    168    169    174    173   5     0.00000    30.33400     0.00000  0.0
    170    169    174    173   5     0.00000    30.33400     0.00000  0.0
    169    170    171    172   5     0.00000    30.33400     0.00000  0.0
    169    170    171    179   5     0.00000    30.33400     0.00000  0.0
    178    170    171    172   5     0.00000    30.33400     0.00000  0.0
    178    170    171    179   5     0.00000    30.33400     0.00000  0.0
    170    171    172    173   5     0.00000    30.33400     0.00000  0.0
    170    171    172    180   5     0.00000    30.33400     0.00000  0.0
    179    171    172    173   5     0.00000    30.33400     0.00000  0.0
    179    171    172    180   5     0.00000    30.33400     0.00000  0.0
    171    172    173    174   5     0.00000    30.33400     0.00000  0.0
    171    172    173    181   5     0.00000    30.33400     0.00000  0.0
    180    172    173    174   5     0.00000    30.33400     0.00000  0.0
    180    172    173    181   5     0.00000    30.33400     0.00000  0.0
    172    173    174    169   5     0.00000    30.33400     0.00000  0.0
    181    173    174    169   5     0.00000    30.33400     0.00000  0.0
    168    182    183    184   5    -0.30962     3.11290    -3.95806  0.0
    168    182    183    192   5     0.00000     0.00000     1.25520  0.0
    168    182    183    197   5     4.74884    -0.63178     1.67360  0.0
    190    182    183    184   5     0.00000     0.00000     3.61498  0.0
    190    182    183    192   5     0.00000     0.00000     1.25520  0.0
    190    182    183    197   5     0.00000     0.00000     1.25520  0.0
    191    182    183    184   5     0.00000     0.00000     3.61498  0.0
    191    182    183    192   5     0.00000     0.00000     1.25520  0.0
    191    182    183    197   5     0.00000     0.00000     1.25520  0.0
    182    183    184    185   5     0.00000     0.34727     0.00000  0.0
    182    183    184    189   5     2.45182   -10.01650     5.09611  0.0
    192    183    184    185   5     0.00000     0.00000     0.00000  0.0
    192    183    184    189   5     0.00000     0.00000     0.00000  0.0
    197    183    184    185   5     0.00000     0.34727     0.00000  0.0
    197    183    184    189   5     2.45182   -10.01650     5.09611  0.0
    182    183    197    198   5     4.74884    -0.63178     1.67360  0.0
    182    183    197    205   5     0.00000     0.00000     1.25520  0.0
    182    183    197    206   5     0.00000     0.00000     1.25520  0.0
    184    183    197    198   5    -0.30962     3.11290    -3.95806  0.0
    184    183    197    205   5     0.00000     0.00000     3.61498  0.0
    184    183    197    206   5     0.00000     0.00000     3.61498  0.0
    192    183    197    198   5     0.00000     0.00000     1.25520  0.0
    192    183    197    205   5     0.00000     0.00000     1.25520  0.0
    192    183    197    206   5     0.00000     0.00000     1.25520  0.0
    183    184    185    186   5     0.00000    30.33400     0.00000  0.0
    183    184    185    193   5     0.00000    30.33400     0.00000  0.0
    189    184    185    186   5     0.00000    30.33400     0.00000  0.0
    189    184    185    193   5     0.00000    30.33400     0.00000  0.0
    183    184    189    188   5     0.00000    30.33400     0.00000  0.0
    185    184    189    188   5     0.00000    30.33400     0.00000  0.0
    184    185    186    187   5     0.00000    30.33400     0.00000  0.0
    184    185    186    194   5     0.00000    30.33400     0.00000  0.0
    193    185    186    187   5     0.00000    30.33400     0.00000  0.0
    193    185    186    194   5     0.00000    30.33400     0.00000  0.0
    185    186    187    188   5     0.00000    30.33400     0.00000  0.0
    185    186    187    195   5     0.00000    30.33400     0.00000  0.0
    194    186    187    188   5     0.00000    30.33400     0.00000  0.0
    194    186    187    195   5     0.00000    30.33400     0.00000  0.0
    186    187    188    189   5     0.00000    30.33400     0.00000  0.0
    186    187    188    196   5     0.00000    30.33400     0.00000  0.0
    195    187    188    189   5     0.00000    30.33400     0.00000  0.0
    195    187    188    196   5     0.00000    30.33400     0.00000  0.0
    187    188    189    184   5     0.00000    30.33400     0.00000  0.0
    196    188    189    184   5     0.00000    30.33400     0.00000  0.0
    183    197    198    199   5    -0.30962     3.11290    -3.95806  0.0
    183    197    198    207   5     0.00000     0.00000     1.25520  0.0
    183    197    198    212   5     4.74884    -0.63178     1.67360  0.0
    205    197    198    199   5     0.00000     0.00000     3.61498  0.0
    205    197    198    207   5     0.00000     0.00000     1.25520  0.0
    205    197    198    212   5     0.00000     0.00000     1.25520  0.0
    206    197    198    199   5     0.00000     0.00000     3.61498  0.0
    206    197    198    207   5     0.00000     0.00000     1.25520  0.0
    206    197    198    212   5     0.00000     0.00000     1.25520  0.0
    197    198    199    200   5     0.00000     0.34727     0.00000  0.0
    197    198    199    204   5     2.45182   -10.01650     5.09611  0.0
    207    198    199    200   5     0.00000     0.00000     0.00000  0.0
    207    198    199    204   5     0.00000     0.00000     0.00000  0.0
    212    198    199    200   5     0.00000     0.34727     0.00000  0.0
    212    198    199    204   5     2.45182   -10.01650     5.09611  0.0
    197    198    212    213   5     4.74884    -0.63178     1.67360  0.0
    197    198    212    220   5     0.00000     0.00000     1.25520  0.0
    197    198    212    221   5     0.00000     0.00000     1.25520  0.0
    199    198    212    213   5    -0.30962     3.11290    -3.95806  0.0
    199    198    212    220   5     0.00000     0.00000     3.61498  0.0
    199    198    212    221   5     0.00000     0.00000     3.61498  0.0
    207    198    212    213   5     0.00000     0.00000     1.25520  0.0
    207    198    212    220   5     0.00000     0.00000     1.25520  0.0
    207    198    212    221   5     0.00000     0.00000     1.25520  0.0
    198    199    200    201   5     0.00000    30.33400     0.00000  0.0
    198    199    200    208   5     0.00000    30.33400     0.00000  0.0
    204    199    200    201   5     0.00000    30.33400     0.00000  0.0
    204    199    200    208   5     0.00000    30.33400     0.00000  0.0
    198    199    204    203   5     0.00000    30.33400     0.00000  0.0
    200    199    204    203   5     0.00000    30.33400     0.00000  0.0
    199    200    201    202   5     0.00000    30.33400     0.00000  0.0
    199    200    201    209   5     0.00000    30.33400     0.00000  0.0
    208    200    201    202   5     0.00000    30.33400     0.00000  0.0
    208    200    201    209   5     0.00000    30.33400     0.00000  0.0
    200    201    202    203   5     0.00000    30.33400     0.00000  0.0
    200    201    202    210   5     0.00000    30.33400     0.00000  0.0
    209    201    202    203   5     0.00000    30.33400     0.00000  0.0
    209    201    202    210   5     0.00000    30.33400     0.00000  0.0
    201    202    203    204   5     0.00000    30.33400     0.00000  0.0
    201    202    203    211   5     0.00000    30.33400     0.00000  0.0
    210    202    203    204   5     0.00000    30.33400     0.00000  0.0
    210    202    203    211   5     0.00000    30.33400     0.00000  0.0
    202    203    204    199   5     0.00000    30.33400     0.00000  0.0
    211    203    204    199   5     0.00000    30.33400     0.00000  0.0
    198    212    213    214   5    -0.30962     3.11290    -3.95806  0.0
    198    212    213    222   5     0.00000     0.00000     1.25520  0.0
    198    212    213    227   5     4.74884    -0.63178     1.67360  0.0
    220    212    213    214   5     0.00000     0.00000     3.61498  0.0
    220    212    213    222   5     0.00000     0.00000     1.25520  0.0
    220    212    213    227   5     0.00000     0.00000     1.25520  0.0
    221    212    213    214   5     0.00000     0.00000     3.61498  0.0
    221    212    213    222   5     0.00000     0.00000     1.25520  0.0
    221    212    213    227   5     0.00000     0.00000     1.25520  0.0
    212    213    214    215   5     0.00000     0.34727     0.00000  0.0
    212    213    214    219   5     2.45182   -10.01650     5.09611  0.0
    222    213    214    215   5     0.00000     0.00000     0.00000  0.0
    222    213    214    219   5     0.00000     0.00000     0.00000  0.0
    227    213    214    215   5     0.00000     0.34727     0.00000  0.0
    227    213    214    219   5     2.45182   -10.01650     5.09611  0.0
    212    213    227    228   5     4.74884    -0.63178     1.67360  0.0
    212    213    227    235   5     0.00000     0.00000     1.25520  0.0
    212    213    227    236   5     0.00000     0.00000     1.25520  0.0
    214    213    227    228   5    -0.30962     3.11290    -3.95806  0.0
    214    213    227    235   5     0.00000     0.00000     3.61498  0.0
    214    213    227    236   5     0.00000     0.00000     3.61498  0.0
    222    213    227    228   5     0.00000     0.00000     1.25520  0.0
    222    213    227    235   5     0.00000     0.00000     1.25520  0.0
    222    213    227    236   5     0.00000     0.00000     1.25520  0.0
    213    214    215    216   5     0.00000    30.33400     0.00000  0.0
    213    214    215    223   5     0.00000    30.33400     0.00000  0.0
    219    214    215    216   5     0.00000    30.33400     0.00000  0.0
    219    214    215    223   5     0.00000    30.33400     0.00000  0.0
    213    214    219    218   5     0.00000    30.33400     0.00000  0.0
    215    214    219    218   5     0.00000    30.33400     0.00000  0.0
    214    215    216    217   5     0.00000    30.33400     0.00000  0.0
    214    215    216    224   5     0.00000    30.33400     0.00000  0.0
    223    215    216    217   5     0.00000    30.33400     0.00000  0.0
    223    215    216    224   5     0.00000    30.33400     0.00000  0.0
    215    216    217    218   5     0.00000    30.33400     0.00000  0.0
    215    216    217    225   5     0.00000    30.33400     0.00000  0.0
    224    216    217    218   5     0.00000    30.33400     0.00000  0.0
    224    216    217    225   5     0.00000    30.33400     0.00000  0.0
    216    217    218    219   5     0.00000    30.33400     0.00000  0.0
    216    217    218    226   5     0.00000    30.33400     0.00000  0.0
    225    217    218    219   5     0.00000    30.33400     0.00000  0.0
    225    217    218    226   5     0.00000    30.33400     0.00000  0.0
    217    218    219    214   5     0.00000    30.33400     0.00000  0.0
    226    218    219    214   5     0.00000    30.33400     0.00000  0.0
    213    227    228    229   5    -0.30962     3.11290    -3.95806  0.0
    213    227    228    237   5     0.00000     0.00000     1.25520  0.0
    213    227    228    242   5     4.74884    -0.63178     1.67360  0.0
    235    227    228    229   5     0.00000     0.00000     3.61498  0.0
    235    227    228    237   5     0.00000     0.00000     1.25520  0.0
    235    227    228    242   5     0.00000     0.00000     1.25520  0.0
    236    227    228    229   5     0.00000     0.00000     3.61498  0.0
    236    227    228    237   5     0.00000     0.00000     1.25520  0.0
    236    227    228    242   5     0.00000     0.00000     1.25520  0.0
    227    228    229    230   5     0.00000     0.34727     0.00000  0.0
    227    228    229    234   5     2.45182   -10.01650     5.09611  0.0
    237    228    229    230   5     0.00000     0.00000     0.00000  0.0
    237    228    229    234   5     0.00000     0.00000     0.00000  0.0
    242    228    229    230   5     0.00000     0.34727     0.00000  0.0
    242    228    229    234   5     2.45182   -10.01650     5.09611  0.0
    227    228    242    243   5     4.74884    -0.63178     1.67360  0.0
    227    228    242    250   5     0.00000     0.00000     1.25520  0.0
    227    228    242    251   5     0.00000     0.00000     1.25520  0.0
    229    228    242    243   5    -0.30962     3.11290    -3.95806  0.0
    229    228    242    250   5     0.00000     0.00000     3.61498  0.0
    229    228    242    251   5     0.00000     0.00000     3.61498  0.0
    237    228    242    243   5     0.00000     0.00000     1.25520  0.0
    237    228    242    250   5     0.00000     0.00000     1.25520  0.0
    237    228    242    251   5     0.00000     0.00000     1.25520  0.0
    228    229    230    231   5     0.00000    30.33400     0.00000  0.0
    228    229    230    238   5     0.00000    30.33400     0.00000  0.0
    234    229    230    231   5     0.00000    30.33400     0.00000  0.0
    234    229    230    238   5     0.00000    30.33400     0.00000  0.0
    228    229    234    233   5     0.00000    30.33400     0.00000  0.0
    230    229    234    233   5     0.00000    30.33400     0.00000  0.0
    229    230    231    232   5     0.00000    30.33400     0.00000  0.0
    229    230    231    239   5     0.00000    30.33400     0.00000  0.0
    238    230    231    232   5     0.00000    30.33400     0.00000  0.0
    238    230    231    239   5     0.00000    30.33400     0.00000  0.0
    230    231    232    233   5     0.00000    30.33400     0.00000  0.0
    230    231    232    240   5     0.00000    30.33400     0.00000  0.0
    239    231    232    233   5     0.00000    30.33400     0.00000  0.0
    239    231    232    240   5     0.00000    30.33400     0.00000  0.0
    231    232    233    234   5     0.00000    30.33400     0.00000  0.0
    231    232    233    241   5     0.00000    30.33400     0.00000  0.0
    240    232    233    234   5     0.00000    30.33400     0.00000  0.0
    240    232    233    241   5     0.00000    30.33400     0.00000  0.0
    232    233    234    229   5     0.00000    30.33400     0.00000  0.0
    241    233    234    229   5     0.00000    30.33400     0.00000  0.0
    228    242    243    244   5    -0.30962     3.11290    -3.95806  0.0
    228    242    243    252   5     0.00000     0.00000     1.25520  0.0
    228    242    243    257   5     4.74884    -0.63178     1.67360  0.0
    250    242    243    244   5     0.00000     0.00000     3.61498  0.0
    250    242    243    252   5     0.00000     0.00000     1.25520  0.0
    250    242    243    257   5     0.00000     0.00000     1.25520  0.0
    251    242    243    244   5     0.00000     0.00000     3.61498  0.0
    251    242    243    252   5     0.00000     0.00000     1.25520  0.0
    251    242    243    257   5     0.00000     0.00000     1.25520  0.0
    242    243    244    245   5     0.00000     0.34727     0.00000  0.0
    242    243    244    249   5     2.45182   -10.01650     5.09611  0.0
    252    243    244    245   5     0.00000     0.00000     0.00000  0.0
    252    243    244    249   5     0.00000     0.00000     0.00000  0.0
    257    243    244    245   5     0.00000     0.34727     0.00000  0.0
    257    243    244    249   5     2.45182   -10.01650     5.09611  0.0
    242    243    257    258   5     4.74884    -0.63178     1.67360  0.0
    242    243    257    265   5     0.00000     0.00000     1.25520  0.0
    242    243    257    266   5     0.00000     0.00000     1.25520  0.0
    244    243    257    258   5    -0.30962     3.11290    -3.95806  0.0
    244    243    257    265   5     0.00000     0.00000     3.61498  0.0
    244    243    257    266   5     0.00000     0.00000     3.61498  0.0
    252    243    257    258   5     0.00000     0.00000     1.25520  0.0
    252    243    257    265   5     0.00000     0.00000     1.25520  0.0
    252    243    257    266   5     0.00000     0.00000     1.25520  0.0
    243    244    245    246   5     0.00000    30.33400     0.00000  0.0
    243    244    245    253   5     0.00000    30.33400     0.00000  0.0
    249    244    245    246   5     0.00000    30.33400     0.00000  0.0
    249    244    245    253   5     0.00000    30.33400     0.00000  0.0
    243    244    249    248   5     0.00000    30.33400     0.00000  0.0
    245    244    249    248   5     0.00000    30.33400     0.00000  0.0
    244    245    246    247   5     0.00000    30.33400     0.00000  0.0
    244    245    246    254   5     0.00000    30.33400     0.00000  0.0
    253    245    246    247   5     0.00000    30.33400     0.00000  0.0
    253    245    246    254   5     0.00000    30.33400     0.00000  0.0
    245    246    247    248   5     0.00000    30.33400     0.00000  0.0
    245    246    247    255   5     0.00000    30.33400     0.00000  0.0
    254    246    247    248   5     0.00000    30.33400     0.00000  0.0
    254    246    247    255   5     0.00000    30.33400     0.00000  0.0
    246    247    248    249   5     0.00000    30.33400     0.00000  0.0
    246    247    248    256   5     0.00000    30.33400     0.00000  0.0
    255    247    248    249   5     0.00000    30.33400     0.00000  0.0
    255    247    248    256   5     0.00000    30.33400     0.00000  0.0
    247    248    249    244   5     0.00000    30.33400     0.00000  0.0
    256    248    249    244   5     0.00000    30.33400     0.00000  0.0
    243    257    258    259   5    -0.30962     3.11290    -3.95806  0.0
    243    257    258    267   5     0.00000     0.00000     1.25520  0.0
    243    257    258    272   5     4.74884    -0.63178     1.67360  0.0
    265    257    258    259   5     0.00000     0.00000     3.61498  0.0
    265    257    258    267   5     0.00000     0.00000     1.25520  0.0
    265    257    258    272   5     0.00000     0.00000     1.25520  0.0
    266    257    258    259   5     0.00000     0.00000     3.61498  0.0
    266    257    258    267   5     0.00000     0.00000     1.25520  0.0
    266    257    258    272   5     0.00000     0.00000     1.25520  0.0
    257    258    259    260   5     0.00000     0.34727     0.00000  0.0
    257    258    259    264   5     2.45182   -10.01650     5.09611  0.0
    267    258    259    260   5     0.00000     0.00000     0.00000  0.0
    267    258    259    264   5     0.00000     0.00000     0.00000  0.0
    272    258    259    260   5     0.00000     0.34727     0.00000  0.0
    272    258    259    264   5     2.45182   -10.01650     5.09611  0.0
    257    258    272    273   5     4.74884    -0.63178     1.67360  0.0
    257    258    272    280   5     0.00000     0.00000     1.25520  0.0
    257    258    272    281   5     0.00000     0.00000     1.25520  0.0
    259    258    272    273   5    -0.30962     3.11290    -3.95806  0.0
    259    258    272    280   5     0.00000     0.00000     3.61498  0.0
    259    258    272    281   5     0.00000     0.00000     3.61498  0.0
    267    258    272    273   5     0.00000     0.00000     1.25520  0.0
    267    258    272    280   5     0.00000     0.00000     1.25520  0.0
    267    258    272    281   5     0.00000     0.00000     1.25520  0.0
    258    259    260    261   5     0.00000    30.33400     0.00000  0.0
    258    259    260    268   5     0.00000    30.33400     0.00000  0.0
    264    259    260    261   5     0.00000    30.33400     0.00000  0.0
    264    259    260    268   5     0.00000    30.33400     0.00000  0.0
    258    259    264    263   5     0.00000    30.33400     0.00000  0.0
    260    259    264    263   5     0.00000    30.33400     0.00000  0.0
    259    260    261    262   5     0.00000    30.33400     0.00000  0.0
    259    260    261    269   5     0.00000    30.33400     0.00000  0.0
    268    260    261    262   5     0.00000    30.33400     0.00000  0.0
    268    260    261    269   5     0.00000    30.33400     0.00000  0.0
    260    261    262    263   5     0.00000    30.33400     0.00000  0.0
    260    261    262    270   5     0.00000    30.33400     0.00000  0.0
    269    261    262    263   5     0.00000    30.33400     0.00000  0.0
    269    261    262    270   5     0.00000    30.33400     0.00000  0.0
    261    262    263    264   5     0.00000    30.33400     0.00000  0.0
    261    262    263    271   5     0.00000    30.33400     0.00000  0.0
    270    262    263    264   5     0.00000    30.33400     0.00000  0.0
    270    262    263    271   5     0.00000    30.33400     0.00000  0.0
    262    263    264    259   5     0.00000    30.33400     0.00000  0.0
    271    263    264    259   5     0.00000    30.33400     0.00000  0.0
    258    272    273    274   5    -0.30962     3.11290    -3.95806  0.0
    258    272    273    282   5     0.00000     0.00000     1.25520  0.0
    258    272    273    287   5     4.74884    -0.63178     1.67360  0.0
    280    272    273    274   5     0.00000     0.00000     3.61498  0.0
    280    272    273    282   5     0.00000     0.00000     1.25520  0.0
    280    272    273    287   5     0.00000     0.00000     1.25520  0.0
    281    272    273    274   5     0.00000     0.00000     3.61498  0.0
    281    272    273    282   5     0.00000     0.00000     1.25520  0.0
    281    272    273    287   5     0.00000     0.00000     1.25520  0.0
    272    273    274    275   5     0.00000     0.34727     0.00000  0.0
    272    273    274    279   5     2.45182   -10.01650     5.09611  0.0
    282    273    274    275   5     0.00000     0.00000     0.00000  0.0
    282    273    274    279   5     0.00000     0.00000     0.00000  0.0
    287    273    274    275   5     0.00000     0.34727     0.00000  0.0
    287    273    274    279   5     2.45182   -10.01650     5.09611  0.0
    272    273    287    288   5     4.74884    -0.63178     1.67360  0.0
    272    273    287    295   5     0.00000     0.00000     1.25520  0.0
    272    273    287    296   5     0.00000     0.00000     1.25520  0.0
    274    273    287    288   5    -0.30962     3.11290    -3.95806  0.0
    274    273    287    295   5     0.00000     0.00000     3.61498  0.0
    274    273    287    296   5     0.00000     0.00000     3.61498  0.0
    282    273    287    288   5     0.00000     0.00000     1.25520  0.0
    282    273    287    295   5     0.00000     0.00000     1.25520  0.0
    282    273    287    296   5     0.00000     0.00000     1.25520  0.0
    273    274    275    276   5     0.00000    30.33400     0.00000  0.0
    273    274    275    283   5     0.00000    30.33400     0.00000  0.0
    279    274    275    276   5     0.00000    30.33400     0.00000  0.0
    279    274    275    283   5     0.00000    30.33400     0.00000  0.0
    273    274    279    278   5     0.00000    30.33400     0.00000  0.0
    275    274    279    278   5     0.00000    30.33400     0.00000  0.0
    274    275    276    277   5     0.00000    30.33400     0.00000  0.0
    274    275    276    284   5     0.00000    30.33400     0.00000  0.0
    283    275    276    277   5     0.00000    30.33400     0.00000  0.0
    283    275    276    284   5     0.00000    30.33400     0.00000  0.0
    275    276    277    278   5     0.00000    30.33400     0.00000  0.0
    275    276    277    285   5     0.00000    30.33400     0.00000  0.0
    284    276    277    278   5     0.00000    30.33400     0.00000  0.0
    284    276    277    285   5     0.00000    30.33400     0.00000  0.0
    276    277    278    279   5     0.00000    30.33400     0.00000  0.0
    276    277    278    286   5     0.00000    30.33400     0.00000  0.0
    285    277    278    279   5     0.00000    30.33400     0.00000  0.0
    285    277    278    286   5     0.00000    30.33400     0.00000  0.0
    277    278    279    274   5     0.00000    30.33400     0.00000  0.0
    286    278    279    274   5     0.00000    30.33400     0.00000  0.0
    273    287    288    289   5    -0.30962     3.11290    -3.95806  0.0
    273    287    288    297   5     0.00000     0.00000     1.25520  0.0
    273    287    288    302   5     0.00000     0.00000     1.25520  0.0
    295    287    288    289   5     0.00000     0.00000     3.61498  0.0
    295    287    288    297   5     0.00000     0.00000     1.25520  0.0
    295    287    288    302   5     0.00000     0.00000     1.25520  0.0
    296    287    288    289   5     0.00000     0.00000     3.61498  0.0
    296    287    288    297   5     0.00000     0.00000     1.25520  0.0
    296    287    288    302   5     0.00000     0.00000     1.25520  0.0
    287    288    289    290   5     0.00000     0.34727     0.00000  0.0
    287    288    289    294   5     2.45182   -10.01650     5.09611  0.0
    297    288    289    290   5     0.00000     0.00000     0.00000  0.0
    297    288    289    294   5     0.00000     0.00000     0.00000  0.0
    302    288    289    290   5     0.00000     0.00000     0.00000  0.0
    302    288    289    294   5     0.00000     0.00000     0.00000  0.0
    288    289    290    291   5     0.00000    30.33400     0.00000  0.0
    288    289    290    298   5     0.00000    30.33400     0.00000  0.0
    294    289    290    291   5     0.00000    30.33400     0.00000  0.0
    294    289    290    298   5     0.00000    30.33400     0.00000  0.0
    288    289    294    293   5     0.00000    30.33400     0.00000  0.0
    290    289    294    293   5     0.00000    30.33400     0.00000  0.0
    289    290    291    292   5     0.00000    30.33400     0.00000  0.0
    289    290    291    299   5     0.00000    30.33400     0.00000  0.0
    298    290    291    292   5     0.00000    30.33400     0.00000  0.0
    298    290    291    299   5     0.00000    30.33400     0.00000  0.0
    290    291    292    293   5     0.00000    30.33400     0.00000  0.0
    290    291    292    300   5     0.00000    30.33400     0.00000  0.0
    299    291    292    293   5     0.00000    30.33400     0.00000  0.0
    299    291    292    300   5     0.00000    30.33400     0.00000  0.0
    291    292    293    294   5     0.00000    30.33400     0.00000  0.0
    291    292    293    301   5     0.00000    30.33400     0.00000  0.0
    300    292    293    294   5     0.00000    30.33400     0.00000  0.0
    300    292    293    301   5     0.00000    30.33400     0.00000  0.0
    292    293    294    289   5     0.00000    30.33400     0.00000  0.0
    301    293    294    289   5     0.00000    30.33400     0.00000  0.0

[ dihedrals ]
; Improper dihedrals
; h   i   j   k   funct
      2      4      3      8   5     0.00000    33.47200     0.00000  0.0
      3      5      4     12   5     0.00000     9.20480     0.00000  0.0
      4      6      5     13   5     0.00000     9.20480     0.00000  0.0
      5      7      6     14   5     0.00000     9.20480     0.00000  0.0
      6      8      7     15   5     0.00000     9.20480     0.00000  0.0
     18     20     19     24   5     0.00000    33.47200     0.00000  0.0
     19     21     20     28   5     0.00000     9.20480     0.00000  0.0
     20     22     21     29   5     0.00000     9.20480     0.00000  0.0
     21     23     22     30   5     0.00000     9.20480     0.00000  0.0
     22     24     23     31   5     0.00000     9.20480     0.00000  0.0
     33     35     34     39   5     0.00000    33.47200     0.00000  0.0
     34     36     35     43   5     0.00000     9.20480     0.00000  0.0
     35     37     36     44   5     0.00000     9.20480     0.00000  0.0
     36     38     37     45   5     0.00000     9.20480     0.00000  0.0
     37     39     38     46   5     0.00000     9.20480     0.00000  0.0
     48     50     49     54   5     0.00000    33.47200     0.00000  0.0
     49     51     50     58   5     0.00000     9.20480     0.00000  0.0
     50     52     51     59   5     0.00000     9.20480     0.00000  0.0
     51     53     52     60   5     0.00000     9.20480     0.00000  0.0
     52     54     53     61   5     0.00000     9.20480     0.00000  0.0
     63     65     64     69   5     0.00000    33.47200     0.00000  0.0
     64     66     65     73   5     0.00000     9.20480     0.00000  0.0
     65     67     66     74   5     0.00000     9.20480     0.00000  0.0
     66     68     67     75   5     0.00000     9.20480     0.00000  0.0
     67     69     68     76   5     0.00000     9.20480     0.00000  0.0
     78     80     79     84   5     0.00000    33.47200     0.00000  0.0
     79     81     80     88   5     0.00000     9.20480     0.00000  0.0
     80     82     81     89   5     0.00000     9.20480     0.00000  0.0
     81     83     82     90   5     0.00000     9.20480     0.00000  0.0
     82     84     83     91   5     0.00000     9.20480     0.00000  0.0
     93     95     94     99   5     0.00000    33.47200     0.00000  0.0
     94     96     95    103   5     0.00000     9.20480     0.00000  0.0
     95     97     96    104   5     0.00000     9.20480     0.00000  0.0
     96     98     97    105   5     0.00000     9.20480     0.00000  0.0
     97     99     98    106   5     0.00000     9.20480     0.00000  0.0
    108    110    109    114   5     0.00000    33.47200     0.00000  0.0
    109    111    110    118   5     0.00000     9.20480     0.00000  0.0
    110    112    111    119   5     0.00000     9.20480     0.00000  0.0
    111    113    112    120   5     0.00000     9.20480     0.00000  0.0
    112    114    113    121   5     0.00000     9.20480     0.00000  0.0
    123    125    124    129   5     0.00000    33.47200     0.00000  0.0
    124    126    125    133   5     0.00000     9.20480     0.00000  0.0
    125    127    126    134   5     0.00000     9.20480     0.00000  0.0
    126    128    127    135   5     0.00000     9.20480     0.00000  0.0
    127    129    128    136   5     0.00000     9.20480     0.00000  0.0
    138    140    139    144   5     0.00000    33.47200     0.00000  0.0
    139    141    140    148   5     0.00000     9.20480     0.00000  0.0
    140    142    141    149   5     0.00000     9.20480     0.00000  0.0
    141    143    142    150   5     0.00000     9.20480     0.00000  0.0
    142    144    143    151   5     0.00000     9.20480     0.00000  0.0
    153    155    154    159   5     0.00000    33.47200     0.00000  0.0
    154    156    155    163   5     0.00000     9.20480     0.00000  0.0
    155    157    156    164   5     0.00000     9.20480     0.00000  0.0
    156    158    157    165   5     0.00000     9.20480     0.00000  0.0
    157    159    158    166   5     0.00000     9.20480     0.00000  0.0
    168    170    169    174   5     0.00000    33.47200     0.00000  0.0
    169    171    170    178   5     0.00000     9.20480     0.00000  0.0
    170    172    171    179   5     0.00000     9.20480     0.00000  0.0
    171    173    172    180   5     0.00000     9.20480     0.00000  0.0
    172    174    173    181   5     0.00000     9.20480     0.00000  0.0
    183    185    184    189   5     0.00000    33.47200     0.00000  0.0
    184    186    185    193   5     0.00000     9.20480     0.00000  0.0
    185    187    186    194   5     0.00000     9.20480     0.00000  0.0
    186    188    187    195   5     0.00000     9.20480     0.00000  0.0
    187    189    188    196   5     0.00000     9.20480     0.00000  0.0
    198    200    199    204   5     0.00000    33.47200     0.00000  0.0
    199    201    200    208   5     0.00000     9.20480     0.00000  0.0
    200    202    201    209   5     0.00000     9.20480     0.00000  0.0
    201    203    202    210   5     0.00000     9.20480     0.00000  0.0
    202    204    203    211   5     0.00000     9.20480     0.00000  0.0
    213    215    214    219   5     0.00000    33.47200     0.00000  0.0
    214    216    215    223   5     0.00000     9.20480     0.00000  0.0
    215    217    216    224   5     0.00000     9.20480     0.00000  0.0
    216    218    217    225   5     0.00000     9.20480     0.00000  0.0
    217    219    218    226   5     0.00000     9.20480     0.00000  0.0
    228    230    229    234   5     0.00000    33.47200     0.00000  0.0
    229    231    230    238   5     0.00000     9.20480     0.00000  0.0
    230    232    231    239   5     0.00000     9.20480     0.00000  0.0
    231    233    232    240   5     0.00000     9.20480     0.00000  0.0
    232    234    233    241   5     0.00000     9.20480     0.00000  0.0
    243    245    244    249   5     0.00000    33.47200     0.00000  0.0
    244    246    245    253   5     0.00000     9.20480     0.00000  0.0
    245    247    246    254   5     0.00000     9.20480     0.00000  0.0
    246    248    247    255   5     0.00000     9.20480     0.00000  0.0
    247    249    248    256   5     0.00000     9.20480     0.00000  0.0
    258    260    259    264   5     0.00000    33.47200     0.00000  0.0
    259    261    260    268   5     0.00000     9.20480     0.00000  0.0
    260    262    261    269   5     0.00000     9.20480     0.00000  0.0
    261    263    262    270   5     0.00000     9.20480     0.00000  0.0
    262    264    263    271   5     0.00000     9.20480     0.00000  0.0
    273    275    274    279   5     0.00000    33.47200     0.00000  0.0
    274    276    275    283   5     0.00000     9.20480     0.00000  0.0
    275    277    276    284   5     0.00000     9.20480     0.00000  0.0
    276    278    277    285   5     0.00000     9.20480     0.00000  0.0
    277    279    278    286   5     0.00000     9.20480     0.00000  0.0
    288    290    289    294   5     0.00000    33.47200     0.00000  0.0
    289    291    290    298   5     0.00000     9.20480     0.00000  0.0
    290    292    291    299   5     0.00000     9.20480     0.00000  0.0
    291    293    292    300   5     0.00000     9.20480     0.00000  0.0
    292    294    293    301   5     0.00000     9.20480     0.00000  0.0
