;
; Gromacs include topology (itp) file.
; For Molecular Group XYZ
; Force field scheme: opls2005
; Produced from DL_FIELD v4.11
;


[ moleculetype ]
; name    nrexcl
XYZ    3

[ atoms ]
; nr   type   resnr   residu    atom    cgnr    charge    mass
    1        CT    1  MOL      C1     1  -0.1800000   12.0115
    2        CT    1  MOL      C2     2   0.2050000   12.0115
    3       OAL    1  MOL      O3     3  -0.6830000   15.9994
    4        CT    1  MOL      C4     4   0.1400000   12.0115
    5        OS    1  MOL      O5     5  -0.4000000   15.9994
    6        CT    1  MOL      C6     6   0.1400000   12.0115
    7        CT    1  MOL      C7     7  -0.1200000   12.0115
    8        CT    1  MOL      C8     8   0.1400000   12.0115
    9        OS    1  MOL      O9     9  -0.4000000   15.9994
   10        CO    1  MOL     C10    10   0.2647000   12.0115
   11       OAL    1  MOL     O11    11  -0.5827000   15.9994
   12        CT    1  MOL     C12    12   0.1400000   12.0115
   13        OS    1  MOL     O13    13  -0.4000000   15.9994
   14        HC    1  MOL     H14    14   0.0600000    1.0080
   15        HC    1  MOL     H15    15   0.0600000    1.0080
   16        HC    1  MOL     H16    16   0.0600000    1.0080
   17        HO    1  MOL     H17    17   0.4180000    1.0080
   18        HC    1  MOL     H18    18   0.0300000    1.0080
   19        HC    1  MOL     H19    19   0.0300000    1.0080
   20        HC    1  MOL     H20    20   0.0300000    1.0080
   21        HC    1  MOL     H21    21   0.0300000    1.0080
   22        HC    1  MOL     H22    22   0.0600000    1.0080
   23        HC    1  MOL     H23    23   0.0600000    1.0080
   24        HC    1  MOL     H24    24   0.0300000    1.0080
   25        HC    1  MOL     H25    25   0.0300000    1.0080
   26        HC    1  MOL     H26    26   0.1000000    1.0080
   27        HO    1  MOL     H27    27   0.4180000    1.0080
   28        HC    1  MOL     H28    28   0.0300000    1.0080
   29        HC    1  MOL     H29    29   0.0300000    1.0080
   30        HC    1  MOL     H30    30   0.0600000    1.0080
   31        CT    1  MOL     C31    31   0.1400000   12.0115
   32        CT    1  MOL     C32    32   0.2050000   12.0115
   33       OAL    1  MOL     O33    33  -0.6830000   15.9994
   34        CT    1  MOL     C34    34   0.1400000   12.0115
   35        OS    1  MOL     O35    35  -0.4000000   15.9994
   36        CT    1  MOL     C36    36   0.1400000   12.0115
   37        CT    1  MOL     C37    37  -0.1200000   12.0115
   38        CT    1  MOL     C38    38   0.1400000   12.0115
   39        OS    1  MOL     O39    39  -0.4000000   15.9994
   40        CO    1  MOL     C40    40   0.2647000   12.0115
   41       OAL    1  MOL     O41    41  -0.5827000   15.9994
   42        CT    1  MOL     C42    42   0.1400000   12.0115
   43        OS    1  MOL     O43    43  -0.4000000   15.9994
   44        HC    1  MOL     H44    44   0.0300000    1.0080
   45        HC    1  MOL     H45    45   0.0300000    1.0080
   46        HC    1  MOL     H46    46   0.0600000    1.0080
   47        HO    1  MOL     H47    47   0.4180000    1.0080
   48        HC    1  MOL     H48    48   0.0300000    1.0080
   49        HC    1  MOL     H49    49   0.0300000    1.0080
   50        HC    1  MOL     H50    50   0.0300000    1.0080
   51        HC    1  MOL     H51    51   0.0300000    1.0080
   52        HC    1  MOL     H52    52   0.0600000    1.0080
   53        HC    1  MOL     H53    53   0.0600000    1.0080
   54        HC    1  MOL     H54    54   0.0300000    1.0080
   55        HC    1  MOL     H55    55   0.0300000    1.0080
   56        HC    1  MOL     H56    56   0.1000000    1.0080
   57        HO    1  MOL     H57    57   0.4180000    1.0080
   58        HC    1  MOL     H58    58   0.0300000    1.0080
   59        HC    1  MOL     H59    59   0.0300000    1.0080
   60        CT    1  MOL     C60    60   0.1400000   12.0115
   61        CT    1  MOL     C61    61   0.2050000   12.0115
   62       OAL    1  MOL     O62    62  -0.6830000   15.9994
   63        CT    1  MOL     C63    63   0.1400000   12.0115
   64        OS    1  MOL     O64    64  -0.4000000   15.9994
   65        CT    1  MOL     C65    65   0.1400000   12.0115
   66        CT    1  MOL     C66    66  -0.1200000   12.0115
   67        CT    1  MOL     C67    67   0.1400000   12.0115
   68        OS    1  MOL     O68    68  -0.4000000   15.9994
   69        CO    1  MOL     C69    69   0.2647000   12.0115
   70       OAL    1  MOL     O70    70  -0.5827000   15.9994
   71        CT    1  MOL     C71    71   0.1400000   12.0115
   72        OS    1  MOL     O72    72  -0.4000000   15.9994
   73        HC    1  MOL     H73    73   0.0300000    1.0080
   74        HC    1  MOL     H74    74   0.0300000    1.0080
   75        HC    1  MOL     H75    75   0.0600000    1.0080
   76        HO    1  MOL     H76    76   0.4180000    1.0080
   77        HC    1  MOL     H77    77   0.0300000    1.0080
   78        HC    1  MOL     H78    78   0.0300000    1.0080
   79        HC    1  MOL     H79    79   0.0300000    1.0080
   80        HC    1  MOL     H80    80   0.0300000    1.0080
   81        HC    1  MOL     H81    81   0.0600000    1.0080
   82        HC    1  MOL     H82    82   0.0600000    1.0080
   83        HC    1  MOL     H83    83   0.0300000    1.0080
   84        HC    1  MOL     H84    84   0.0300000    1.0080
   85        HC    1  MOL     H85    85   0.1000000    1.0080
   86        HO    1  MOL     H86    86   0.4180000    1.0080
   87        HC    1  MOL     H87    87   0.0300000    1.0080
   88        HC    1  MOL     H88    88   0.0300000    1.0080
   89        CT    1  MOL     C89    89   0.1400000   12.0115
   90        CT    1  MOL     C90    90   0.2050000   12.0115
   91       OAL    1  MOL     O91    91  -0.6830000   15.9994
   92        CT    1  MOL     C92    92   0.1400000   12.0115
   93        OS    1  MOL     O93    93  -0.4000000   15.9994
   94        CT    1  MOL     C94    94   0.1400000   12.0115
   95        CT    1  MOL     C95    95  -0.1200000   12.0115
   96        CT    1  MOL     C96    96   0.1400000   12.0115
   97        OS    1  MOL     O97    97  -0.4000000   15.9994
   98        CO    1  MOL     C98    98   0.2647000   12.0115
   99       OAL    1  MOL     O99    99  -0.5827000   15.9994
  100        CT    1  MOL    C100   100   0.1400000   12.0115
  101        OS    1  MOL    O101   101  -0.4000000   15.9994
  102        HC    1  MOL    H102   102   0.0300000    1.0080
  103        HC    1  MOL    H103   103   0.0300000    1.0080
  104        HC    1  MOL    H104   104   0.0600000    1.0080
  105        HO    1  MOL    H105   105   0.4180000    1.0080
  106        HC    1  MOL    H106   106   0.0300000    1.0080
  107        HC    1  MOL    H107   107   0.0300000    1.0080
  108        HC    1  MOL    H108   108   0.0300000    1.0080
  109        HC    1  MOL    H109   109   0.0300000    1.0080
  110        HC    1  MOL    H110   110   0.0600000    1.0080
  111        HC    1  MOL    H111   111   0.0600000    1.0080
  112        HC    1  MOL    H112   112   0.0300000    1.0080
  113        HC    1  MOL    H113   113   0.0300000    1.0080
  114        HC    1  MOL    H114   114   0.1000000    1.0080
  115        HO    1  MOL    H115   115   0.4180000    1.0080
  116        HC    1  MOL    H116   116   0.0300000    1.0080
  117        HC    1  MOL    H117   117   0.0300000    1.0080
  118        CT    1  MOL    C118   118   0.1400000   12.0115
  119        CT    1  MOL    C119   119   0.2050000   12.0115
  120       OAL    1  MOL    O120   120  -0.6830000   15.9994
  121        CT    1  MOL    C121   121   0.1400000   12.0115
  122        OS    1  MOL    O122   122  -0.4000000   15.9994
  123        CT    1  MOL    C123   123   0.1400000   12.0115
  124        CT    1  MOL    C124   124  -0.1200000   12.0115
  125        CT    1  MOL    C125   125   0.1400000   12.0115
  126        OS    1  MOL    O126   126  -0.4000000   15.9994
  127        CO    1  MOL    C127   127   0.2647000   12.0115
  128       OAL    1  MOL    O128   128  -0.5827000   15.9994
  129        CT    1  MOL    C129   129   0.1400000   12.0115
  130        OS    1  MOL    O130   130  -0.4000000   15.9994
  131        HC    1  MOL    H131   131   0.0300000    1.0080
  132        HC    1  MOL    H132   132   0.0300000    1.0080
  133        HC    1  MOL    H133   133   0.0600000    1.0080
  134        HO    1  MOL    H134   134   0.4180000    1.0080
  135        HC    1  MOL    H135   135   0.0300000    1.0080
  136        HC    1  MOL    H136   136   0.0300000    1.0080
  137        HC    1  MOL    H137   137   0.0300000    1.0080
  138        HC    1  MOL    H138   138   0.0300000    1.0080
  139        HC    1  MOL    H139   139   0.0600000    1.0080
  140        HC    1  MOL    H140   140   0.0600000    1.0080
  141        HC    1  MOL    H141   141   0.0300000    1.0080
  142        HC    1  MOL    H142   142   0.0300000    1.0080
  143        HC    1  MOL    H143   143   0.1000000    1.0080
  144        HO    1  MOL    H144   144   0.4180000    1.0080
  145        HC    1  MOL    H145   145   0.0300000    1.0080
  146        HC    1  MOL    H146   146   0.0300000    1.0080
  147        CT    1  MOL    C147   147   0.1400000   12.0115
  148        CT    1  MOL    C148   148   0.2050000   12.0115
  149       OAL    1  MOL    O149   149  -0.6830000   15.9994
  150        CT    1  MOL    C150   150   0.1400000   12.0115
  151        OS    1  MOL    O151   151  -0.4000000   15.9994
  152        CT    1  MOL    C152   152   0.1400000   12.0115
  153        CT    1  MOL    C153   153  -0.1200000   12.0115
  154        CT    1  MOL    C154   154   0.1400000   12.0115
  155        OS    1  MOL    O155   155  -0.4000000   15.9994
  156        CO    1  MOL    C156   156   0.2647000   12.0115
  157       OAL    1  MOL    O157   157  -0.5827000   15.9994
  158        CT    1  MOL    C158   158   0.1400000   12.0115
  159        OS    1  MOL    O159   159  -0.4000000   15.9994
  160        HC    1  MOL    H160   160   0.0300000    1.0080
  161        HC    1  MOL    H161   161   0.0300000    1.0080
  162        HC    1  MOL    H162   162   0.0600000    1.0080
  163        HO    1  MOL    H163   163   0.4180000    1.0080
  164        HC    1  MOL    H164   164   0.0300000    1.0080
  165        HC    1  MOL    H165   165   0.0300000    1.0080
  166        HC    1  MOL    H166   166   0.0300000    1.0080
  167        HC    1  MOL    H167   167   0.0300000    1.0080
  168        HC    1  MOL    H168   168   0.0600000    1.0080
  169        HC    1  MOL    H169   169   0.0600000    1.0080
  170        HC    1  MOL    H170   170   0.0300000    1.0080
  171        HC    1  MOL    H171   171   0.0300000    1.0080
  172        HC    1  MOL    H172   172   0.1000000    1.0080
  173        HO    1  MOL    H173   173   0.4180000    1.0080
  174        HC    1  MOL    H174   174   0.0300000    1.0080
  175        HC    1  MOL    H175   175   0.0300000    1.0080
  176        CT    1  MOL    C176   176   0.1400000   12.0115
  177        CT    1  MOL    C177   177   0.2050000   12.0115
  178       OAL    1  MOL    O178   178  -0.6830000   15.9994
  179        CT    1  MOL    C179   179   0.1400000   12.0115
  180        OS    1  MOL    O180   180  -0.4000000   15.9994
  181        CT    1  MOL    C181   181   0.1400000   12.0115
  182        CT    1  MOL    C182   182  -0.1200000   12.0115
  183        CT    1  MOL    C183   183   0.1400000   12.0115
  184        OS    1  MOL    O184   184  -0.4000000   15.9994
  185        CO    1  MOL    C185   185   0.2647000   12.0115
  186       OAL    1  MOL    O186   186  -0.5827000   15.9994
  187        CT    1  MOL    C187   187   0.1400000   12.0115
  188        OS    1  MOL    O188   188  -0.4000000   15.9994
  189        HC    1  MOL    H189   189   0.0300000    1.0080
  190        HC    1  MOL    H190   190   0.0300000    1.0080
  191        HC    1  MOL    H191   191   0.0600000    1.0080
  192        HO    1  MOL    H192   192   0.4180000    1.0080
  193        HC    1  MOL    H193   193   0.0300000    1.0080
  194        HC    1  MOL    H194   194   0.0300000    1.0080
  195        HC    1  MOL    H195   195   0.0300000    1.0080
  196        HC    1  MOL    H196   196   0.0300000    1.0080
  197        HC    1  MOL    H197   197   0.0600000    1.0080
  198        HC    1  MOL    H198   198   0.0600000    1.0080
  199        HC    1  MOL    H199   199   0.0300000    1.0080
  200        HC    1  MOL    H200   200   0.0300000    1.0080
  201        HC    1  MOL    H201   201   0.1000000    1.0080
  202        HO    1  MOL    H202   202   0.4180000    1.0080
  203        HC    1  MOL    H203   203   0.0300000    1.0080
  204        HC    1  MOL    H204   204   0.0300000    1.0080
  205        CT    1  MOL    C205   205   0.1400000   12.0115
  206        CT    1  MOL    C206   206   0.2050000   12.0115
  207       OAL    1  MOL    O207   207  -0.6830000   15.9994
  208        CT    1  MOL    C208   208   0.1400000   12.0115
  209        OS    1  MOL    O209   209  -0.4000000   15.9994
  210        CT    1  MOL    C210   210   0.1400000   12.0115
  211        CT    1  MOL    C211   211  -0.1200000   12.0115
  212        CT    1  MOL    C212   212   0.1400000   12.0115
  213        OS    1  MOL    O213   213  -0.4000000   15.9994
  214        CO    1  MOL    C214   214   0.2647000   12.0115
  215       OAL    1  MOL    O215   215  -0.5827000   15.9994
  216        CT    1  MOL    C216   216   0.1400000   12.0115
  217        OS    1  MOL    O217   217  -0.4000000   15.9994
  218        HC    1  MOL    H218   218   0.0300000    1.0080
  219        HC    1  MOL    H219   219   0.0300000    1.0080
  220        HC    1  MOL    H220   220   0.0600000    1.0080
  221        HO    1  MOL    H221   221   0.4180000    1.0080
  222        HC    1  MOL    H222   222   0.0300000    1.0080
  223        HC    1  MOL    H223   223   0.0300000    1.0080
  224        HC    1  MOL    H224   224   0.0300000    1.0080
  225        HC    1  MOL    H225   225   0.0300000    1.0080
  226        HC    1  MOL    H226   226   0.0600000    1.0080
  227        HC    1  MOL    H227   227   0.0600000    1.0080
  228        HC    1  MOL    H228   228   0.0300000    1.0080
  229        HC    1  MOL    H229   229   0.0300000    1.0080
  230        HC    1  MOL    H230   230   0.1000000    1.0080
  231        HO    1  MOL    H231   231   0.4180000    1.0080
  232        HC    1  MOL    H232   232   0.0300000    1.0080
  233        HC    1  MOL    H233   233   0.0300000    1.0080
  234        CT    1  MOL    C234   234   0.1400000   12.0115
  235        CT    1  MOL    C235   235   0.2050000   12.0115
  236       OAL    1  MOL    O236   236  -0.6830000   15.9994
  237        CT    1  MOL    C237   237   0.1400000   12.0115
  238        OS    1  MOL    O238   238  -0.4000000   15.9994
  239        CT    1  MOL    C239   239   0.1400000   12.0115
  240        CT    1  MOL    C240   240  -0.1200000   12.0115
  241        CT    1  MOL    C241   241   0.1400000   12.0115
  242        OS    1  MOL    O242   242  -0.4000000   15.9994
  243        CO    1  MOL    C243   243   0.2647000   12.0115
  244       OAL    1  MOL    O244   244  -0.5827000   15.9994
  245        CT    1  MOL    C245   245   0.1400000   12.0115
  246        OS    1  MOL    O246   246  -0.4000000   15.9994
  247        HC    1  MOL    H247   247   0.0300000    1.0080
  248        HC    1  MOL    H248   248   0.0300000    1.0080
  249        HC    1  MOL    H249   249   0.0600000    1.0080
  250        HO    1  MOL    H250   250   0.4180000    1.0080
  251        HC    1  MOL    H251   251   0.0300000    1.0080
  252        HC    1  MOL    H252   252   0.0300000    1.0080
  253        HC    1  MOL    H253   253   0.0300000    1.0080
  254        HC    1  MOL    H254   254   0.0300000    1.0080
  255        HC    1  MOL    H255   255   0.0600000    1.0080
  256        HC    1  MOL    H256   256   0.0600000    1.0080
  257        HC    1  MOL    H257   257   0.0300000    1.0080
  258        HC    1  MOL    H258   258   0.0300000    1.0080
  259        HC    1  MOL    H259   259   0.1000000    1.0080
  260        HO    1  MOL    H260   260   0.4180000    1.0080
  261        HC    1  MOL    H261   261   0.0300000    1.0080
  262        HC    1  MOL    H262   262   0.0300000    1.0080
  263        CT    1  MOL    C263   263   0.1400000   12.0115
  264        CT    1  MOL    C264   264   0.2050000   12.0115
  265       OAL    1  MOL    O265   265  -0.6830000   15.9994
  266        CT    1  MOL    C266   266   0.1400000   12.0115
  267        OS    1  MOL    O267   267  -0.4000000   15.9994
  268        CT    1  MOL    C268   268   0.1400000   12.0115
  269        CT    1  MOL    C269   269  -0.1200000   12.0115
  270        CT    1  MOL    C270   270   0.1400000   12.0115
  271        OS    1  MOL    O271   271  -0.4000000   15.9994
  272        CO    1  MOL    C272   272   0.2647000   12.0115
  273       OAL    1  MOL    O273   273  -0.5827000   15.9994
  274        CT    1  MOL    C274   274   0.1400000   12.0115
  275        OS    1  MOL    O275   275  -0.4000000   15.9994
  276        HC    1  MOL    H276   276   0.0300000    1.0080
  277        HC    1  MOL    H277   277   0.0300000    1.0080
  278        HC    1  MOL    H278   278   0.0600000    1.0080
  279        HO    1  MOL    H279   279   0.4180000    1.0080
  280        HC    1  MOL    H280   280   0.0300000    1.0080
  281        HC    1  MOL    H281   281   0.0300000    1.0080
  282        HC    1  MOL    H282   282   0.0300000    1.0080
  283        HC    1  MOL    H283   283   0.0300000    1.0080
  284        HC    1  MOL    H284   284   0.0600000    1.0080
  285        HC    1  MOL    H285   285   0.0600000    1.0080
  286        HC    1  MOL    H286   286   0.0300000    1.0080
  287        HC    1  MOL    H287   287   0.0300000    1.0080
  288        HC    1  MOL    H288   288   0.1000000    1.0080
  289        HO    1  MOL    H289   289   0.4180000    1.0080
  290        HC    1  MOL    H290   290   0.0300000    1.0080
  291        HC    1  MOL    H291   291   0.0300000    1.0080
  292        CT    1  MOL    C292   292   0.1400000   12.0115
  293        CT    1  MOL    C293   293   0.2050000   12.0115
  294       OAL    1  MOL    O294   294  -0.6830000   15.9994
  295        CT    1  MOL    C295   295   0.1400000   12.0115
  296        OS    1  MOL    O296   296  -0.4000000   15.9994
  297        CT    1  MOL    C297   297   0.1400000   12.0115
  298        CT    1  MOL    C298   298  -0.1200000   12.0115
  299        CT    1  MOL    C299   299   0.1400000   12.0115
  300        OS    1  MOL    O300   300  -0.4000000   15.9994
  301        CO    1  MOL    C301   301   0.2647000   12.0115
  302       OAL    1  MOL    O302   302  -0.5827000   15.9994
  303        CT    1  MOL    C303   303   0.1400000   12.0115
  304        OS    1  MOL    O304   304  -0.4000000   15.9994
  305        HC    1  MOL    H305   305   0.0300000    1.0080
  306        HC    1  MOL    H306   306   0.0300000    1.0080
  307        HC    1  MOL    H307   307   0.0600000    1.0080
  308        HO    1  MOL    H308   308   0.4180000    1.0080
  309        HC    1  MOL    H309   309   0.0300000    1.0080
  310        HC    1  MOL    H310   310   0.0300000    1.0080
  311        HC    1  MOL    H311   311   0.0300000    1.0080
  312        HC    1  MOL    H312   312   0.0300000    1.0080
  313        HC    1  MOL    H313   313   0.0600000    1.0080
  314        HC    1  MOL    H314   314   0.0600000    1.0080
  315        HC    1  MOL    H315   315   0.0300000    1.0080
  316        HC    1  MOL    H316   316   0.0300000    1.0080
  317        HC    1  MOL    H317   317   0.1000000    1.0080
  318        HO    1  MOL    H318   318   0.4180000    1.0080
  319        HC    1  MOL    H319   319   0.0300000    1.0080
  320        HC    1  MOL    H320   320   0.0300000    1.0080
  321        CT    1  MOL    C321   321   0.1400000   12.0115
  322        CT    1  MOL    C322   322   0.2050000   12.0115
  323       OAL    1  MOL    O323   323  -0.6830000   15.9994
  324        CT    1  MOL    C324   324   0.1400000   12.0115
  325        OS    1  MOL    O325   325  -0.4000000   15.9994
  326        CT    1  MOL    C326   326   0.1400000   12.0115
  327        CT    1  MOL    C327   327  -0.1200000   12.0115
  328        CT    1  MOL    C328   328   0.1400000   12.0115
  329        OS    1  MOL    O329   329  -0.4000000   15.9994
  330        CO    1  MOL    C330   330   0.2647000   12.0115
  331       OAL    1  MOL    O331   331  -0.5827000   15.9994
  332        CT    1  MOL    C332   332   0.1400000   12.0115
  333        OS    1  MOL    O333   333  -0.4000000   15.9994
  334        HC    1  MOL    H334   334   0.0300000    1.0080
  335        HC    1  MOL    H335   335   0.0300000    1.0080
  336        HC    1  MOL    H336   336   0.0600000    1.0080
  337        HO    1  MOL    H337   337   0.4180000    1.0080
  338        HC    1  MOL    H338   338   0.0300000    1.0080
  339        HC    1  MOL    H339   339   0.0300000    1.0080
  340        HC    1  MOL    H340   340   0.0300000    1.0080
  341        HC    1  MOL    H341   341   0.0300000    1.0080
  342        HC    1  MOL    H342   342   0.0600000    1.0080
  343        HC    1  MOL    H343   343   0.0600000    1.0080
  344        HC    1  MOL    H344   344   0.0300000    1.0080
  345        HC    1  MOL    H345   345   0.0300000    1.0080
  346        HC    1  MOL    H346   346   0.1000000    1.0080
  347        HO    1  MOL    H347   347   0.4180000    1.0080
  348        HC    1  MOL    H348   348   0.0300000    1.0080
  349        HC    1  MOL    H349   349   0.0300000    1.0080
  350        CT    1  MOL    C350   350   0.1400000   12.0115
  351        CT    1  MOL    C351   351   0.2050000   12.0115
  352       OAL    1  MOL    O352   352  -0.6830000   15.9994
  353        CT    1  MOL    C353   353   0.1400000   12.0115
  354        OS    1  MOL    O354   354  -0.4000000   15.9994
  355        CT    1  MOL    C355   355   0.1400000   12.0115
  356        CT    1  MOL    C356   356  -0.1200000   12.0115
  357        CT    1  MOL    C357   357   0.1400000   12.0115
  358        OS    1  MOL    O358   358  -0.4000000   15.9994
  359        CO    1  MOL    C359   359   0.2647000   12.0115
  360       OAL    1  MOL    O360   360  -0.5827000   15.9994
  361        CT    1  MOL    C361   361   0.1400000   12.0115
  362        OS    1  MOL    O362   362  -0.4000000   15.9994
  363        HC    1  MOL    H363   363   0.0300000    1.0080
  364        HC    1  MOL    H364   364   0.0300000    1.0080
  365        HC    1  MOL    H365   365   0.0600000    1.0080
  366        HO    1  MOL    H366   366   0.4180000    1.0080
  367        HC    1  MOL    H367   367   0.0300000    1.0080
  368        HC    1  MOL    H368   368   0.0300000    1.0080
  369        HC    1  MOL    H369   369   0.0300000    1.0080
  370        HC    1  MOL    H370   370   0.0300000    1.0080
  371        HC    1  MOL    H371   371   0.0600000    1.0080
  372        HC    1  MOL    H372   372   0.0600000    1.0080
  373        HC    1  MOL    H373   373   0.0300000    1.0080
  374        HC    1  MOL    H374   374   0.0300000    1.0080
  375        HC    1  MOL    H375   375   0.1000000    1.0080
  376        HO    1  MOL    H376   376   0.4180000    1.0080
  377        HC    1  MOL    H377   377   0.0300000    1.0080
  378        HC    1  MOL    H378   378   0.0300000    1.0080
  379        CT    1  MOL    C379   379   0.1400000   12.0115
  380        CT    1  MOL    C380   380   0.2050000   12.0115
  381       OAL    1  MOL    O381   381  -0.6830000   15.9994
  382        CT    1  MOL    C382   382   0.1400000   12.0115
  383        OS    1  MOL    O383   383  -0.4000000   15.9994
  384        CT    1  MOL    C384   384   0.1400000   12.0115
  385        CT    1  MOL    C385   385  -0.1200000   12.0115
  386        CT    1  MOL    C386   386   0.1400000   12.0115
  387        OS    1  MOL    O387   387  -0.4000000   15.9994
  388        CO    1  MOL    C388   388   0.2647000   12.0115
  389       OAL    1  MOL    O389   389  -0.5827000   15.9994
  390        CT    1  MOL    C390   390   0.1400000   12.0115
  391        OS    1  MOL    O391   391  -0.4000000   15.9994
  392        HC    1  MOL    H392   392   0.0300000    1.0080
  393        HC    1  MOL    H393   393   0.0300000    1.0080
  394        HC    1  MOL    H394   394   0.0600000    1.0080
  395        HO    1  MOL    H395   395   0.4180000    1.0080
  396        HC    1  MOL    H396   396   0.0300000    1.0080
  397        HC    1  MOL    H397   397   0.0300000    1.0080
  398        HC    1  MOL    H398   398   0.0300000    1.0080
  399        HC    1  MOL    H399   399   0.0300000    1.0080
  400        HC    1  MOL    H400   400   0.0600000    1.0080
  401        HC    1  MOL    H401   401   0.0600000    1.0080
  402        HC    1  MOL    H402   402   0.0300000    1.0080
  403        HC    1  MOL    H403   403   0.0300000    1.0080
  404        HC    1  MOL    H404   404   0.1000000    1.0080
  405        HO    1  MOL    H405   405   0.4180000    1.0080
  406        HC    1  MOL    H406   406   0.0300000    1.0080
  407        HC    1  MOL    H407   407   0.0300000    1.0080
  408        CT    1  MOL    C408   408   0.1400000   12.0115
  409        CT    1  MOL    C409   409   0.2050000   12.0115
  410       OAL    1  MOL    O410   410  -0.6830000   15.9994
  411        CT    1  MOL    C411   411   0.1400000   12.0115
  412        OS    1  MOL    O412   412  -0.4000000   15.9994
  413        CT    1  MOL    C413   413   0.1400000   12.0115
  414        CT    1  MOL    C414   414  -0.1200000   12.0115
  415        CT    1  MOL    C415   415   0.1400000   12.0115
  416        OS    1  MOL    O416   416  -0.4000000   15.9994
  417        CO    1  MOL    C417   417   0.2647000   12.0115
  418       OAL    1  MOL    O418   418  -0.5827000   15.9994
  419        CT    1  MOL    C419   419   0.1400000   12.0115
  420        OS    1  MOL    O420   420  -0.4000000   15.9994
  421        HC    1  MOL    H421   421   0.0300000    1.0080
  422        HC    1  MOL    H422   422   0.0300000    1.0080
  423        HC    1  MOL    H423   423   0.0600000    1.0080
  424        HO    1  MOL    H424   424   0.4180000    1.0080
  425        HC    1  MOL    H425   425   0.0300000    1.0080
  426        HC    1  MOL    H426   426   0.0300000    1.0080
  427        HC    1  MOL    H427   427   0.0300000    1.0080
  428        HC    1  MOL    H428   428   0.0300000    1.0080
  429        HC    1  MOL    H429   429   0.0600000    1.0080
  430        HC    1  MOL    H430   430   0.0600000    1.0080
  431        HC    1  MOL    H431   431   0.0300000    1.0080
  432        HC    1  MOL    H432   432   0.0300000    1.0080
  433        HC    1  MOL    H433   433   0.1000000    1.0080
  434        HO    1  MOL    H434   434   0.4180000    1.0080
  435        HC    1  MOL    H435   435   0.0300000    1.0080
  436        HC    1  MOL    H436   436   0.0300000    1.0080
  437        CT    1  MOL    C437   437   0.1400000   12.0115
  438        CT    1  MOL    C438   438   0.2050000   12.0115
  439       OAL    1  MOL    O439   439  -0.6830000   15.9994
  440        CT    1  MOL    C440   440   0.1400000   12.0115
  441        OS    1  MOL    O441   441  -0.4000000   15.9994
  442        CT    1  MOL    C442   442   0.1400000   12.0115
  443        CT    1  MOL    C443   443  -0.1200000   12.0115
  444        CT    1  MOL    C444   444   0.1400000   12.0115
  445        OS    1  MOL    O445   445  -0.4000000   15.9994
  446        CO    1  MOL    C446   446   0.2647000   12.0115
  447       OAL    1  MOL    O447   447  -0.5827000   15.9994
  448        CT    1  MOL    C448   448   0.1400000   12.0115
  449        OS    1  MOL    O449   449  -0.4000000   15.9994
  450        HC    1  MOL    H450   450   0.0300000    1.0080
  451        HC    1  MOL    H451   451   0.0300000    1.0080
  452        HC    1  MOL    H452   452   0.0600000    1.0080
  453        HO    1  MOL    H453   453   0.4180000    1.0080
  454        HC    1  MOL    H454   454   0.0300000    1.0080
  455        HC    1  MOL    H455   455   0.0300000    1.0080
  456        HC    1  MOL    H456   456   0.0300000    1.0080
  457        HC    1  MOL    H457   457   0.0300000    1.0080
  458        HC    1  MOL    H458   458   0.0600000    1.0080
  459        HC    1  MOL    H459   459   0.0600000    1.0080
  460        HC    1  MOL    H460   460   0.0300000    1.0080
  461        HC    1  MOL    H461   461   0.0300000    1.0080
  462        HC    1  MOL    H462   462   0.1000000    1.0080
  463        HO    1  MOL    H463   463   0.4180000    1.0080
  464        HC    1  MOL    H464   464   0.0300000    1.0080
  465        HC    1  MOL    H465   465   0.0300000    1.0080
  466        CT    1  MOL    C466   466   0.1400000   12.0115
  467        CT    1  MOL    C467   467   0.2050000   12.0115
  468       OAL    1  MOL    O468   468  -0.6830000   15.9994
  469        CT    1  MOL    C469   469   0.1400000   12.0115
  470        OS    1  MOL    O470   470  -0.4000000   15.9994
  471        CT    1  MOL    C471   471   0.1400000   12.0115
  472        CT    1  MOL    C472   472  -0.1200000   12.0115
  473        CT    1  MOL    C473   473   0.1400000   12.0115
  474        OS    1  MOL    O474   474  -0.4000000   15.9994
  475        CO    1  MOL    C475   475   0.2647000   12.0115
  476       OAL    1  MOL    O476   476  -0.5827000   15.9994
  477        CT    1  MOL    C477   477   0.1400000   12.0115
  478        OS    1  MOL    O478   478  -0.4000000   15.9994
  479        HC    1  MOL    H479   479   0.0300000    1.0080
  480        HC    1  MOL    H480   480   0.0300000    1.0080
  481        HC    1  MOL    H481   481   0.0600000    1.0080
  482        HO    1  MOL    H482   482   0.4180000    1.0080
  483        HC    1  MOL    H483   483   0.0300000    1.0080
  484        HC    1  MOL    H484   484   0.0300000    1.0080
  485        HC    1  MOL    H485   485   0.0300000    1.0080
  486        HC    1  MOL    H486   486   0.0300000    1.0080
  487        HC    1  MOL    H487   487   0.0600000    1.0080
  488        HC    1  MOL    H488   488   0.0600000    1.0080
  489        HC    1  MOL    H489   489   0.0300000    1.0080
  490        HC    1  MOL    H490   490   0.0300000    1.0080
  491        HC    1  MOL    H491   491   0.1000000    1.0080
  492        HO    1  MOL    H492   492   0.4180000    1.0080
  493        HC    1  MOL    H493   493   0.0300000    1.0080
  494        HC    1  MOL    H494   494   0.0300000    1.0080
  495        CT    1  MOL    C495   495   0.1400000   12.0115
  496        CT    1  MOL    C496   496   0.2050000   12.0115
  497       OAL    1  MOL    O497   497  -0.6830000   15.9994
  498        CT    1  MOL    C498   498   0.1400000   12.0115
  499        OS    1  MOL    O499   499  -0.4000000   15.9994
  500        CT    1  MOL    C500   500   0.1400000   12.0115
  501        CT    1  MOL    C501   501  -0.1200000   12.0115
  502        CT    1  MOL    C502   502   0.1400000   12.0115
  503        OS    1  MOL    O503   503  -0.4000000   15.9994
  504        CO    1  MOL    C504   504   0.2647000   12.0115
  505       OAL    1  MOL    O505   505  -0.5827000   15.9994
  506        CT    1  MOL    C506   506   0.1400000   12.0115
  507        OS    1  MOL    O507   507  -0.4000000   15.9994
  508        HC    1  MOL    H508   508   0.0300000    1.0080
  509        HC    1  MOL    H509   509   0.0300000    1.0080
  510        HC    1  MOL    H510   510   0.0600000    1.0080
  511        HO    1  MOL    H511   511   0.4180000    1.0080
  512        HC    1  MOL    H512   512   0.0300000    1.0080
  513        HC    1  MOL    H513   513   0.0300000    1.0080
  514        HC    1  MOL    H514   514   0.0300000    1.0080
  515        HC    1  MOL    H515   515   0.0300000    1.0080
  516        HC    1  MOL    H516   516   0.0600000    1.0080
  517        HC    1  MOL    H517   517   0.0600000    1.0080
  518        HC    1  MOL    H518   518   0.0300000    1.0080
  519        HC    1  MOL    H519   519   0.0300000    1.0080
  520        HC    1  MOL    H520   520   0.1000000    1.0080
  521        HO    1  MOL    H521   521   0.4180000    1.0080
  522        HC    1  MOL    H522   522   0.0300000    1.0080
  523        HC    1  MOL    H523   523   0.0300000    1.0080
  524        CT    1  MOL    C524   524   0.1400000   12.0115
  525        CT    1  MOL    C525   525   0.2050000   12.0115
  526       OAL    1  MOL    O526   526  -0.6830000   15.9994
  527        CT    1  MOL    C527   527   0.1400000   12.0115
  528        OS    1  MOL    O528   528  -0.4000000   15.9994
  529        CT    1  MOL    C529   529   0.1400000   12.0115
  530        CT    1  MOL    C530   530  -0.1200000   12.0115
  531        CT    1  MOL    C531   531   0.1400000   12.0115
  532        OS    1  MOL    O532   532  -0.4000000   15.9994
  533        CO    1  MOL    C533   533   0.2647000   12.0115
  534       OAL    1  MOL    O534   534  -0.5827000   15.9994
  535        CT    1  MOL    C535   535   0.1400000   12.0115
  536        OS    1  MOL    O536   536  -0.4000000   15.9994
  537        HC    1  MOL    H537   537   0.0300000    1.0080
  538        HC    1  MOL    H538   538   0.0300000    1.0080
  539        HC    1  MOL    H539   539   0.0600000    1.0080
  540        HO    1  MOL    H540   540   0.4180000    1.0080
  541        HC    1  MOL    H541   541   0.0300000    1.0080
  542        HC    1  MOL    H542   542   0.0300000    1.0080
  543        HC    1  MOL    H543   543   0.0300000    1.0080
  544        HC    1  MOL    H544   544   0.0300000    1.0080
  545        HC    1  MOL    H545   545   0.0600000    1.0080
  546        HC    1  MOL    H546   546   0.0600000    1.0080
  547        HC    1  MOL    H547   547   0.0300000    1.0080
  548        HC    1  MOL    H548   548   0.0300000    1.0080
  549        HC    1  MOL    H549   549   0.1000000    1.0080
  550        HO    1  MOL    H550   550   0.4180000    1.0080
  551        HC    1  MOL    H551   551   0.0300000    1.0080
  552        HC    1  MOL    H552   552   0.0300000    1.0080
  553        CT    1  MOL    C553   553   0.1400000   12.0115
  554        CT    1  MOL    C554   554   0.2050000   12.0115
  555       OAL    1  MOL    O555   555  -0.6830000   15.9994
  556        CT    1  MOL    C556   556   0.1400000   12.0115
  557        OS    1  MOL    O557   557  -0.4000000   15.9994
  558        CT    1  MOL    C558   558   0.1400000   12.0115
  559        CT    1  MOL    C559   559  -0.1200000   12.0115
  560        CT    1  MOL    C560   560   0.1400000   12.0115
  561        OS    1  MOL    O561   561  -0.4000000   15.9994
  562        CO    1  MOL    C562   562   0.2647000   12.0115
  563       OAL    1  MOL    O563   563  -0.5827000   15.9994
  564        CT    1  MOL    C564   564   0.1450000   12.0115
  565       OAL    1  MOL    O565   565  -0.6830000   15.9994
  566        HC    1  MOL    H566   566   0.0300000    1.0080
  567        HC    1  MOL    H567   567   0.0300000    1.0080
  568        HC    1  MOL    H568   568   0.0600000    1.0080
  569        HO    1  MOL    H569   569   0.4180000    1.0080
  570        HC    1  MOL    H570   570   0.0300000    1.0080
  571        HC    1  MOL    H571   571   0.0300000    1.0080
  572        HC    1  MOL    H572   572   0.0300000    1.0080
  573        HC    1  MOL    H573   573   0.0300000    1.0080
  574        HC    1  MOL    H574   574   0.0600000    1.0080
  575        HC    1  MOL    H575   575   0.0600000    1.0080
  576        HC    1  MOL    H576   576   0.0300000    1.0080
  577        HC    1  MOL    H577   577   0.0300000    1.0080
  578        HC    1  MOL    H578   578   0.1000000    1.0080
  579        HO    1  MOL    H579   579   0.4180000    1.0080
  580        HC    1  MOL    H580   580   0.0600000    1.0080
  581        HC    1  MOL    H581   581   0.0600000    1.0080
  582        HO    1  MOL    H582   582   0.4180000    1.0080

[ bonds ]
      1      2   1      0.1529 224262.4000
      1     14   1      0.1090 284512.0000
      1     15   1      0.1090 284512.0000
      1     30   1      0.1090 284512.0000
      2      3   1      0.1410 267776.0000
      2      4   1      0.1529 224262.4000
      2     16   1      0.1090 284512.0000
      3     17   1      0.0945 462750.4000
      4      5   1      0.1410 267776.0000
      4     18   1      0.1090 284512.0000
      4     19   1      0.1090 284512.0000
      5      6   1      0.1410 267776.0000
      6      7   1      0.1529 224262.4000
      6     20   1      0.1090 284512.0000
      6     21   1      0.1090 284512.0000
      7      8   1      0.1529 224262.4000
      7     22   1      0.1090 284512.0000
      7     23   1      0.1090 284512.0000
      8      9   1      0.1410 267776.0000
      8     24   1      0.1090 284512.0000
      8     25   1      0.1090 284512.0000
      9     10   1      0.1380 267776.0000
     10     11   1      0.1407 317984.0000
     10     12   1      0.1527 209200.0000
     10     26   1      0.1090 284512.0000
     11     27   1      0.0945 462750.4000
     12     13   1      0.1410 267776.0000
     12     28   1      0.1090 284512.0000
     12     29   1      0.1090 284512.0000
     13     31   1      0.1410 267776.0000
     31     32   1      0.1529 224262.4000
     31     44   1      0.1090 284512.0000
     31     45   1      0.1090 284512.0000
     32     33   1      0.1410 267776.0000
     32     34   1      0.1529 224262.4000
     32     46   1      0.1090 284512.0000
     33     47   1      0.0945 462750.4000
     34     35   1      0.1410 267776.0000
     34     48   1      0.1090 284512.0000
     34     49   1      0.1090 284512.0000
     35     36   1      0.1410 267776.0000
     36     37   1      0.1529 224262.4000
     36     50   1      0.1090 284512.0000
     36     51   1      0.1090 284512.0000
     37     38   1      0.1529 224262.4000
     37     52   1      0.1090 284512.0000
     37     53   1      0.1090 284512.0000
     38     39   1      0.1410 267776.0000
     38     54   1      0.1090 284512.0000
     38     55   1      0.1090 284512.0000
     39     40   1      0.1380 267776.0000
     40     41   1      0.1407 317984.0000
     40     42   1      0.1527 209200.0000
     40     56   1      0.1090 284512.0000
     41     57   1      0.0945 462750.4000
     42     43   1      0.1410 267776.0000
     42     58   1      0.1090 284512.0000
     42     59   1      0.1090 284512.0000
     43     60   1      0.1410 267776.0000
     60     61   1      0.1529 224262.4000
     60     73   1      0.1090 284512.0000
     60     74   1      0.1090 284512.0000
     61     62   1      0.1410 267776.0000
     61     63   1      0.1529 224262.4000
     61     75   1      0.1090 284512.0000
     62     76   1      0.0945 462750.4000
     63     64   1      0.1410 267776.0000
     63     77   1      0.1090 284512.0000
     63     78   1      0.1090 284512.0000
     64     65   1      0.1410 267776.0000
     65     66   1      0.1529 224262.4000
     65     79   1      0.1090 284512.0000
     65     80   1      0.1090 284512.0000
     66     67   1      0.1529 224262.4000
     66     81   1      0.1090 284512.0000
     66     82   1      0.1090 284512.0000
     67     68   1      0.1410 267776.0000
     67     83   1      0.1090 284512.0000
     67     84   1      0.1090 284512.0000
     68     69   1      0.1380 267776.0000
     69     70   1      0.1407 317984.0000
     69     71   1      0.1527 209200.0000
     69     85   1      0.1090 284512.0000
     70     86   1      0.0945 462750.4000
     71     72   1      0.1410 267776.0000
     71     87   1      0.1090 284512.0000
     71     88   1      0.1090 284512.0000
     72     89   1      0.1410 267776.0000
     89     90   1      0.1529 224262.4000
     89    102   1      0.1090 284512.0000
     89    103   1      0.1090 284512.0000
     90     91   1      0.1410 267776.0000
     90     92   1      0.1529 224262.4000
     90    104   1      0.1090 284512.0000
     91    105   1      0.0945 462750.4000
     92     93   1      0.1410 267776.0000
     92    106   1      0.1090 284512.0000
     92    107   1      0.1090 284512.0000
     93     94   1      0.1410 267776.0000
     94     95   1      0.1529 224262.4000
     94    108   1      0.1090 284512.0000
     94    109   1      0.1090 284512.0000
     95     96   1      0.1529 224262.4000
     95    110   1      0.1090 284512.0000
     95    111   1      0.1090 284512.0000
     96     97   1      0.1410 267776.0000
     96    112   1      0.1090 284512.0000
     96    113   1      0.1090 284512.0000
     97     98   1      0.1380 267776.0000
     98     99   1      0.1407 317984.0000
     98    100   1      0.1527 209200.0000
     98    114   1      0.1090 284512.0000
     99    115   1      0.0945 462750.4000
    100    101   1      0.1410 267776.0000
    100    116   1      0.1090 284512.0000
    100    117   1      0.1090 284512.0000
    101    118   1      0.1410 267776.0000
    118    119   1      0.1529 224262.4000
    118    131   1      0.1090 284512.0000
    118    132   1      0.1090 284512.0000
    119    120   1      0.1410 267776.0000
    119    121   1      0.1529 224262.4000
    119    133   1      0.1090 284512.0000
    120    134   1      0.0945 462750.4000
    121    122   1      0.1410 267776.0000
    121    135   1      0.1090 284512.0000
    121    136   1      0.1090 284512.0000
    122    123   1      0.1410 267776.0000
    123    124   1      0.1529 224262.4000
    123    137   1      0.1090 284512.0000
    123    138   1      0.1090 284512.0000
    124    125   1      0.1529 224262.4000
    124    139   1      0.1090 284512.0000
    124    140   1      0.1090 284512.0000
    125    126   1      0.1410 267776.0000
    125    141   1      0.1090 284512.0000
    125    142   1      0.1090 284512.0000
    126    127   1      0.1380 267776.0000
    127    128   1      0.1407 317984.0000
    127    129   1      0.1527 209200.0000
    127    143   1      0.1090 284512.0000
    128    144   1      0.0945 462750.4000
    129    130   1      0.1410 267776.0000
    129    145   1      0.1090 284512.0000
    129    146   1      0.1090 284512.0000
    130    147   1      0.1410 267776.0000
    147    148   1      0.1529 224262.4000
    147    160   1      0.1090 284512.0000
    147    161   1      0.1090 284512.0000
    148    149   1      0.1410 267776.0000
    148    150   1      0.1529 224262.4000
    148    162   1      0.1090 284512.0000
    149    163   1      0.0945 462750.4000
    150    151   1      0.1410 267776.0000
    150    164   1      0.1090 284512.0000
    150    165   1      0.1090 284512.0000
    151    152   1      0.1410 267776.0000
    152    153   1      0.1529 224262.4000
    152    166   1      0.1090 284512.0000
    152    167   1      0.1090 284512.0000
    153    154   1      0.1529 224262.4000
    153    168   1      0.1090 284512.0000
    153    169   1      0.1090 284512.0000
    154    155   1      0.1410 267776.0000
    154    170   1      0.1090 284512.0000
    154    171   1      0.1090 284512.0000
    155    156   1      0.1380 267776.0000
    156    157   1      0.1407 317984.0000
    156    158   1      0.1527 209200.0000
    156    172   1      0.1090 284512.0000
    157    173   1      0.0945 462750.4000
    158    159   1      0.1410 267776.0000
    158    174   1      0.1090 284512.0000
    158    175   1      0.1090 284512.0000
    159    176   1      0.1410 267776.0000
    176    177   1      0.1529 224262.4000
    176    189   1      0.1090 284512.0000
    176    190   1      0.1090 284512.0000
    177    178   1      0.1410 267776.0000
    177    179   1      0.1529 224262.4000
    177    191   1      0.1090 284512.0000
    178    192   1      0.0945 462750.4000
    179    180   1      0.1410 267776.0000
    179    193   1      0.1090 284512.0000
    179    194   1      0.1090 284512.0000
    180    181   1      0.1410 267776.0000
    181    182   1      0.1529 224262.4000
    181    195   1      0.1090 284512.0000
    181    196   1      0.1090 284512.0000
    182    183   1      0.1529 224262.4000
    182    197   1      0.1090 284512.0000
    182    198   1      0.1090 284512.0000
    183    184   1      0.1410 267776.0000
    183    199   1      0.1090 284512.0000
    183    200   1      0.1090 284512.0000
    184    185   1      0.1380 267776.0000
    185    186   1      0.1407 317984.0000
    185    187   1      0.1527 209200.0000
    185    201   1      0.1090 284512.0000
    186    202   1      0.0945 462750.4000
    187    188   1      0.1410 267776.0000
    187    203   1      0.1090 284512.0000
    187    204   1      0.1090 284512.0000
    188    205   1      0.1410 267776.0000
    205    206   1      0.1529 224262.4000
    205    218   1      0.1090 284512.0000
    205    219   1      0.1090 284512.0000
    206    207   1      0.1410 267776.0000
    206    208   1      0.1529 224262.4000
    206    220   1      0.1090 284512.0000
    207    221   1      0.0945 462750.4000
    208    209   1      0.1410 267776.0000
    208    222   1      0.1090 284512.0000
    208    223   1      0.1090 284512.0000
    209    210   1      0.1410 267776.0000
    210    211   1      0.1529 224262.4000
    210    224   1      0.1090 284512.0000
    210    225   1      0.1090 284512.0000
    211    212   1      0.1529 224262.4000
    211    226   1      0.1090 284512.0000
    211    227   1      0.1090 284512.0000
    212    213   1      0.1410 267776.0000
    212    228   1      0.1090 284512.0000
    212    229   1      0.1090 284512.0000
    213    214   1      0.1380 267776.0000
    214    215   1      0.1407 317984.0000
    214    216   1      0.1527 209200.0000
    214    230   1      0.1090 284512.0000
    215    231   1      0.0945 462750.4000
    216    217   1      0.1410 267776.0000
    216    232   1      0.1090 284512.0000
    216    233   1      0.1090 284512.0000
    217    234   1      0.1410 267776.0000
    234    235   1      0.1529 224262.4000
    234    247   1      0.1090 284512.0000
    234    248   1      0.1090 284512.0000
    235    236   1      0.1410 267776.0000
    235    237   1      0.1529 224262.4000
    235    249   1      0.1090 284512.0000
    236    250   1      0.0945 462750.4000
    237    238   1      0.1410 267776.0000
    237    251   1      0.1090 284512.0000
    237    252   1      0.1090 284512.0000
    238    239   1      0.1410 267776.0000
    239    240   1      0.1529 224262.4000
    239    253   1      0.1090 284512.0000
    239    254   1      0.1090 284512.0000
    240    241   1      0.1529 224262.4000
    240    255   1      0.1090 284512.0000
    240    256   1      0.1090 284512.0000
    241    242   1      0.1410 267776.0000
    241    257   1      0.1090 284512.0000
    241    258   1      0.1090 284512.0000
    242    243   1      0.1380 267776.0000
    243    244   1      0.1407 317984.0000
    243    245   1      0.1527 209200.0000
    243    259   1      0.1090 284512.0000
    244    260   1      0.0945 462750.4000
    245    246   1      0.1410 267776.0000
    245    261   1      0.1090 284512.0000
    245    262   1      0.1090 284512.0000
    246    263   1      0.1410 267776.0000
    263    264   1      0.1529 224262.4000
    263    276   1      0.1090 284512.0000
    263    277   1      0.1090 284512.0000
    264    265   1      0.1410 267776.0000
    264    266   1      0.1529 224262.4000
    264    278   1      0.1090 284512.0000
    265    279   1      0.0945 462750.4000
    266    267   1      0.1410 267776.0000
    266    280   1      0.1090 284512.0000
    266    281   1      0.1090 284512.0000
    267    268   1      0.1410 267776.0000
    268    269   1      0.1529 224262.4000
    268    282   1      0.1090 284512.0000
    268    283   1      0.1090 284512.0000
    269    270   1      0.1529 224262.4000
    269    284   1      0.1090 284512.0000
    269    285   1      0.1090 284512.0000
    270    271   1      0.1410 267776.0000
    270    286   1      0.1090 284512.0000
    270    287   1      0.1090 284512.0000
    271    272   1      0.1380 267776.0000
    272    273   1      0.1407 317984.0000
    272    274   1      0.1527 209200.0000
    272    288   1      0.1090 284512.0000
    273    289   1      0.0945 462750.4000
    274    275   1      0.1410 267776.0000
    274    290   1      0.1090 284512.0000
    274    291   1      0.1090 284512.0000
    275    292   1      0.1410 267776.0000
    292    293   1      0.1529 224262.4000
    292    305   1      0.1090 284512.0000
    292    306   1      0.1090 284512.0000
    293    294   1      0.1410 267776.0000
    293    295   1      0.1529 224262.4000
    293    307   1      0.1090 284512.0000
    294    308   1      0.0945 462750.4000
    295    296   1      0.1410 267776.0000
    295    309   1      0.1090 284512.0000
    295    310   1      0.1090 284512.0000
    296    297   1      0.1410 267776.0000
    297    298   1      0.1529 224262.4000
    297    311   1      0.1090 284512.0000
    297    312   1      0.1090 284512.0000
    298    299   1      0.1529 224262.4000
    298    313   1      0.1090 284512.0000
    298    314   1      0.1090 284512.0000
    299    300   1      0.1410 267776.0000
    299    315   1      0.1090 284512.0000
    299    316   1      0.1090 284512.0000
    300    301   1      0.1380 267776.0000
    301    302   1      0.1407 317984.0000
    301    303   1      0.1527 209200.0000
    301    317   1      0.1090 284512.0000
    302    318   1      0.0945 462750.4000
    303    304   1      0.1410 267776.0000
    303    319   1      0.1090 284512.0000
    303    320   1      0.1090 284512.0000
    304    321   1      0.1410 267776.0000
    321    322   1      0.1529 224262.4000
    321    334   1      0.1090 284512.0000
    321    335   1      0.1090 284512.0000
    322    323   1      0.1410 267776.0000
    322    324   1      0.1529 224262.4000
    322    336   1      0.1090 284512.0000
    323    337   1      0.0945 462750.4000
    324    325   1      0.1410 267776.0000
    324    338   1      0.1090 284512.0000
    324    339   1      0.1090 284512.0000
    325    326   1      0.1410 267776.0000
    326    327   1      0.1529 224262.4000
    326    340   1      0.1090 284512.0000
    326    341   1      0.1090 284512.0000
    327    328   1      0.1529 224262.4000
    327    342   1      0.1090 284512.0000
    327    343   1      0.1090 284512.0000
    328    329   1      0.1410 267776.0000
    328    344   1      0.1090 284512.0000
    328    345   1      0.1090 284512.0000
    329    330   1      0.1380 267776.0000
    330    331   1      0.1407 317984.0000
    330    332   1      0.1527 209200.0000
    330    346   1      0.1090 284512.0000
    331    347   1      0.0945 462750.4000
    332    333   1      0.1410 267776.0000
    332    348   1      0.1090 284512.0000
    332    349   1      0.1090 284512.0000
    333    350   1      0.1410 267776.0000
    350    351   1      0.1529 224262.4000
    350    363   1      0.1090 284512.0000
    350    364   1      0.1090 284512.0000
    351    352   1      0.1410 267776.0000
    351    353   1      0.1529 224262.4000
    351    365   1      0.1090 284512.0000
    352    366   1      0.0945 462750.4000
    353    354   1      0.1410 267776.0000
    353    367   1      0.1090 284512.0000
    353    368   1      0.1090 284512.0000
    354    355   1      0.1410 267776.0000
    355    356   1      0.1529 224262.4000
    355    369   1      0.1090 284512.0000
    355    370   1      0.1090 284512.0000
    356    357   1      0.1529 224262.4000
    356    371   1      0.1090 284512.0000
    356    372   1      0.1090 284512.0000
    357    358   1      0.1410 267776.0000
    357    373   1      0.1090 284512.0000
    357    374   1      0.1090 284512.0000
    358    359   1      0.1380 267776.0000
    359    360   1      0.1407 317984.0000
    359    361   1      0.1527 209200.0000
    359    375   1      0.1090 284512.0000
    360    376   1      0.0945 462750.4000
    361    362   1      0.1410 267776.0000
    361    377   1      0.1090 284512.0000
    361    378   1      0.1090 284512.0000
    362    379   1      0.1410 267776.0000
    379    380   1      0.1529 224262.4000
    379    392   1      0.1090 284512.0000
    379    393   1      0.1090 284512.0000
    380    381   1      0.1410 267776.0000
    380    382   1      0.1529 224262.4000
    380    394   1      0.1090 284512.0000
    381    395   1      0.0945 462750.4000
    382    383   1      0.1410 267776.0000
    382    396   1      0.1090 284512.0000
    382    397   1      0.1090 284512.0000
    383    384   1      0.1410 267776.0000
    384    385   1      0.1529 224262.4000
    384    398   1      0.1090 284512.0000
    384    399   1      0.1090 284512.0000
    385    386   1      0.1529 224262.4000
    385    400   1      0.1090 284512.0000
    385    401   1      0.1090 284512.0000
    386    387   1      0.1410 267776.0000
    386    402   1      0.1090 284512.0000
    386    403   1      0.1090 284512.0000
    387    388   1      0.1380 267776.0000
    388    389   1      0.1407 317984.0000
    388    390   1      0.1527 209200.0000
    388    404   1      0.1090 284512.0000
    389    405   1      0.0945 462750.4000
    390    391   1      0.1410 267776.0000
    390    406   1      0.1090 284512.0000
    390    407   1      0.1090 284512.0000
    391    408   1      0.1410 267776.0000
    408    409   1      0.1529 224262.4000
    408    421   1      0.1090 284512.0000
    408    422   1      0.1090 284512.0000
    409    410   1      0.1410 267776.0000
    409    411   1      0.1529 224262.4000
    409    423   1      0.1090 284512.0000
    410    424   1      0.0945 462750.4000
    411    412   1      0.1410 267776.0000
    411    425   1      0.1090 284512.0000
    411    426   1      0.1090 284512.0000
    412    413   1      0.1410 267776.0000
    413    414   1      0.1529 224262.4000
    413    427   1      0.1090 284512.0000
    413    428   1      0.1090 284512.0000
    414    415   1      0.1529 224262.4000
    414    429   1      0.1090 284512.0000
    414    430   1      0.1090 284512.0000
    415    416   1      0.1410 267776.0000
    415    431   1      0.1090 284512.0000
    415    432   1      0.1090 284512.0000
    416    417   1      0.1380 267776.0000
    417    418   1      0.1407 317984.0000
    417    419   1      0.1527 209200.0000
    417    433   1      0.1090 284512.0000
    418    434   1      0.0945 462750.4000
    419    420   1      0.1410 267776.0000
    419    435   1      0.1090 284512.0000
    419    436   1      0.1090 284512.0000
    420    437   1      0.1410 267776.0000
    437    438   1      0.1529 224262.4000
    437    450   1      0.1090 284512.0000
    437    451   1      0.1090 284512.0000
    438    439   1      0.1410 267776.0000
    438    440   1      0.1529 224262.4000
    438    452   1      0.1090 284512.0000
    439    453   1      0.0945 462750.4000
    440    441   1      0.1410 267776.0000
    440    454   1      0.1090 284512.0000
    440    455   1      0.1090 284512.0000
    441    442   1      0.1410 267776.0000
    442    443   1      0.1529 224262.4000
    442    456   1      0.1090 284512.0000
    442    457   1      0.1090 284512.0000
    443    444   1      0.1529 224262.4000
    443    458   1      0.1090 284512.0000
    443    459   1      0.1090 284512.0000
    444    445   1      0.1410 267776.0000
    444    460   1      0.1090 284512.0000
    444    461   1      0.1090 284512.0000
    445    446   1      0.1380 267776.0000
    446    447   1      0.1407 317984.0000
    446    448   1      0.1527 209200.0000
    446    462   1      0.1090 284512.0000
    447    463   1      0.0945 462750.4000
    448    449   1      0.1410 267776.0000
    448    464   1      0.1090 284512.0000
    448    465   1      0.1090 284512.0000
    449    466   1      0.1410 267776.0000
    466    467   1      0.1529 224262.4000
    466    479   1      0.1090 284512.0000
    466    480   1      0.1090 284512.0000
    467    468   1      0.1410 267776.0000
    467    469   1      0.1529 224262.4000
    467    481   1      0.1090 284512.0000
    468    482   1      0.0945 462750.4000
    469    470   1      0.1410 267776.0000
    469    483   1      0.1090 284512.0000
    469    484   1      0.1090 284512.0000
    470    471   1      0.1410 267776.0000
    471    472   1      0.1529 224262.4000
    471    485   1      0.1090 284512.0000
    471    486   1      0.1090 284512.0000
    472    473   1      0.1529 224262.4000
    472    487   1      0.1090 284512.0000
    472    488   1      0.1090 284512.0000
    473    474   1      0.1410 267776.0000
    473    489   1      0.1090 284512.0000
    473    490   1      0.1090 284512.0000
    474    475   1      0.1380 267776.0000
    475    476   1      0.1407 317984.0000
    475    477   1      0.1527 209200.0000
    475    491   1      0.1090 284512.0000
    476    492   1      0.0945 462750.4000
    477    478   1      0.1410 267776.0000
    477    493   1      0.1090 284512.0000
    477    494   1      0.1090 284512.0000
    478    495   1      0.1410 267776.0000
    495    496   1      0.1529 224262.4000
    495    508   1      0.1090 284512.0000
    495    509   1      0.1090 284512.0000
    496    497   1      0.1410 267776.0000
    496    498   1      0.1529 224262.4000
    496    510   1      0.1090 284512.0000
    497    511   1      0.0945 462750.4000
    498    499   1      0.1410 267776.0000
    498    512   1      0.1090 284512.0000
    498    513   1      0.1090 284512.0000
    499    500   1      0.1410 267776.0000
    500    501   1      0.1529 224262.4000
    500    514   1      0.1090 284512.0000
    500    515   1      0.1090 284512.0000
    501    502   1      0.1529 224262.4000
    501    516   1      0.1090 284512.0000
    501    517   1      0.1090 284512.0000
    502    503   1      0.1410 267776.0000
    502    518   1      0.1090 284512.0000
    502    519   1      0.1090 284512.0000
    503    504   1      0.1380 267776.0000
    504    505   1      0.1407 317984.0000
    504    506   1      0.1527 209200.0000
    504    520   1      0.1090 284512.0000
    505    521   1      0.0945 462750.4000
    506    507   1      0.1410 267776.0000
    506    522   1      0.1090 284512.0000
    506    523   1      0.1090 284512.0000
    507    524   1      0.1410 267776.0000
    524    525   1      0.1529 224262.4000
    524    537   1      0.1090 284512.0000
    524    538   1      0.1090 284512.0000
    525    526   1      0.1410 267776.0000
    525    527   1      0.1529 224262.4000
    525    539   1      0.1090 284512.0000
    526    540   1      0.0945 462750.4000
    527    528   1      0.1410 267776.0000
    527    541   1      0.1090 284512.0000
    527    542   1      0.1090 284512.0000
    528    529   1      0.1410 267776.0000
    529    530   1      0.1529 224262.4000
    529    543   1      0.1090 284512.0000
    529    544   1      0.1090 284512.0000
    530    531   1      0.1529 224262.4000
    530    545   1      0.1090 284512.0000
    530    546   1      0.1090 284512.0000
    531    532   1      0.1410 267776.0000
    531    547   1      0.1090 284512.0000
    531    548   1      0.1090 284512.0000
    532    533   1      0.1380 267776.0000
    533    534   1      0.1407 317984.0000
    533    535   1      0.1527 209200.0000
    533    549   1      0.1090 284512.0000
    534    550   1      0.0945 462750.4000
    535    536   1      0.1410 267776.0000
    535    551   1      0.1090 284512.0000
    535    552   1      0.1090 284512.0000
    536    553   1      0.1410 267776.0000
    553    554   1      0.1529 224262.4000
    553    566   1      0.1090 284512.0000
    553    567   1      0.1090 284512.0000
    554    555   1      0.1410 267776.0000
    554    556   1      0.1529 224262.4000
    554    568   1      0.1090 284512.0000
    555    569   1      0.0945 462750.4000
    556    557   1      0.1410 267776.0000
    556    570   1      0.1090 284512.0000
    556    571   1      0.1090 284512.0000
    557    558   1      0.1410 267776.0000
    558    559   1      0.1529 224262.4000
    558    572   1      0.1090 284512.0000
    558    573   1      0.1090 284512.0000
    559    560   1      0.1529 224262.4000
    559    574   1      0.1090 284512.0000
    559    575   1      0.1090 284512.0000
    560    561   1      0.1410 267776.0000
    560    576   1      0.1090 284512.0000
    560    577   1      0.1090 284512.0000
    561    562   1      0.1380 267776.0000
    562    563   1      0.1407 317984.0000
    562    564   1      0.1527 209200.0000
    562    578   1      0.1090 284512.0000
    563    579   1      0.0945 462750.4000
    564    565   1      0.1410 267776.0000
    564    580   1      0.1090 284512.0000
    564    581   1      0.1090 284512.0000
    565    582   1      0.0945 462750.4000

[ pairs ]
; ai   aj   funct   fudge_QQ  charge_i   charge_j   c6    c12
     14      3   2   0.50000     0.0600000   -0.6830000   2.835898e-04  1.345781e-07
     14      4   2   0.50000     0.0600000    0.1400000   2.494471e-04  1.671101e-07
     14     16   2   0.50000     0.0600000    0.0600000   6.128906e-05  1.496315e-08
     15      3   2   0.50000     0.0600000   -0.6830000   2.835898e-04  1.345781e-07
     15      4   2   0.50000     0.0600000    0.1400000   2.494471e-04  1.671101e-07
     15     16   2   0.50000     0.0600000    0.0600000   6.128906e-05  1.496315e-08
     30      3   2   0.50000     0.0600000   -0.6830000   2.835898e-04  1.345781e-07
     30      4   2   0.50000     0.0600000    0.1400000   2.494471e-04  1.671101e-07
     30     16   2   0.50000     0.0600000    0.0600000   6.128906e-05  1.496315e-08
      1     17   2   0.50000    -0.1800000    0.4180000   1.995577e-06  1.069504e-11
      4     17   2   0.50000     0.1400000    0.4180000   1.995577e-06  1.069504e-11
     16     17   2   0.50000     0.0600000    0.4180000   4.903125e-07  9.576416e-13
      1      5   2   0.50000    -0.1800000   -0.4000000   8.411158e-04  8.795366e-07
      1     18   2   0.50000    -0.1800000    0.0300000   2.494471e-04  1.671101e-07
      1     19   2   0.50000    -0.1800000    0.0300000   2.494471e-04  1.671101e-07
      3      5   2   0.50000    -0.6830000   -0.4000000   9.562422e-04  7.083138e-07
      3     18   2   0.50000    -0.6830000    0.0300000   2.835898e-04  1.345781e-07
      3     19   2   0.50000    -0.6830000    0.0300000   2.835898e-04  1.345781e-07
     16      5   2   0.50000     0.0600000   -0.4000000   2.066619e-04  7.875431e-08
     16     18   2   0.50000     0.0600000    0.0300000   6.128906e-05  1.496315e-08
     16     19   2   0.50000     0.0600000    0.0300000   6.128906e-05  1.496315e-08
      2      6   2   0.50000     0.2050000    0.1400000   1.015252e-03  1.866303e-06
     18      6   2   0.50000     0.0300000    0.1400000   2.494471e-04  1.671101e-07
     19      6   2   0.50000     0.0300000    0.1400000   2.494471e-04  1.671101e-07
      4      7   2   0.50000     0.1400000   -0.1200000   1.015252e-03  1.866303e-06
      4     20   2   0.50000     0.1400000    0.0300000   2.494471e-04  1.671101e-07
      4     21   2   0.50000     0.1400000    0.0300000   2.494471e-04  1.671101e-07
      5      8   2   0.50000    -0.4000000    0.1400000   8.411158e-04  8.795366e-07
      5     22   2   0.50000    -0.4000000    0.0600000   2.066619e-04  7.875431e-08
      5     23   2   0.50000    -0.4000000    0.0600000   2.066619e-04  7.875431e-08
     20      8   2   0.50000     0.0300000    0.1400000   2.494471e-04  1.671101e-07
     20     22   2   0.50000     0.0300000    0.0600000   6.128906e-05  1.496315e-08
     20     23   2   0.50000     0.0300000    0.0600000   6.128906e-05  1.496315e-08
     21      8   2   0.50000     0.0300000    0.1400000   2.494471e-04  1.671101e-07
     21     22   2   0.50000     0.0300000    0.0600000   6.128906e-05  1.496315e-08
     21     23   2   0.50000     0.0300000    0.0600000   6.128906e-05  1.496315e-08
      6      9   2   0.50000     0.1400000   -0.4000000   8.411158e-04  8.795366e-07
      6     24   2   0.50000     0.1400000    0.0300000   2.494471e-04  1.671101e-07
      6     25   2   0.50000     0.1400000    0.0300000   2.494471e-04  1.671101e-07
     22      9   2   0.50000     0.0600000   -0.4000000   2.066619e-04  7.875431e-08
     22     24   2   0.50000     0.0600000    0.0300000   6.128906e-05  1.496315e-08
     22     25   2   0.50000     0.0600000    0.0300000   6.128906e-05  1.496315e-08
     23      9   2   0.50000     0.0600000   -0.4000000   2.066619e-04  7.875431e-08
     23     24   2   0.50000     0.0600000    0.0300000   6.128906e-05  1.496315e-08
     23     25   2   0.50000     0.0600000    0.0300000   6.128906e-05  1.496315e-08
      7     10   2   0.50000    -0.1200000    0.2647000   1.015252e-03  1.866303e-06
     24     10   2   0.50000     0.0300000    0.2647000   2.494471e-04  1.671101e-07
     25     10   2   0.50000     0.0300000    0.2647000   2.494471e-04  1.671101e-07
      8     11   2   0.50000     0.1400000   -0.5827000   1.154213e-03  1.502983e-06
      8     12   2   0.50000     0.1400000    0.1400000   1.015252e-03  1.866303e-06
      8     26   2   0.50000     0.1400000    0.1000000   2.494471e-04  1.671101e-07
      9     27   2   0.50000    -0.4000000    0.4180000   1.653295e-06  5.040276e-12
     12     27   2   0.50000     0.1400000    0.4180000   1.995577e-06  1.069504e-11
     26     27   2   0.50000     0.1000000    0.4180000   4.903125e-07  9.576416e-13
      9     13   2   0.50000    -0.4000000   -0.4000000   6.968474e-04  4.145011e-07
      9     28   2   0.50000    -0.4000000    0.0300000   2.066619e-04  7.875431e-08
      9     29   2   0.50000    -0.4000000    0.0300000   2.066619e-04  7.875431e-08
     11     13   2   0.50000    -0.5827000   -0.4000000   9.562422e-04  7.083138e-07
     11     28   2   0.50000    -0.5827000    0.0300000   2.835898e-04  1.345781e-07
     11     29   2   0.50000    -0.5827000    0.0300000   2.835898e-04  1.345781e-07
     26     13   2   0.50000     0.1000000   -0.4000000   2.066619e-04  7.875431e-08
     26     28   2   0.50000     0.1000000    0.0300000   6.128906e-05  1.496315e-08
     26     29   2   0.50000     0.1000000    0.0300000   6.128906e-05  1.496315e-08
     10     31   2   0.50000     0.2647000    0.1400000   1.015252e-03  1.866303e-06
     28     31   2   0.50000     0.0300000    0.1400000   2.494471e-04  1.671101e-07
     29     31   2   0.50000     0.0300000    0.1400000   2.494471e-04  1.671101e-07
     12     32   2   0.50000     0.1400000    0.2050000   1.015252e-03  1.866303e-06
     12     44   2   0.50000     0.1400000    0.0300000   2.494471e-04  1.671101e-07
     12     45   2   0.50000     0.1400000    0.0300000   2.494471e-04  1.671101e-07
     13     33   2   0.50000    -0.4000000   -0.6830000   9.562422e-04  7.083138e-07
     13     34   2   0.50000    -0.4000000    0.1400000   8.411158e-04  8.795366e-07
     13     46   2   0.50000    -0.4000000    0.0600000   2.066619e-04  7.875431e-08
     44     33   2   0.50000     0.0300000   -0.6830000   2.835898e-04  1.345781e-07
     44     34   2   0.50000     0.0300000    0.1400000   2.494471e-04  1.671101e-07
     44     46   2   0.50000     0.0300000    0.0600000   6.128906e-05  1.496315e-08
     45     33   2   0.50000     0.0300000   -0.6830000   2.835898e-04  1.345781e-07
     45     34   2   0.50000     0.0300000    0.1400000   2.494471e-04  1.671101e-07
     45     46   2   0.50000     0.0300000    0.0600000   6.128906e-05  1.496315e-08
     31     47   2   0.50000     0.1400000    0.4180000   1.995577e-06  1.069504e-11
     34     47   2   0.50000     0.1400000    0.4180000   1.995577e-06  1.069504e-11
     46     47   2   0.50000     0.0600000    0.4180000   4.903125e-07  9.576416e-13
     31     35   2   0.50000     0.1400000   -0.4000000   8.411158e-04  8.795366e-07
     31     48   2   0.50000     0.1400000    0.0300000   2.494471e-04  1.671101e-07
     31     49   2   0.50000     0.1400000    0.0300000   2.494471e-04  1.671101e-07
     33     35   2   0.50000    -0.6830000   -0.4000000   9.562422e-04  7.083138e-07
     33     48   2   0.50000    -0.6830000    0.0300000   2.835898e-04  1.345781e-07
     33     49   2   0.50000    -0.6830000    0.0300000   2.835898e-04  1.345781e-07
     46     35   2   0.50000     0.0600000   -0.4000000   2.066619e-04  7.875431e-08
     46     48   2   0.50000     0.0600000    0.0300000   6.128906e-05  1.496315e-08
     46     49   2   0.50000     0.0600000    0.0300000   6.128906e-05  1.496315e-08
     32     36   2   0.50000     0.2050000    0.1400000   1.015252e-03  1.866303e-06
     48     36   2   0.50000     0.0300000    0.1400000   2.494471e-04  1.671101e-07
     49     36   2   0.50000     0.0300000    0.1400000   2.494471e-04  1.671101e-07
     34     37   2   0.50000     0.1400000   -0.1200000   1.015252e-03  1.866303e-06
     34     50   2   0.50000     0.1400000    0.0300000   2.494471e-04  1.671101e-07
     34     51   2   0.50000     0.1400000    0.0300000   2.494471e-04  1.671101e-07
     35     38   2   0.50000    -0.4000000    0.1400000   8.411158e-04  8.795366e-07
     35     52   2   0.50000    -0.4000000    0.0600000   2.066619e-04  7.875431e-08
     35     53   2   0.50000    -0.4000000    0.0600000   2.066619e-04  7.875431e-08
     50     38   2   0.50000     0.0300000    0.1400000   2.494471e-04  1.671101e-07
     50     52   2   0.50000     0.0300000    0.0600000   6.128906e-05  1.496315e-08
     50     53   2   0.50000     0.0300000    0.0600000   6.128906e-05  1.496315e-08
     51     38   2   0.50000     0.0300000    0.1400000   2.494471e-04  1.671101e-07
     51     52   2   0.50000     0.0300000    0.0600000   6.128906e-05  1.496315e-08
     51     53   2   0.50000     0.0300000    0.0600000   6.128906e-05  1.496315e-08
     36     39   2   0.50000     0.1400000   -0.4000000   8.411158e-04  8.795366e-07
     36     54   2   0.50000     0.1400000    0.0300000   2.494471e-04  1.671101e-07
     36     55   2   0.50000     0.1400000    0.0300000   2.494471e-04  1.671101e-07
     52     39   2   0.50000     0.0600000   -0.4000000   2.066619e-04  7.875431e-08
     52     54   2   0.50000     0.0600000    0.0300000   6.128906e-05  1.496315e-08
     52     55   2   0.50000     0.0600000    0.0300000   6.128906e-05  1.496315e-08
     53     39   2   0.50000     0.0600000   -0.4000000   2.066619e-04  7.875431e-08
     53     54   2   0.50000     0.0600000    0.0300000   6.128906e-05  1.496315e-08
     53     55   2   0.50000     0.0600000    0.0300000   6.128906e-05  1.496315e-08
     37     40   2   0.50000    -0.1200000    0.2647000   1.015252e-03  1.866303e-06
     54     40   2   0.50000     0.0300000    0.2647000   2.494471e-04  1.671101e-07
     55     40   2   0.50000     0.0300000    0.2647000   2.494471e-04  1.671101e-07
     38     41   2   0.50000     0.1400000   -0.5827000   1.154213e-03  1.502983e-06
     38     42   2   0.50000     0.1400000    0.1400000   1.015252e-03  1.866303e-06
     38     56   2   0.50000     0.1400000    0.1000000   2.494471e-04  1.671101e-07
     39     57   2   0.50000    -0.4000000    0.4180000   1.653295e-06  5.040276e-12
     42     57   2   0.50000     0.1400000    0.4180000   1.995577e-06  1.069504e-11
     56     57   2   0.50000     0.1000000    0.4180000   4.903125e-07  9.576416e-13
     39     43   2   0.50000    -0.4000000   -0.4000000   6.968474e-04  4.145011e-07
     39     58   2   0.50000    -0.4000000    0.0300000   2.066619e-04  7.875431e-08
     39     59   2   0.50000    -0.4000000    0.0300000   2.066619e-04  7.875431e-08
     41     43   2   0.50000    -0.5827000   -0.4000000   9.562422e-04  7.083138e-07
     41     58   2   0.50000    -0.5827000    0.0300000   2.835898e-04  1.345781e-07
     41     59   2   0.50000    -0.5827000    0.0300000   2.835898e-04  1.345781e-07
     56     43   2   0.50000     0.1000000   -0.4000000   2.066619e-04  7.875431e-08
     56     58   2   0.50000     0.1000000    0.0300000   6.128906e-05  1.496315e-08
     56     59   2   0.50000     0.1000000    0.0300000   6.128906e-05  1.496315e-08
     40     60   2   0.50000     0.2647000    0.1400000   1.015252e-03  1.866303e-06
     58     60   2   0.50000     0.0300000    0.1400000   2.494471e-04  1.671101e-07
     59     60   2   0.50000     0.0300000    0.1400000   2.494471e-04  1.671101e-07
     42     61   2   0.50000     0.1400000    0.2050000   1.015252e-03  1.866303e-06
     42     73   2   0.50000     0.1400000    0.0300000   2.494471e-04  1.671101e-07
     42     74   2   0.50000     0.1400000    0.0300000   2.494471e-04  1.671101e-07
     43     62   2   0.50000    -0.4000000   -0.6830000   9.562422e-04  7.083138e-07
     43     63   2   0.50000    -0.4000000    0.1400000   8.411158e-04  8.795366e-07
     43     75   2   0.50000    -0.4000000    0.0600000   2.066619e-04  7.875431e-08
     73     62   2   0.50000     0.0300000   -0.6830000   2.835898e-04  1.345781e-07
     73     63   2   0.50000     0.0300000    0.1400000   2.494471e-04  1.671101e-07
     73     75   2   0.50000     0.0300000    0.0600000   6.128906e-05  1.496315e-08
     74     62   2   0.50000     0.0300000   -0.6830000   2.835898e-04  1.345781e-07
     74     63   2   0.50000     0.0300000    0.1400000   2.494471e-04  1.671101e-07
     74     75   2   0.50000     0.0300000    0.0600000   6.128906e-05  1.496315e-08
     60     76   2   0.50000     0.1400000    0.4180000   1.995577e-06  1.069504e-11
     63     76   2   0.50000     0.1400000    0.4180000   1.995577e-06  1.069504e-11
     75     76   2   0.50000     0.0600000    0.4180000   4.903125e-07  9.576416e-13
     60     64   2   0.50000     0.1400000   -0.4000000   8.411158e-04  8.795366e-07
     60     77   2   0.50000     0.1400000    0.0300000   2.494471e-04  1.671101e-07
     60     78   2   0.50000     0.1400000    0.0300000   2.494471e-04  1.671101e-07
     62     64   2   0.50000    -0.6830000   -0.4000000   9.562422e-04  7.083138e-07
     62     77   2   0.50000    -0.6830000    0.0300000   2.835898e-04  1.345781e-07
     62     78   2   0.50000    -0.6830000    0.0300000   2.835898e-04  1.345781e-07
     75     64   2   0.50000     0.0600000   -0.4000000   2.066619e-04  7.875431e-08
     75     77   2   0.50000     0.0600000    0.0300000   6.128906e-05  1.496315e-08
     75     78   2   0.50000     0.0600000    0.0300000   6.128906e-05  1.496315e-08
     61     65   2   0.50000     0.2050000    0.1400000   1.015252e-03  1.866303e-06
     77     65   2   0.50000     0.0300000    0.1400000   2.494471e-04  1.671101e-07
     78     65   2   0.50000     0.0300000    0.1400000   2.494471e-04  1.671101e-07
     63     66   2   0.50000     0.1400000   -0.1200000   1.015252e-03  1.866303e-06
     63     79   2   0.50000     0.1400000    0.0300000   2.494471e-04  1.671101e-07
     63     80   2   0.50000     0.1400000    0.0300000   2.494471e-04  1.671101e-07
     64     67   2   0.50000    -0.4000000    0.1400000   8.411158e-04  8.795366e-07
     64     81   2   0.50000    -0.4000000    0.0600000   2.066619e-04  7.875431e-08
     64     82   2   0.50000    -0.4000000    0.0600000   2.066619e-04  7.875431e-08
     79     67   2   0.50000     0.0300000    0.1400000   2.494471e-04  1.671101e-07
     79     81   2   0.50000     0.0300000    0.0600000   6.128906e-05  1.496315e-08
     79     82   2   0.50000     0.0300000    0.0600000   6.128906e-05  1.496315e-08
     80     67   2   0.50000     0.0300000    0.1400000   2.494471e-04  1.671101e-07
     80     81   2   0.50000     0.0300000    0.0600000   6.128906e-05  1.496315e-08
     80     82   2   0.50000     0.0300000    0.0600000   6.128906e-05  1.496315e-08
     65     68   2   0.50000     0.1400000   -0.4000000   8.411158e-04  8.795366e-07
     65     83   2   0.50000     0.1400000    0.0300000   2.494471e-04  1.671101e-07
     65     84   2   0.50000     0.1400000    0.0300000   2.494471e-04  1.671101e-07
     81     68   2   0.50000     0.0600000   -0.4000000   2.066619e-04  7.875431e-08
     81     83   2   0.50000     0.0600000    0.0300000   6.128906e-05  1.496315e-08
     81     84   2   0.50000     0.0600000    0.0300000   6.128906e-05  1.496315e-08
     82     68   2   0.50000     0.0600000   -0.4000000   2.066619e-04  7.875431e-08
     82     83   2   0.50000     0.0600000    0.0300000   6.128906e-05  1.496315e-08
     82     84   2   0.50000     0.0600000    0.0300000   6.128906e-05  1.496315e-08
     66     69   2   0.50000    -0.1200000    0.2647000   1.015252e-03  1.866303e-06
     83     69   2   0.50000     0.0300000    0.2647000   2.494471e-04  1.671101e-07
     84     69   2   0.50000     0.0300000    0.2647000   2.494471e-04  1.671101e-07
     67     70   2   0.50000     0.1400000   -0.5827000   1.154213e-03  1.502983e-06
     67     71   2   0.50000     0.1400000    0.1400000   1.015252e-03  1.866303e-06
     67     85   2   0.50000     0.1400000    0.1000000   2.494471e-04  1.671101e-07
     68     86   2   0.50000    -0.4000000    0.4180000   1.653295e-06  5.040276e-12
     71     86   2   0.50000     0.1400000    0.4180000   1.995577e-06  1.069504e-11
     85     86   2   0.50000     0.1000000    0.4180000   4.903125e-07  9.576416e-13
     68     72   2   0.50000    -0.4000000   -0.4000000   6.968474e-04  4.145011e-07
     68     87   2   0.50000    -0.4000000    0.0300000   2.066619e-04  7.875431e-08
     68     88   2   0.50000    -0.4000000    0.0300000   2.066619e-04  7.875431e-08
     70     72   2   0.50000    -0.5827000   -0.4000000   9.562422e-04  7.083138e-07
     70     87   2   0.50000    -0.5827000    0.0300000   2.835898e-04  1.345781e-07
     70     88   2   0.50000    -0.5827000    0.0300000   2.835898e-04  1.345781e-07
     85     72   2   0.50000     0.1000000   -0.4000000   2.066619e-04  7.875431e-08
     85     87   2   0.50000     0.1000000    0.0300000   6.128906e-05  1.496315e-08
     85     88   2   0.50000     0.1000000    0.0300000   6.128906e-05  1.496315e-08
     69     89   2   0.50000     0.2647000    0.1400000   1.015252e-03  1.866303e-06
     87     89   2   0.50000     0.0300000    0.1400000   2.494471e-04  1.671101e-07
     88     89   2   0.50000     0.0300000    0.1400000   2.494471e-04  1.671101e-07
     71     90   2   0.50000     0.1400000    0.2050000   1.015252e-03  1.866303e-06
     71    102   2   0.50000     0.1400000    0.0300000   2.494471e-04  1.671101e-07
     71    103   2   0.50000     0.1400000    0.0300000   2.494471e-04  1.671101e-07
     72     91   2   0.50000    -0.4000000   -0.6830000   9.562422e-04  7.083138e-07
     72     92   2   0.50000    -0.4000000    0.1400000   8.411158e-04  8.795366e-07
     72    104   2   0.50000    -0.4000000    0.0600000   2.066619e-04  7.875431e-08
    102     91   2   0.50000     0.0300000   -0.6830000   2.835898e-04  1.345781e-07
    102     92   2   0.50000     0.0300000    0.1400000   2.494471e-04  1.671101e-07
    102    104   2   0.50000     0.0300000    0.0600000   6.128906e-05  1.496315e-08
    103     91   2   0.50000     0.0300000   -0.6830000   2.835898e-04  1.345781e-07
    103     92   2   0.50000     0.0300000    0.1400000   2.494471e-04  1.671101e-07
    103    104   2   0.50000     0.0300000    0.0600000   6.128906e-05  1.496315e-08
     89    105   2   0.50000     0.1400000    0.4180000   1.995577e-06  1.069504e-11
     92    105   2   0.50000     0.1400000    0.4180000   1.995577e-06  1.069504e-11
    104    105   2   0.50000     0.0600000    0.4180000   4.903125e-07  9.576416e-13
     89     93   2   0.50000     0.1400000   -0.4000000   8.411158e-04  8.795366e-07
     89    106   2   0.50000     0.1400000    0.0300000   2.494471e-04  1.671101e-07
     89    107   2   0.50000     0.1400000    0.0300000   2.494471e-04  1.671101e-07
     91     93   2   0.50000    -0.6830000   -0.4000000   9.562422e-04  7.083138e-07
     91    106   2   0.50000    -0.6830000    0.0300000   2.835898e-04  1.345781e-07
     91    107   2   0.50000    -0.6830000    0.0300000   2.835898e-04  1.345781e-07
    104     93   2   0.50000     0.0600000   -0.4000000   2.066619e-04  7.875431e-08
    104    106   2   0.50000     0.0600000    0.0300000   6.128906e-05  1.496315e-08
    104    107   2   0.50000     0.0600000    0.0300000   6.128906e-05  1.496315e-08
     90     94   2   0.50000     0.2050000    0.1400000   1.015252e-03  1.866303e-06
    106     94   2   0.50000     0.0300000    0.1400000   2.494471e-04  1.671101e-07
    107     94   2   0.50000     0.0300000    0.1400000   2.494471e-04  1.671101e-07
     92     95   2   0.50000     0.1400000   -0.1200000   1.015252e-03  1.866303e-06
     92    108   2   0.50000     0.1400000    0.0300000   2.494471e-04  1.671101e-07
     92    109   2   0.50000     0.1400000    0.0300000   2.494471e-04  1.671101e-07
     93     96   2   0.50000    -0.4000000    0.1400000   8.411158e-04  8.795366e-07
     93    110   2   0.50000    -0.4000000    0.0600000   2.066619e-04  7.875431e-08
     93    111   2   0.50000    -0.4000000    0.0600000   2.066619e-04  7.875431e-08
    108     96   2   0.50000     0.0300000    0.1400000   2.494471e-04  1.671101e-07
    108    110   2   0.50000     0.0300000    0.0600000   6.128906e-05  1.496315e-08
    108    111   2   0.50000     0.0300000    0.0600000   6.128906e-05  1.496315e-08
    109     96   2   0.50000     0.0300000    0.1400000   2.494471e-04  1.671101e-07
    109    110   2   0.50000     0.0300000    0.0600000   6.128906e-05  1.496315e-08
    109    111   2   0.50000     0.0300000    0.0600000   6.128906e-05  1.496315e-08
     94     97   2   0.50000     0.1400000   -0.4000000   8.411158e-04  8.795366e-07
     94    112   2   0.50000     0.1400000    0.0300000   2.494471e-04  1.671101e-07
     94    113   2   0.50000     0.1400000    0.0300000   2.494471e-04  1.671101e-07
    110     97   2   0.50000     0.0600000   -0.4000000   2.066619e-04  7.875431e-08
    110    112   2   0.50000     0.0600000    0.0300000   6.128906e-05  1.496315e-08
    110    113   2   0.50000     0.0600000    0.0300000   6.128906e-05  1.496315e-08
    111     97   2   0.50000     0.0600000   -0.4000000   2.066619e-04  7.875431e-08
    111    112   2   0.50000     0.0600000    0.0300000   6.128906e-05  1.496315e-08
    111    113   2   0.50000     0.0600000    0.0300000   6.128906e-05  1.496315e-08
     95     98   2   0.50000    -0.1200000    0.2647000   1.015252e-03  1.866303e-06
    112     98   2   0.50000     0.0300000    0.2647000   2.494471e-04  1.671101e-07
    113     98   2   0.50000     0.0300000    0.2647000   2.494471e-04  1.671101e-07
     96     99   2   0.50000     0.1400000   -0.5827000   1.154213e-03  1.502983e-06
     96    100   2   0.50000     0.1400000    0.1400000   1.015252e-03  1.866303e-06
     96    114   2   0.50000     0.1400000    0.1000000   2.494471e-04  1.671101e-07
     97    115   2   0.50000    -0.4000000    0.4180000   1.653295e-06  5.040276e-12
    100    115   2   0.50000     0.1400000    0.4180000   1.995577e-06  1.069504e-11
    114    115   2   0.50000     0.1000000    0.4180000   4.903125e-07  9.576416e-13
     97    101   2   0.50000    -0.4000000   -0.4000000   6.968474e-04  4.145011e-07
     97    116   2   0.50000    -0.4000000    0.0300000   2.066619e-04  7.875431e-08
     97    117   2   0.50000    -0.4000000    0.0300000   2.066619e-04  7.875431e-08
     99    101   2   0.50000    -0.5827000   -0.4000000   9.562422e-04  7.083138e-07
     99    116   2   0.50000    -0.5827000    0.0300000   2.835898e-04  1.345781e-07
     99    117   2   0.50000    -0.5827000    0.0300000   2.835898e-04  1.345781e-07
    114    101   2   0.50000     0.1000000   -0.4000000   2.066619e-04  7.875431e-08
    114    116   2   0.50000     0.1000000    0.0300000   6.128906e-05  1.496315e-08
    114    117   2   0.50000     0.1000000    0.0300000   6.128906e-05  1.496315e-08
     98    118   2   0.50000     0.2647000    0.1400000   1.015252e-03  1.866303e-06
    116    118   2   0.50000     0.0300000    0.1400000   2.494471e-04  1.671101e-07
    117    118   2   0.50000     0.0300000    0.1400000   2.494471e-04  1.671101e-07
    100    119   2   0.50000     0.1400000    0.2050000   1.015252e-03  1.866303e-06
    100    131   2   0.50000     0.1400000    0.0300000   2.494471e-04  1.671101e-07
    100    132   2   0.50000     0.1400000    0.0300000   2.494471e-04  1.671101e-07
    101    120   2   0.50000    -0.4000000   -0.6830000   9.562422e-04  7.083138e-07
    101    121   2   0.50000    -0.4000000    0.1400000   8.411158e-04  8.795366e-07
    101    133   2   0.50000    -0.4000000    0.0600000   2.066619e-04  7.875431e-08
    131    120   2   0.50000     0.0300000   -0.6830000   2.835898e-04  1.345781e-07
    131    121   2   0.50000     0.0300000    0.1400000   2.494471e-04  1.671101e-07
    131    133   2   0.50000     0.0300000    0.0600000   6.128906e-05  1.496315e-08
    132    120   2   0.50000     0.0300000   -0.6830000   2.835898e-04  1.345781e-07
    132    121   2   0.50000     0.0300000    0.1400000   2.494471e-04  1.671101e-07
    132    133   2   0.50000     0.0300000    0.0600000   6.128906e-05  1.496315e-08
    118    134   2   0.50000     0.1400000    0.4180000   1.995577e-06  1.069504e-11
    121    134   2   0.50000     0.1400000    0.4180000   1.995577e-06  1.069504e-11
    133    134   2   0.50000     0.0600000    0.4180000   4.903125e-07  9.576416e-13
    118    122   2   0.50000     0.1400000   -0.4000000   8.411158e-04  8.795366e-07
    118    135   2   0.50000     0.1400000    0.0300000   2.494471e-04  1.671101e-07
    118    136   2   0.50000     0.1400000    0.0300000   2.494471e-04  1.671101e-07
    120    122   2   0.50000    -0.6830000   -0.4000000   9.562422e-04  7.083138e-07
    120    135   2   0.50000    -0.6830000    0.0300000   2.835898e-04  1.345781e-07
    120    136   2   0.50000    -0.6830000    0.0300000   2.835898e-04  1.345781e-07
    133    122   2   0.50000     0.0600000   -0.4000000   2.066619e-04  7.875431e-08
    133    135   2   0.50000     0.0600000    0.0300000   6.128906e-05  1.496315e-08
    133    136   2   0.50000     0.0600000    0.0300000   6.128906e-05  1.496315e-08
    119    123   2   0.50000     0.2050000    0.1400000   1.015252e-03  1.866303e-06
    135    123   2   0.50000     0.0300000    0.1400000   2.494471e-04  1.671101e-07
    136    123   2   0.50000     0.0300000    0.1400000   2.494471e-04  1.671101e-07
    121    124   2   0.50000     0.1400000   -0.1200000   1.015252e-03  1.866303e-06
    121    137   2   0.50000     0.1400000    0.0300000   2.494471e-04  1.671101e-07
    121    138   2   0.50000     0.1400000    0.0300000   2.494471e-04  1.671101e-07
    122    125   2   0.50000    -0.4000000    0.1400000   8.411158e-04  8.795366e-07
    122    139   2   0.50000    -0.4000000    0.0600000   2.066619e-04  7.875431e-08
    122    140   2   0.50000    -0.4000000    0.0600000   2.066619e-04  7.875431e-08
    137    125   2   0.50000     0.0300000    0.1400000   2.494471e-04  1.671101e-07
    137    139   2   0.50000     0.0300000    0.0600000   6.128906e-05  1.496315e-08
    137    140   2   0.50000     0.0300000    0.0600000   6.128906e-05  1.496315e-08
    138    125   2   0.50000     0.0300000    0.1400000   2.494471e-04  1.671101e-07
    138    139   2   0.50000     0.0300000    0.0600000   6.128906e-05  1.496315e-08
    138    140   2   0.50000     0.0300000    0.0600000   6.128906e-05  1.496315e-08
    123    126   2   0.50000     0.1400000   -0.4000000   8.411158e-04  8.795366e-07
    123    141   2   0.50000     0.1400000    0.0300000   2.494471e-04  1.671101e-07
    123    142   2   0.50000     0.1400000    0.0300000   2.494471e-04  1.671101e-07
    139    126   2   0.50000     0.0600000   -0.4000000   2.066619e-04  7.875431e-08
    139    141   2   0.50000     0.0600000    0.0300000   6.128906e-05  1.496315e-08
    139    142   2   0.50000     0.0600000    0.0300000   6.128906e-05  1.496315e-08
    140    126   2   0.50000     0.0600000   -0.4000000   2.066619e-04  7.875431e-08
    140    141   2   0.50000     0.0600000    0.0300000   6.128906e-05  1.496315e-08
    140    142   2   0.50000     0.0600000    0.0300000   6.128906e-05  1.496315e-08
    124    127   2   0.50000    -0.1200000    0.2647000   1.015252e-03  1.866303e-06
    141    127   2   0.50000     0.0300000    0.2647000   2.494471e-04  1.671101e-07
    142    127   2   0.50000     0.0300000    0.2647000   2.494471e-04  1.671101e-07
    125    128   2   0.50000     0.1400000   -0.5827000   1.154213e-03  1.502983e-06
    125    129   2   0.50000     0.1400000    0.1400000   1.015252e-03  1.866303e-06
    125    143   2   0.50000     0.1400000    0.1000000   2.494471e-04  1.671101e-07
    126    144   2   0.50000    -0.4000000    0.4180000   1.653295e-06  5.040276e-12
    129    144   2   0.50000     0.1400000    0.4180000   1.995577e-06  1.069504e-11
    143    144   2   0.50000     0.1000000    0.4180000   4.903125e-07  9.576416e-13
    126    130   2   0.50000    -0.4000000   -0.4000000   6.968474e-04  4.145011e-07
    126    145   2   0.50000    -0.4000000    0.0300000   2.066619e-04  7.875431e-08
    126    146   2   0.50000    -0.4000000    0.0300000   2.066619e-04  7.875431e-08
    128    130   2   0.50000    -0.5827000   -0.4000000   9.562422e-04  7.083138e-07
    128    145   2   0.50000    -0.5827000    0.0300000   2.835898e-04  1.345781e-07
    128    146   2   0.50000    -0.5827000    0.0300000   2.835898e-04  1.345781e-07
    143    130   2   0.50000     0.1000000   -0.4000000   2.066619e-04  7.875431e-08
    143    145   2   0.50000     0.1000000    0.0300000   6.128906e-05  1.496315e-08
    143    146   2   0.50000     0.1000000    0.0300000   6.128906e-05  1.496315e-08
    127    147   2   0.50000     0.2647000    0.1400000   1.015252e-03  1.866303e-06
    145    147   2   0.50000     0.0300000    0.1400000   2.494471e-04  1.671101e-07
    146    147   2   0.50000     0.0300000    0.1400000   2.494471e-04  1.671101e-07
    129    148   2   0.50000     0.1400000    0.2050000   1.015252e-03  1.866303e-06
    129    160   2   0.50000     0.1400000    0.0300000   2.494471e-04  1.671101e-07
    129    161   2   0.50000     0.1400000    0.0300000   2.494471e-04  1.671101e-07
    130    149   2   0.50000    -0.4000000   -0.6830000   9.562422e-04  7.083138e-07
    130    150   2   0.50000    -0.4000000    0.1400000   8.411158e-04  8.795366e-07
    130    162   2   0.50000    -0.4000000    0.0600000   2.066619e-04  7.875431e-08
    160    149   2   0.50000     0.0300000   -0.6830000   2.835898e-04  1.345781e-07
    160    150   2   0.50000     0.0300000    0.1400000   2.494471e-04  1.671101e-07
    160    162   2   0.50000     0.0300000    0.0600000   6.128906e-05  1.496315e-08
    161    149   2   0.50000     0.0300000   -0.6830000   2.835898e-04  1.345781e-07
    161    150   2   0.50000     0.0300000    0.1400000   2.494471e-04  1.671101e-07
    161    162   2   0.50000     0.0300000    0.0600000   6.128906e-05  1.496315e-08
    147    163   2   0.50000     0.1400000    0.4180000   1.995577e-06  1.069504e-11
    150    163   2   0.50000     0.1400000    0.4180000   1.995577e-06  1.069504e-11
    162    163   2   0.50000     0.0600000    0.4180000   4.903125e-07  9.576416e-13
    147    151   2   0.50000     0.1400000   -0.4000000   8.411158e-04  8.795366e-07
    147    164   2   0.50000     0.1400000    0.0300000   2.494471e-04  1.671101e-07
    147    165   2   0.50000     0.1400000    0.0300000   2.494471e-04  1.671101e-07
    149    151   2   0.50000    -0.6830000   -0.4000000   9.562422e-04  7.083138e-07
    149    164   2   0.50000    -0.6830000    0.0300000   2.835898e-04  1.345781e-07
    149    165   2   0.50000    -0.6830000    0.0300000   2.835898e-04  1.345781e-07
    162    151   2   0.50000     0.0600000   -0.4000000   2.066619e-04  7.875431e-08
    162    164   2   0.50000     0.0600000    0.0300000   6.128906e-05  1.496315e-08
    162    165   2   0.50000     0.0600000    0.0300000   6.128906e-05  1.496315e-08
    148    152   2   0.50000     0.2050000    0.1400000   1.015252e-03  1.866303e-06
    164    152   2   0.50000     0.0300000    0.1400000   2.494471e-04  1.671101e-07
    165    152   2   0.50000     0.0300000    0.1400000   2.494471e-04  1.671101e-07
    150    153   2   0.50000     0.1400000   -0.1200000   1.015252e-03  1.866303e-06
    150    166   2   0.50000     0.1400000    0.0300000   2.494471e-04  1.671101e-07
    150    167   2   0.50000     0.1400000    0.0300000   2.494471e-04  1.671101e-07
    151    154   2   0.50000    -0.4000000    0.1400000   8.411158e-04  8.795366e-07
    151    168   2   0.50000    -0.4000000    0.0600000   2.066619e-04  7.875431e-08
    151    169   2   0.50000    -0.4000000    0.0600000   2.066619e-04  7.875431e-08
    166    154   2   0.50000     0.0300000    0.1400000   2.494471e-04  1.671101e-07
    166    168   2   0.50000     0.0300000    0.0600000   6.128906e-05  1.496315e-08
    166    169   2   0.50000     0.0300000    0.0600000   6.128906e-05  1.496315e-08
    167    154   2   0.50000     0.0300000    0.1400000   2.494471e-04  1.671101e-07
    167    168   2   0.50000     0.0300000    0.0600000   6.128906e-05  1.496315e-08
    167    169   2   0.50000     0.0300000    0.0600000   6.128906e-05  1.496315e-08
    152    155   2   0.50000     0.1400000   -0.4000000   8.411158e-04  8.795366e-07
    152    170   2   0.50000     0.1400000    0.0300000   2.494471e-04  1.671101e-07
    152    171   2   0.50000     0.1400000    0.0300000   2.494471e-04  1.671101e-07
    168    155   2   0.50000     0.0600000   -0.4000000   2.066619e-04  7.875431e-08
    168    170   2   0.50000     0.0600000    0.0300000   6.128906e-05  1.496315e-08
    168    171   2   0.50000     0.0600000    0.0300000   6.128906e-05  1.496315e-08
    169    155   2   0.50000     0.0600000   -0.4000000   2.066619e-04  7.875431e-08
    169    170   2   0.50000     0.0600000    0.0300000   6.128906e-05  1.496315e-08
    169    171   2   0.50000     0.0600000    0.0300000   6.128906e-05  1.496315e-08
    153    156   2   0.50000    -0.1200000    0.2647000   1.015252e-03  1.866303e-06
    170    156   2   0.50000     0.0300000    0.2647000   2.494471e-04  1.671101e-07
    171    156   2   0.50000     0.0300000    0.2647000   2.494471e-04  1.671101e-07
    154    157   2   0.50000     0.1400000   -0.5827000   1.154213e-03  1.502983e-06
    154    158   2   0.50000     0.1400000    0.1400000   1.015252e-03  1.866303e-06
    154    172   2   0.50000     0.1400000    0.1000000   2.494471e-04  1.671101e-07
    155    173   2   0.50000    -0.4000000    0.4180000   1.653295e-06  5.040276e-12
    158    173   2   0.50000     0.1400000    0.4180000   1.995577e-06  1.069504e-11
    172    173   2   0.50000     0.1000000    0.4180000   4.903125e-07  9.576416e-13
    155    159   2   0.50000    -0.4000000   -0.4000000   6.968474e-04  4.145011e-07
    155    174   2   0.50000    -0.4000000    0.0300000   2.066619e-04  7.875431e-08
    155    175   2   0.50000    -0.4000000    0.0300000   2.066619e-04  7.875431e-08
    157    159   2   0.50000    -0.5827000   -0.4000000   9.562422e-04  7.083138e-07
    157    174   2   0.50000    -0.5827000    0.0300000   2.835898e-04  1.345781e-07
    157    175   2   0.50000    -0.5827000    0.0300000   2.835898e-04  1.345781e-07
    172    159   2   0.50000     0.1000000   -0.4000000   2.066619e-04  7.875431e-08
    172    174   2   0.50000     0.1000000    0.0300000   6.128906e-05  1.496315e-08
    172    175   2   0.50000     0.1000000    0.0300000   6.128906e-05  1.496315e-08
    156    176   2   0.50000     0.2647000    0.1400000   1.015252e-03  1.866303e-06
    174    176   2   0.50000     0.0300000    0.1400000   2.494471e-04  1.671101e-07
    175    176   2   0.50000     0.0300000    0.1400000   2.494471e-04  1.671101e-07
    158    177   2   0.50000     0.1400000    0.2050000   1.015252e-03  1.866303e-06
    158    189   2   0.50000     0.1400000    0.0300000   2.494471e-04  1.671101e-07
    158    190   2   0.50000     0.1400000    0.0300000   2.494471e-04  1.671101e-07
    159    178   2   0.50000    -0.4000000   -0.6830000   9.562422e-04  7.083138e-07
    159    179   2   0.50000    -0.4000000    0.1400000   8.411158e-04  8.795366e-07
    159    191   2   0.50000    -0.4000000    0.0600000   2.066619e-04  7.875431e-08
    189    178   2   0.50000     0.0300000   -0.6830000   2.835898e-04  1.345781e-07
    189    179   2   0.50000     0.0300000    0.1400000   2.494471e-04  1.671101e-07
    189    191   2   0.50000     0.0300000    0.0600000   6.128906e-05  1.496315e-08
    190    178   2   0.50000     0.0300000   -0.6830000   2.835898e-04  1.345781e-07
    190    179   2   0.50000     0.0300000    0.1400000   2.494471e-04  1.671101e-07
    190    191   2   0.50000     0.0300000    0.0600000   6.128906e-05  1.496315e-08
    176    192   2   0.50000     0.1400000    0.4180000   1.995577e-06  1.069504e-11
    179    192   2   0.50000     0.1400000    0.4180000   1.995577e-06  1.069504e-11
    191    192   2   0.50000     0.0600000    0.4180000   4.903125e-07  9.576416e-13
    176    180   2   0.50000     0.1400000   -0.4000000   8.411158e-04  8.795366e-07
    176    193   2   0.50000     0.1400000    0.0300000   2.494471e-04  1.671101e-07
    176    194   2   0.50000     0.1400000    0.0300000   2.494471e-04  1.671101e-07
    178    180   2   0.50000    -0.6830000   -0.4000000   9.562422e-04  7.083138e-07
    178    193   2   0.50000    -0.6830000    0.0300000   2.835898e-04  1.345781e-07
    178    194   2   0.50000    -0.6830000    0.0300000   2.835898e-04  1.345781e-07
    191    180   2   0.50000     0.0600000   -0.4000000   2.066619e-04  7.875431e-08
    191    193   2   0.50000     0.0600000    0.0300000   6.128906e-05  1.496315e-08
    191    194   2   0.50000     0.0600000    0.0300000   6.128906e-05  1.496315e-08
    177    181   2   0.50000     0.2050000    0.1400000   1.015252e-03  1.866303e-06
    193    181   2   0.50000     0.0300000    0.1400000   2.494471e-04  1.671101e-07
    194    181   2   0.50000     0.0300000    0.1400000   2.494471e-04  1.671101e-07
    179    182   2   0.50000     0.1400000   -0.1200000   1.015252e-03  1.866303e-06
    179    195   2   0.50000     0.1400000    0.0300000   2.494471e-04  1.671101e-07
    179    196   2   0.50000     0.1400000    0.0300000   2.494471e-04  1.671101e-07
    180    183   2   0.50000    -0.4000000    0.1400000   8.411158e-04  8.795366e-07
    180    197   2   0.50000    -0.4000000    0.0600000   2.066619e-04  7.875431e-08
    180    198   2   0.50000    -0.4000000    0.0600000   2.066619e-04  7.875431e-08
    195    183   2   0.50000     0.0300000    0.1400000   2.494471e-04  1.671101e-07
    195    197   2   0.50000     0.0300000    0.0600000   6.128906e-05  1.496315e-08
    195    198   2   0.50000     0.0300000    0.0600000   6.128906e-05  1.496315e-08
    196    183   2   0.50000     0.0300000    0.1400000   2.494471e-04  1.671101e-07
    196    197   2   0.50000     0.0300000    0.0600000   6.128906e-05  1.496315e-08
    196    198   2   0.50000     0.0300000    0.0600000   6.128906e-05  1.496315e-08
    181    184   2   0.50000     0.1400000   -0.4000000   8.411158e-04  8.795366e-07
    181    199   2   0.50000     0.1400000    0.0300000   2.494471e-04  1.671101e-07
    181    200   2   0.50000     0.1400000    0.0300000   2.494471e-04  1.671101e-07
    197    184   2   0.50000     0.0600000   -0.4000000   2.066619e-04  7.875431e-08
    197    199   2   0.50000     0.0600000    0.0300000   6.128906e-05  1.496315e-08
    197    200   2   0.50000     0.0600000    0.0300000   6.128906e-05  1.496315e-08
    198    184   2   0.50000     0.0600000   -0.4000000   2.066619e-04  7.875431e-08
    198    199   2   0.50000     0.0600000    0.0300000   6.128906e-05  1.496315e-08
    198    200   2   0.50000     0.0600000    0.0300000   6.128906e-05  1.496315e-08
    182    185   2   0.50000    -0.1200000    0.2647000   1.015252e-03  1.866303e-06
    199    185   2   0.50000     0.0300000    0.2647000   2.494471e-04  1.671101e-07
    200    185   2   0.50000     0.0300000    0.2647000   2.494471e-04  1.671101e-07
    183    186   2   0.50000     0.1400000   -0.5827000   1.154213e-03  1.502983e-06
    183    187   2   0.50000     0.1400000    0.1400000   1.015252e-03  1.866303e-06
    183    201   2   0.50000     0.1400000    0.1000000   2.494471e-04  1.671101e-07
    184    202   2   0.50000    -0.4000000    0.4180000   1.653295e-06  5.040276e-12
    187    202   2   0.50000     0.1400000    0.4180000   1.995577e-06  1.069504e-11
    201    202   2   0.50000     0.1000000    0.4180000   4.903125e-07  9.576416e-13
    184    188   2   0.50000    -0.4000000   -0.4000000   6.968474e-04  4.145011e-07
    184    203   2   0.50000    -0.4000000    0.0300000   2.066619e-04  7.875431e-08
    184    204   2   0.50000    -0.4000000    0.0300000   2.066619e-04  7.875431e-08
    186    188   2   0.50000    -0.5827000   -0.4000000   9.562422e-04  7.083138e-07
    186    203   2   0.50000    -0.5827000    0.0300000   2.835898e-04  1.345781e-07
    186    204   2   0.50000    -0.5827000    0.0300000   2.835898e-04  1.345781e-07
    201    188   2   0.50000     0.1000000   -0.4000000   2.066619e-04  7.875431e-08
    201    203   2   0.50000     0.1000000    0.0300000   6.128906e-05  1.496315e-08
    201    204   2   0.50000     0.1000000    0.0300000   6.128906e-05  1.496315e-08
    185    205   2   0.50000     0.2647000    0.1400000   1.015252e-03  1.866303e-06
    203    205   2   0.50000     0.0300000    0.1400000   2.494471e-04  1.671101e-07
    204    205   2   0.50000     0.0300000    0.1400000   2.494471e-04  1.671101e-07
    187    206   2   0.50000     0.1400000    0.2050000   1.015252e-03  1.866303e-06
    187    218   2   0.50000     0.1400000    0.0300000   2.494471e-04  1.671101e-07
    187    219   2   0.50000     0.1400000    0.0300000   2.494471e-04  1.671101e-07
    188    207   2   0.50000    -0.4000000   -0.6830000   9.562422e-04  7.083138e-07
    188    208   2   0.50000    -0.4000000    0.1400000   8.411158e-04  8.795366e-07
    188    220   2   0.50000    -0.4000000    0.0600000   2.066619e-04  7.875431e-08
    218    207   2   0.50000     0.0300000   -0.6830000   2.835898e-04  1.345781e-07
    218    208   2   0.50000     0.0300000    0.1400000   2.494471e-04  1.671101e-07
    218    220   2   0.50000     0.0300000    0.0600000   6.128906e-05  1.496315e-08
    219    207   2   0.50000     0.0300000   -0.6830000   2.835898e-04  1.345781e-07
    219    208   2   0.50000     0.0300000    0.1400000   2.494471e-04  1.671101e-07
    219    220   2   0.50000     0.0300000    0.0600000   6.128906e-05  1.496315e-08
    205    221   2   0.50000     0.1400000    0.4180000   1.995577e-06  1.069504e-11
    208    221   2   0.50000     0.1400000    0.4180000   1.995577e-06  1.069504e-11
    220    221   2   0.50000     0.0600000    0.4180000   4.903125e-07  9.576416e-13
    205    209   2   0.50000     0.1400000   -0.4000000   8.411158e-04  8.795366e-07
    205    222   2   0.50000     0.1400000    0.0300000   2.494471e-04  1.671101e-07
    205    223   2   0.50000     0.1400000    0.0300000   2.494471e-04  1.671101e-07
    207    209   2   0.50000    -0.6830000   -0.4000000   9.562422e-04  7.083138e-07
    207    222   2   0.50000    -0.6830000    0.0300000   2.835898e-04  1.345781e-07
    207    223   2   0.50000    -0.6830000    0.0300000   2.835898e-04  1.345781e-07
    220    209   2   0.50000     0.0600000   -0.4000000   2.066619e-04  7.875431e-08
    220    222   2   0.50000     0.0600000    0.0300000   6.128906e-05  1.496315e-08
    220    223   2   0.50000     0.0600000    0.0300000   6.128906e-05  1.496315e-08
    206    210   2   0.50000     0.2050000    0.1400000   1.015252e-03  1.866303e-06
    222    210   2   0.50000     0.0300000    0.1400000   2.494471e-04  1.671101e-07
    223    210   2   0.50000     0.0300000    0.1400000   2.494471e-04  1.671101e-07
    208    211   2   0.50000     0.1400000   -0.1200000   1.015252e-03  1.866303e-06
    208    224   2   0.50000     0.1400000    0.0300000   2.494471e-04  1.671101e-07
    208    225   2   0.50000     0.1400000    0.0300000   2.494471e-04  1.671101e-07
    209    212   2   0.50000    -0.4000000    0.1400000   8.411158e-04  8.795366e-07
    209    226   2   0.50000    -0.4000000    0.0600000   2.066619e-04  7.875431e-08
    209    227   2   0.50000    -0.4000000    0.0600000   2.066619e-04  7.875431e-08
    224    212   2   0.50000     0.0300000    0.1400000   2.494471e-04  1.671101e-07
    224    226   2   0.50000     0.0300000    0.0600000   6.128906e-05  1.496315e-08
    224    227   2   0.50000     0.0300000    0.0600000   6.128906e-05  1.496315e-08
    225    212   2   0.50000     0.0300000    0.1400000   2.494471e-04  1.671101e-07
    225    226   2   0.50000     0.0300000    0.0600000   6.128906e-05  1.496315e-08
    225    227   2   0.50000     0.0300000    0.0600000   6.128906e-05  1.496315e-08
    210    213   2   0.50000     0.1400000   -0.4000000   8.411158e-04  8.795366e-07
    210    228   2   0.50000     0.1400000    0.0300000   2.494471e-04  1.671101e-07
    210    229   2   0.50000     0.1400000    0.0300000   2.494471e-04  1.671101e-07
    226    213   2   0.50000     0.0600000   -0.4000000   2.066619e-04  7.875431e-08
    226    228   2   0.50000     0.0600000    0.0300000   6.128906e-05  1.496315e-08
    226    229   2   0.50000     0.0600000    0.0300000   6.128906e-05  1.496315e-08
    227    213   2   0.50000     0.0600000   -0.4000000   2.066619e-04  7.875431e-08
    227    228   2   0.50000     0.0600000    0.0300000   6.128906e-05  1.496315e-08
    227    229   2   0.50000     0.0600000    0.0300000   6.128906e-05  1.496315e-08
    211    214   2   0.50000    -0.1200000    0.2647000   1.015252e-03  1.866303e-06
    228    214   2   0.50000     0.0300000    0.2647000   2.494471e-04  1.671101e-07
    229    214   2   0.50000     0.0300000    0.2647000   2.494471e-04  1.671101e-07
    212    215   2   0.50000     0.1400000   -0.5827000   1.154213e-03  1.502983e-06
    212    216   2   0.50000     0.1400000    0.1400000   1.015252e-03  1.866303e-06
    212    230   2   0.50000     0.1400000    0.1000000   2.494471e-04  1.671101e-07
    213    231   2   0.50000    -0.4000000    0.4180000   1.653295e-06  5.040276e-12
    216    231   2   0.50000     0.1400000    0.4180000   1.995577e-06  1.069504e-11
    230    231   2   0.50000     0.1000000    0.4180000   4.903125e-07  9.576416e-13
    213    217   2   0.50000    -0.4000000   -0.4000000   6.968474e-04  4.145011e-07
    213    232   2   0.50000    -0.4000000    0.0300000   2.066619e-04  7.875431e-08
    213    233   2   0.50000    -0.4000000    0.0300000   2.066619e-04  7.875431e-08
    215    217   2   0.50000    -0.5827000   -0.4000000   9.562422e-04  7.083138e-07
    215    232   2   0.50000    -0.5827000    0.0300000   2.835898e-04  1.345781e-07
    215    233   2   0.50000    -0.5827000    0.0300000   2.835898e-04  1.345781e-07
    230    217   2   0.50000     0.1000000   -0.4000000   2.066619e-04  7.875431e-08
    230    232   2   0.50000     0.1000000    0.0300000   6.128906e-05  1.496315e-08
    230    233   2   0.50000     0.1000000    0.0300000   6.128906e-05  1.496315e-08
    214    234   2   0.50000     0.2647000    0.1400000   1.015252e-03  1.866303e-06
    232    234   2   0.50000     0.0300000    0.1400000   2.494471e-04  1.671101e-07
    233    234   2   0.50000     0.0300000    0.1400000   2.494471e-04  1.671101e-07
    216    235   2   0.50000     0.1400000    0.2050000   1.015252e-03  1.866303e-06
    216    247   2   0.50000     0.1400000    0.0300000   2.494471e-04  1.671101e-07
    216    248   2   0.50000     0.1400000    0.0300000   2.494471e-04  1.671101e-07
    217    236   2   0.50000    -0.4000000   -0.6830000   9.562422e-04  7.083138e-07
    217    237   2   0.50000    -0.4000000    0.1400000   8.411158e-04  8.795366e-07
    217    249   2   0.50000    -0.4000000    0.0600000   2.066619e-04  7.875431e-08
    247    236   2   0.50000     0.0300000   -0.6830000   2.835898e-04  1.345781e-07
    247    237   2   0.50000     0.0300000    0.1400000   2.494471e-04  1.671101e-07
    247    249   2   0.50000     0.0300000    0.0600000   6.128906e-05  1.496315e-08
    248    236   2   0.50000     0.0300000   -0.6830000   2.835898e-04  1.345781e-07
    248    237   2   0.50000     0.0300000    0.1400000   2.494471e-04  1.671101e-07
    248    249   2   0.50000     0.0300000    0.0600000   6.128906e-05  1.496315e-08
    234    250   2   0.50000     0.1400000    0.4180000   1.995577e-06  1.069504e-11
    237    250   2   0.50000     0.1400000    0.4180000   1.995577e-06  1.069504e-11
    249    250   2   0.50000     0.0600000    0.4180000   4.903125e-07  9.576416e-13
    234    238   2   0.50000     0.1400000   -0.4000000   8.411158e-04  8.795366e-07
    234    251   2   0.50000     0.1400000    0.0300000   2.494471e-04  1.671101e-07
    234    252   2   0.50000     0.1400000    0.0300000   2.494471e-04  1.671101e-07
    236    238   2   0.50000    -0.6830000   -0.4000000   9.562422e-04  7.083138e-07
    236    251   2   0.50000    -0.6830000    0.0300000   2.835898e-04  1.345781e-07
    236    252   2   0.50000    -0.6830000    0.0300000   2.835898e-04  1.345781e-07
    249    238   2   0.50000     0.0600000   -0.4000000   2.066619e-04  7.875431e-08
    249    251   2   0.50000     0.0600000    0.0300000   6.128906e-05  1.496315e-08
    249    252   2   0.50000     0.0600000    0.0300000   6.128906e-05  1.496315e-08
    235    239   2   0.50000     0.2050000    0.1400000   1.015252e-03  1.866303e-06
    251    239   2   0.50000     0.0300000    0.1400000   2.494471e-04  1.671101e-07
    252    239   2   0.50000     0.0300000    0.1400000   2.494471e-04  1.671101e-07
    237    240   2   0.50000     0.1400000   -0.1200000   1.015252e-03  1.866303e-06
    237    253   2   0.50000     0.1400000    0.0300000   2.494471e-04  1.671101e-07
    237    254   2   0.50000     0.1400000    0.0300000   2.494471e-04  1.671101e-07
    238    241   2   0.50000    -0.4000000    0.1400000   8.411158e-04  8.795366e-07
    238    255   2   0.50000    -0.4000000    0.0600000   2.066619e-04  7.875431e-08
    238    256   2   0.50000    -0.4000000    0.0600000   2.066619e-04  7.875431e-08
    253    241   2   0.50000     0.0300000    0.1400000   2.494471e-04  1.671101e-07
    253    255   2   0.50000     0.0300000    0.0600000   6.128906e-05  1.496315e-08
    253    256   2   0.50000     0.0300000    0.0600000   6.128906e-05  1.496315e-08
    254    241   2   0.50000     0.0300000    0.1400000   2.494471e-04  1.671101e-07
    254    255   2   0.50000     0.0300000    0.0600000   6.128906e-05  1.496315e-08
    254    256   2   0.50000     0.0300000    0.0600000   6.128906e-05  1.496315e-08
    239    242   2   0.50000     0.1400000   -0.4000000   8.411158e-04  8.795366e-07
    239    257   2   0.50000     0.1400000    0.0300000   2.494471e-04  1.671101e-07
    239    258   2   0.50000     0.1400000    0.0300000   2.494471e-04  1.671101e-07
    255    242   2   0.50000     0.0600000   -0.4000000   2.066619e-04  7.875431e-08
    255    257   2   0.50000     0.0600000    0.0300000   6.128906e-05  1.496315e-08
    255    258   2   0.50000     0.0600000    0.0300000   6.128906e-05  1.496315e-08
    256    242   2   0.50000     0.0600000   -0.4000000   2.066619e-04  7.875431e-08
    256    257   2   0.50000     0.0600000    0.0300000   6.128906e-05  1.496315e-08
    256    258   2   0.50000     0.0600000    0.0300000   6.128906e-05  1.496315e-08
    240    243   2   0.50000    -0.1200000    0.2647000   1.015252e-03  1.866303e-06
    257    243   2   0.50000     0.0300000    0.2647000   2.494471e-04  1.671101e-07
    258    243   2   0.50000     0.0300000    0.2647000   2.494471e-04  1.671101e-07
    241    244   2   0.50000     0.1400000   -0.5827000   1.154213e-03  1.502983e-06
    241    245   2   0.50000     0.1400000    0.1400000   1.015252e-03  1.866303e-06
    241    259   2   0.50000     0.1400000    0.1000000   2.494471e-04  1.671101e-07
    242    260   2   0.50000    -0.4000000    0.4180000   1.653295e-06  5.040276e-12
    245    260   2   0.50000     0.1400000    0.4180000   1.995577e-06  1.069504e-11
    259    260   2   0.50000     0.1000000    0.4180000   4.903125e-07  9.576416e-13
    242    246   2   0.50000    -0.4000000   -0.4000000   6.968474e-04  4.145011e-07
    242    261   2   0.50000    -0.4000000    0.0300000   2.066619e-04  7.875431e-08
    242    262   2   0.50000    -0.4000000    0.0300000   2.066619e-04  7.875431e-08
    244    246   2   0.50000    -0.5827000   -0.4000000   9.562422e-04  7.083138e-07
    244    261   2   0.50000    -0.5827000    0.0300000   2.835898e-04  1.345781e-07
    244    262   2   0.50000    -0.5827000    0.0300000   2.835898e-04  1.345781e-07
    259    246   2   0.50000     0.1000000   -0.4000000   2.066619e-04  7.875431e-08
    259    261   2   0.50000     0.1000000    0.0300000   6.128906e-05  1.496315e-08
    259    262   2   0.50000     0.1000000    0.0300000   6.128906e-05  1.496315e-08
    243    263   2   0.50000     0.2647000    0.1400000   1.015252e-03  1.866303e-06
    261    263   2   0.50000     0.0300000    0.1400000   2.494471e-04  1.671101e-07
    262    263   2   0.50000     0.0300000    0.1400000   2.494471e-04  1.671101e-07
    245    264   2   0.50000     0.1400000    0.2050000   1.015252e-03  1.866303e-06
    245    276   2   0.50000     0.1400000    0.0300000   2.494471e-04  1.671101e-07
    245    277   2   0.50000     0.1400000    0.0300000   2.494471e-04  1.671101e-07
    246    265   2   0.50000    -0.4000000   -0.6830000   9.562422e-04  7.083138e-07
    246    266   2   0.50000    -0.4000000    0.1400000   8.411158e-04  8.795366e-07
    246    278   2   0.50000    -0.4000000    0.0600000   2.066619e-04  7.875431e-08
    276    265   2   0.50000     0.0300000   -0.6830000   2.835898e-04  1.345781e-07
    276    266   2   0.50000     0.0300000    0.1400000   2.494471e-04  1.671101e-07
    276    278   2   0.50000     0.0300000    0.0600000   6.128906e-05  1.496315e-08
    277    265   2   0.50000     0.0300000   -0.6830000   2.835898e-04  1.345781e-07
    277    266   2   0.50000     0.0300000    0.1400000   2.494471e-04  1.671101e-07
    277    278   2   0.50000     0.0300000    0.0600000   6.128906e-05  1.496315e-08
    263    279   2   0.50000     0.1400000    0.4180000   1.995577e-06  1.069504e-11
    266    279   2   0.50000     0.1400000    0.4180000   1.995577e-06  1.069504e-11
    278    279   2   0.50000     0.0600000    0.4180000   4.903125e-07  9.576416e-13
    263    267   2   0.50000     0.1400000   -0.4000000   8.411158e-04  8.795366e-07
    263    280   2   0.50000     0.1400000    0.0300000   2.494471e-04  1.671101e-07
    263    281   2   0.50000     0.1400000    0.0300000   2.494471e-04  1.671101e-07
    265    267   2   0.50000    -0.6830000   -0.4000000   9.562422e-04  7.083138e-07
    265    280   2   0.50000    -0.6830000    0.0300000   2.835898e-04  1.345781e-07
    265    281   2   0.50000    -0.6830000    0.0300000   2.835898e-04  1.345781e-07
    278    267   2   0.50000     0.0600000   -0.4000000   2.066619e-04  7.875431e-08
    278    280   2   0.50000     0.0600000    0.0300000   6.128906e-05  1.496315e-08
    278    281   2   0.50000     0.0600000    0.0300000   6.128906e-05  1.496315e-08
    264    268   2   0.50000     0.2050000    0.1400000   1.015252e-03  1.866303e-06
    280    268   2   0.50000     0.0300000    0.1400000   2.494471e-04  1.671101e-07
    281    268   2   0.50000     0.0300000    0.1400000   2.494471e-04  1.671101e-07
    266    269   2   0.50000     0.1400000   -0.1200000   1.015252e-03  1.866303e-06
    266    282   2   0.50000     0.1400000    0.0300000   2.494471e-04  1.671101e-07
    266    283   2   0.50000     0.1400000    0.0300000   2.494471e-04  1.671101e-07
    267    270   2   0.50000    -0.4000000    0.1400000   8.411158e-04  8.795366e-07
    267    284   2   0.50000    -0.4000000    0.0600000   2.066619e-04  7.875431e-08
    267    285   2   0.50000    -0.4000000    0.0600000   2.066619e-04  7.875431e-08
    282    270   2   0.50000     0.0300000    0.1400000   2.494471e-04  1.671101e-07
    282    284   2   0.50000     0.0300000    0.0600000   6.128906e-05  1.496315e-08
    282    285   2   0.50000     0.0300000    0.0600000   6.128906e-05  1.496315e-08
    283    270   2   0.50000     0.0300000    0.1400000   2.494471e-04  1.671101e-07
    283    284   2   0.50000     0.0300000    0.0600000   6.128906e-05  1.496315e-08
    283    285   2   0.50000     0.0300000    0.0600000   6.128906e-05  1.496315e-08
    268    271   2   0.50000     0.1400000   -0.4000000   8.411158e-04  8.795366e-07
    268    286   2   0.50000     0.1400000    0.0300000   2.494471e-04  1.671101e-07
    268    287   2   0.50000     0.1400000    0.0300000   2.494471e-04  1.671101e-07
    284    271   2   0.50000     0.0600000   -0.4000000   2.066619e-04  7.875431e-08
    284    286   2   0.50000     0.0600000    0.0300000   6.128906e-05  1.496315e-08
    284    287   2   0.50000     0.0600000    0.0300000   6.128906e-05  1.496315e-08
    285    271   2   0.50000     0.0600000   -0.4000000   2.066619e-04  7.875431e-08
    285    286   2   0.50000     0.0600000    0.0300000   6.128906e-05  1.496315e-08
    285    287   2   0.50000     0.0600000    0.0300000   6.128906e-05  1.496315e-08
    269    272   2   0.50000    -0.1200000    0.2647000   1.015252e-03  1.866303e-06
    286    272   2   0.50000     0.0300000    0.2647000   2.494471e-04  1.671101e-07
    287    272   2   0.50000     0.0300000    0.2647000   2.494471e-04  1.671101e-07
    270    273   2   0.50000     0.1400000   -0.5827000   1.154213e-03  1.502983e-06
    270    274   2   0.50000     0.1400000    0.1400000   1.015252e-03  1.866303e-06
    270    288   2   0.50000     0.1400000    0.1000000   2.494471e-04  1.671101e-07
    271    289   2   0.50000    -0.4000000    0.4180000   1.653295e-06  5.040276e-12
    274    289   2   0.50000     0.1400000    0.4180000   1.995577e-06  1.069504e-11
    288    289   2   0.50000     0.1000000    0.4180000   4.903125e-07  9.576416e-13
    271    275   2   0.50000    -0.4000000   -0.4000000   6.968474e-04  4.145011e-07
    271    290   2   0.50000    -0.4000000    0.0300000   2.066619e-04  7.875431e-08
    271    291   2   0.50000    -0.4000000    0.0300000   2.066619e-04  7.875431e-08
    273    275   2   0.50000    -0.5827000   -0.4000000   9.562422e-04  7.083138e-07
    273    290   2   0.50000    -0.5827000    0.0300000   2.835898e-04  1.345781e-07
    273    291   2   0.50000    -0.5827000    0.0300000   2.835898e-04  1.345781e-07
    288    275   2   0.50000     0.1000000   -0.4000000   2.066619e-04  7.875431e-08
    288    290   2   0.50000     0.1000000    0.0300000   6.128906e-05  1.496315e-08
    288    291   2   0.50000     0.1000000    0.0300000   6.128906e-05  1.496315e-08
    272    292   2   0.50000     0.2647000    0.1400000   1.015252e-03  1.866303e-06
    290    292   2   0.50000     0.0300000    0.1400000   2.494471e-04  1.671101e-07
    291    292   2   0.50000     0.0300000    0.1400000   2.494471e-04  1.671101e-07
    274    293   2   0.50000     0.1400000    0.2050000   1.015252e-03  1.866303e-06
    274    305   2   0.50000     0.1400000    0.0300000   2.494471e-04  1.671101e-07
    274    306   2   0.50000     0.1400000    0.0300000   2.494471e-04  1.671101e-07
    275    294   2   0.50000    -0.4000000   -0.6830000   9.562422e-04  7.083138e-07
    275    295   2   0.50000    -0.4000000    0.1400000   8.411158e-04  8.795366e-07
    275    307   2   0.50000    -0.4000000    0.0600000   2.066619e-04  7.875431e-08
    305    294   2   0.50000     0.0300000   -0.6830000   2.835898e-04  1.345781e-07
    305    295   2   0.50000     0.0300000    0.1400000   2.494471e-04  1.671101e-07
    305    307   2   0.50000     0.0300000    0.0600000   6.128906e-05  1.496315e-08
    306    294   2   0.50000     0.0300000   -0.6830000   2.835898e-04  1.345781e-07
    306    295   2   0.50000     0.0300000    0.1400000   2.494471e-04  1.671101e-07
    306    307   2   0.50000     0.0300000    0.0600000   6.128906e-05  1.496315e-08
    292    308   2   0.50000     0.1400000    0.4180000   1.995577e-06  1.069504e-11
    295    308   2   0.50000     0.1400000    0.4180000   1.995577e-06  1.069504e-11
    307    308   2   0.50000     0.0600000    0.4180000   4.903125e-07  9.576416e-13
    292    296   2   0.50000     0.1400000   -0.4000000   8.411158e-04  8.795366e-07
    292    309   2   0.50000     0.1400000    0.0300000   2.494471e-04  1.671101e-07
    292    310   2   0.50000     0.1400000    0.0300000   2.494471e-04  1.671101e-07
    294    296   2   0.50000    -0.6830000   -0.4000000   9.562422e-04  7.083138e-07
    294    309   2   0.50000    -0.6830000    0.0300000   2.835898e-04  1.345781e-07
    294    310   2   0.50000    -0.6830000    0.0300000   2.835898e-04  1.345781e-07
    307    296   2   0.50000     0.0600000   -0.4000000   2.066619e-04  7.875431e-08
    307    309   2   0.50000     0.0600000    0.0300000   6.128906e-05  1.496315e-08
    307    310   2   0.50000     0.0600000    0.0300000   6.128906e-05  1.496315e-08
    293    297   2   0.50000     0.2050000    0.1400000   1.015252e-03  1.866303e-06
    309    297   2   0.50000     0.0300000    0.1400000   2.494471e-04  1.671101e-07
    310    297   2   0.50000     0.0300000    0.1400000   2.494471e-04  1.671101e-07
    295    298   2   0.50000     0.1400000   -0.1200000   1.015252e-03  1.866303e-06
    295    311   2   0.50000     0.1400000    0.0300000   2.494471e-04  1.671101e-07
    295    312   2   0.50000     0.1400000    0.0300000   2.494471e-04  1.671101e-07
    296    299   2   0.50000    -0.4000000    0.1400000   8.411158e-04  8.795366e-07
    296    313   2   0.50000    -0.4000000    0.0600000   2.066619e-04  7.875431e-08
    296    314   2   0.50000    -0.4000000    0.0600000   2.066619e-04  7.875431e-08
    311    299   2   0.50000     0.0300000    0.1400000   2.494471e-04  1.671101e-07
    311    313   2   0.50000     0.0300000    0.0600000   6.128906e-05  1.496315e-08
    311    314   2   0.50000     0.0300000    0.0600000   6.128906e-05  1.496315e-08
    312    299   2   0.50000     0.0300000    0.1400000   2.494471e-04  1.671101e-07
    312    313   2   0.50000     0.0300000    0.0600000   6.128906e-05  1.496315e-08
    312    314   2   0.50000     0.0300000    0.0600000   6.128906e-05  1.496315e-08
    297    300   2   0.50000     0.1400000   -0.4000000   8.411158e-04  8.795366e-07
    297    315   2   0.50000     0.1400000    0.0300000   2.494471e-04  1.671101e-07
    297    316   2   0.50000     0.1400000    0.0300000   2.494471e-04  1.671101e-07
    313    300   2   0.50000     0.0600000   -0.4000000   2.066619e-04  7.875431e-08
    313    315   2   0.50000     0.0600000    0.0300000   6.128906e-05  1.496315e-08
    313    316   2   0.50000     0.0600000    0.0300000   6.128906e-05  1.496315e-08
    314    300   2   0.50000     0.0600000   -0.4000000   2.066619e-04  7.875431e-08
    314    315   2   0.50000     0.0600000    0.0300000   6.128906e-05  1.496315e-08
    314    316   2   0.50000     0.0600000    0.0300000   6.128906e-05  1.496315e-08
    298    301   2   0.50000    -0.1200000    0.2647000   1.015252e-03  1.866303e-06
    315    301   2   0.50000     0.0300000    0.2647000   2.494471e-04  1.671101e-07
    316    301   2   0.50000     0.0300000    0.2647000   2.494471e-04  1.671101e-07
    299    302   2   0.50000     0.1400000   -0.5827000   1.154213e-03  1.502983e-06
    299    303   2   0.50000     0.1400000    0.1400000   1.015252e-03  1.866303e-06
    299    317   2   0.50000     0.1400000    0.1000000   2.494471e-04  1.671101e-07
    300    318   2   0.50000    -0.4000000    0.4180000   1.653295e-06  5.040276e-12
    303    318   2   0.50000     0.1400000    0.4180000   1.995577e-06  1.069504e-11
    317    318   2   0.50000     0.1000000    0.4180000   4.903125e-07  9.576416e-13
    300    304   2   0.50000    -0.4000000   -0.4000000   6.968474e-04  4.145011e-07
    300    319   2   0.50000    -0.4000000    0.0300000   2.066619e-04  7.875431e-08
    300    320   2   0.50000    -0.4000000    0.0300000   2.066619e-04  7.875431e-08
    302    304   2   0.50000    -0.5827000   -0.4000000   9.562422e-04  7.083138e-07
    302    319   2   0.50000    -0.5827000    0.0300000   2.835898e-04  1.345781e-07
    302    320   2   0.50000    -0.5827000    0.0300000   2.835898e-04  1.345781e-07
    317    304   2   0.50000     0.1000000   -0.4000000   2.066619e-04  7.875431e-08
    317    319   2   0.50000     0.1000000    0.0300000   6.128906e-05  1.496315e-08
    317    320   2   0.50000     0.1000000    0.0300000   6.128906e-05  1.496315e-08
    301    321   2   0.50000     0.2647000    0.1400000   1.015252e-03  1.866303e-06
    319    321   2   0.50000     0.0300000    0.1400000   2.494471e-04  1.671101e-07
    320    321   2   0.50000     0.0300000    0.1400000   2.494471e-04  1.671101e-07
    303    322   2   0.50000     0.1400000    0.2050000   1.015252e-03  1.866303e-06
    303    334   2   0.50000     0.1400000    0.0300000   2.494471e-04  1.671101e-07
    303    335   2   0.50000     0.1400000    0.0300000   2.494471e-04  1.671101e-07
    304    323   2   0.50000    -0.4000000   -0.6830000   9.562422e-04  7.083138e-07
    304    324   2   0.50000    -0.4000000    0.1400000   8.411158e-04  8.795366e-07
    304    336   2   0.50000    -0.4000000    0.0600000   2.066619e-04  7.875431e-08
    334    323   2   0.50000     0.0300000   -0.6830000   2.835898e-04  1.345781e-07
    334    324   2   0.50000     0.0300000    0.1400000   2.494471e-04  1.671101e-07
    334    336   2   0.50000     0.0300000    0.0600000   6.128906e-05  1.496315e-08
    335    323   2   0.50000     0.0300000   -0.6830000   2.835898e-04  1.345781e-07
    335    324   2   0.50000     0.0300000    0.1400000   2.494471e-04  1.671101e-07
    335    336   2   0.50000     0.0300000    0.0600000   6.128906e-05  1.496315e-08
    321    337   2   0.50000     0.1400000    0.4180000   1.995577e-06  1.069504e-11
    324    337   2   0.50000     0.1400000    0.4180000   1.995577e-06  1.069504e-11
    336    337   2   0.50000     0.0600000    0.4180000   4.903125e-07  9.576416e-13
    321    325   2   0.50000     0.1400000   -0.4000000   8.411158e-04  8.795366e-07
    321    338   2   0.50000     0.1400000    0.0300000   2.494471e-04  1.671101e-07
    321    339   2   0.50000     0.1400000    0.0300000   2.494471e-04  1.671101e-07
    323    325   2   0.50000    -0.6830000   -0.4000000   9.562422e-04  7.083138e-07
    323    338   2   0.50000    -0.6830000    0.0300000   2.835898e-04  1.345781e-07
    323    339   2   0.50000    -0.6830000    0.0300000   2.835898e-04  1.345781e-07
    336    325   2   0.50000     0.0600000   -0.4000000   2.066619e-04  7.875431e-08
    336    338   2   0.50000     0.0600000    0.0300000   6.128906e-05  1.496315e-08
    336    339   2   0.50000     0.0600000    0.0300000   6.128906e-05  1.496315e-08
    322    326   2   0.50000     0.2050000    0.1400000   1.015252e-03  1.866303e-06
    338    326   2   0.50000     0.0300000    0.1400000   2.494471e-04  1.671101e-07
    339    326   2   0.50000     0.0300000    0.1400000   2.494471e-04  1.671101e-07
    324    327   2   0.50000     0.1400000   -0.1200000   1.015252e-03  1.866303e-06
    324    340   2   0.50000     0.1400000    0.0300000   2.494471e-04  1.671101e-07
    324    341   2   0.50000     0.1400000    0.0300000   2.494471e-04  1.671101e-07
    325    328   2   0.50000    -0.4000000    0.1400000   8.411158e-04  8.795366e-07
    325    342   2   0.50000    -0.4000000    0.0600000   2.066619e-04  7.875431e-08
    325    343   2   0.50000    -0.4000000    0.0600000   2.066619e-04  7.875431e-08
    340    328   2   0.50000     0.0300000    0.1400000   2.494471e-04  1.671101e-07
    340    342   2   0.50000     0.0300000    0.0600000   6.128906e-05  1.496315e-08
    340    343   2   0.50000     0.0300000    0.0600000   6.128906e-05  1.496315e-08
    341    328   2   0.50000     0.0300000    0.1400000   2.494471e-04  1.671101e-07
    341    342   2   0.50000     0.0300000    0.0600000   6.128906e-05  1.496315e-08
    341    343   2   0.50000     0.0300000    0.0600000   6.128906e-05  1.496315e-08
    326    329   2   0.50000     0.1400000   -0.4000000   8.411158e-04  8.795366e-07
    326    344   2   0.50000     0.1400000    0.0300000   2.494471e-04  1.671101e-07
    326    345   2   0.50000     0.1400000    0.0300000   2.494471e-04  1.671101e-07
    342    329   2   0.50000     0.0600000   -0.4000000   2.066619e-04  7.875431e-08
    342    344   2   0.50000     0.0600000    0.0300000   6.128906e-05  1.496315e-08
    342    345   2   0.50000     0.0600000    0.0300000   6.128906e-05  1.496315e-08
    343    329   2   0.50000     0.0600000   -0.4000000   2.066619e-04  7.875431e-08
    343    344   2   0.50000     0.0600000    0.0300000   6.128906e-05  1.496315e-08
    343    345   2   0.50000     0.0600000    0.0300000   6.128906e-05  1.496315e-08
    327    330   2   0.50000    -0.1200000    0.2647000   1.015252e-03  1.866303e-06
    344    330   2   0.50000     0.0300000    0.2647000   2.494471e-04  1.671101e-07
    345    330   2   0.50000     0.0300000    0.2647000   2.494471e-04  1.671101e-07
    328    331   2   0.50000     0.1400000   -0.5827000   1.154213e-03  1.502983e-06
    328    332   2   0.50000     0.1400000    0.1400000   1.015252e-03  1.866303e-06
    328    346   2   0.50000     0.1400000    0.1000000   2.494471e-04  1.671101e-07
    329    347   2   0.50000    -0.4000000    0.4180000   1.653295e-06  5.040276e-12
    332    347   2   0.50000     0.1400000    0.4180000   1.995577e-06  1.069504e-11
    346    347   2   0.50000     0.1000000    0.4180000   4.903125e-07  9.576416e-13
    329    333   2   0.50000    -0.4000000   -0.4000000   6.968474e-04  4.145011e-07
    329    348   2   0.50000    -0.4000000    0.0300000   2.066619e-04  7.875431e-08
    329    349   2   0.50000    -0.4000000    0.0300000   2.066619e-04  7.875431e-08
    331    333   2   0.50000    -0.5827000   -0.4000000   9.562422e-04  7.083138e-07
    331    348   2   0.50000    -0.5827000    0.0300000   2.835898e-04  1.345781e-07
    331    349   2   0.50000    -0.5827000    0.0300000   2.835898e-04  1.345781e-07
    346    333   2   0.50000     0.1000000   -0.4000000   2.066619e-04  7.875431e-08
    346    348   2   0.50000     0.1000000    0.0300000   6.128906e-05  1.496315e-08
    346    349   2   0.50000     0.1000000    0.0300000   6.128906e-05  1.496315e-08
    330    350   2   0.50000     0.2647000    0.1400000   1.015252e-03  1.866303e-06
    348    350   2   0.50000     0.0300000    0.1400000   2.494471e-04  1.671101e-07
    349    350   2   0.50000     0.0300000    0.1400000   2.494471e-04  1.671101e-07
    332    351   2   0.50000     0.1400000    0.2050000   1.015252e-03  1.866303e-06
    332    363   2   0.50000     0.1400000    0.0300000   2.494471e-04  1.671101e-07
    332    364   2   0.50000     0.1400000    0.0300000   2.494471e-04  1.671101e-07
    333    352   2   0.50000    -0.4000000   -0.6830000   9.562422e-04  7.083138e-07
    333    353   2   0.50000    -0.4000000    0.1400000   8.411158e-04  8.795366e-07
    333    365   2   0.50000    -0.4000000    0.0600000   2.066619e-04  7.875431e-08
    363    352   2   0.50000     0.0300000   -0.6830000   2.835898e-04  1.345781e-07
    363    353   2   0.50000     0.0300000    0.1400000   2.494471e-04  1.671101e-07
    363    365   2   0.50000     0.0300000    0.0600000   6.128906e-05  1.496315e-08
    364    352   2   0.50000     0.0300000   -0.6830000   2.835898e-04  1.345781e-07
    364    353   2   0.50000     0.0300000    0.1400000   2.494471e-04  1.671101e-07
    364    365   2   0.50000     0.0300000    0.0600000   6.128906e-05  1.496315e-08
    350    366   2   0.50000     0.1400000    0.4180000   1.995577e-06  1.069504e-11
    353    366   2   0.50000     0.1400000    0.4180000   1.995577e-06  1.069504e-11
    365    366   2   0.50000     0.0600000    0.4180000   4.903125e-07  9.576416e-13
    350    354   2   0.50000     0.1400000   -0.4000000   8.411158e-04  8.795366e-07
    350    367   2   0.50000     0.1400000    0.0300000   2.494471e-04  1.671101e-07
    350    368   2   0.50000     0.1400000    0.0300000   2.494471e-04  1.671101e-07
    352    354   2   0.50000    -0.6830000   -0.4000000   9.562422e-04  7.083138e-07
    352    367   2   0.50000    -0.6830000    0.0300000   2.835898e-04  1.345781e-07
    352    368   2   0.50000    -0.6830000    0.0300000   2.835898e-04  1.345781e-07
    365    354   2   0.50000     0.0600000   -0.4000000   2.066619e-04  7.875431e-08
    365    367   2   0.50000     0.0600000    0.0300000   6.128906e-05  1.496315e-08
    365    368   2   0.50000     0.0600000    0.0300000   6.128906e-05  1.496315e-08
    351    355   2   0.50000     0.2050000    0.1400000   1.015252e-03  1.866303e-06
    367    355   2   0.50000     0.0300000    0.1400000   2.494471e-04  1.671101e-07
    368    355   2   0.50000     0.0300000    0.1400000   2.494471e-04  1.671101e-07
    353    356   2   0.50000     0.1400000   -0.1200000   1.015252e-03  1.866303e-06
    353    369   2   0.50000     0.1400000    0.0300000   2.494471e-04  1.671101e-07
    353    370   2   0.50000     0.1400000    0.0300000   2.494471e-04  1.671101e-07
    354    357   2   0.50000    -0.4000000    0.1400000   8.411158e-04  8.795366e-07
    354    371   2   0.50000    -0.4000000    0.0600000   2.066619e-04  7.875431e-08
    354    372   2   0.50000    -0.4000000    0.0600000   2.066619e-04  7.875431e-08
    369    357   2   0.50000     0.0300000    0.1400000   2.494471e-04  1.671101e-07
    369    371   2   0.50000     0.0300000    0.0600000   6.128906e-05  1.496315e-08
    369    372   2   0.50000     0.0300000    0.0600000   6.128906e-05  1.496315e-08
    370    357   2   0.50000     0.0300000    0.1400000   2.494471e-04  1.671101e-07
    370    371   2   0.50000     0.0300000    0.0600000   6.128906e-05  1.496315e-08
    370    372   2   0.50000     0.0300000    0.0600000   6.128906e-05  1.496315e-08
    355    358   2   0.50000     0.1400000   -0.4000000   8.411158e-04  8.795366e-07
    355    373   2   0.50000     0.1400000    0.0300000   2.494471e-04  1.671101e-07
    355    374   2   0.50000     0.1400000    0.0300000   2.494471e-04  1.671101e-07
    371    358   2   0.50000     0.0600000   -0.4000000   2.066619e-04  7.875431e-08
    371    373   2   0.50000     0.0600000    0.0300000   6.128906e-05  1.496315e-08
    371    374   2   0.50000     0.0600000    0.0300000   6.128906e-05  1.496315e-08
    372    358   2   0.50000     0.0600000   -0.4000000   2.066619e-04  7.875431e-08
    372    373   2   0.50000     0.0600000    0.0300000   6.128906e-05  1.496315e-08
    372    374   2   0.50000     0.0600000    0.0300000   6.128906e-05  1.496315e-08
    356    359   2   0.50000    -0.1200000    0.2647000   1.015252e-03  1.866303e-06
    373    359   2   0.50000     0.0300000    0.2647000   2.494471e-04  1.671101e-07
    374    359   2   0.50000     0.0300000    0.2647000   2.494471e-04  1.671101e-07
    357    360   2   0.50000     0.1400000   -0.5827000   1.154213e-03  1.502983e-06
    357    361   2   0.50000     0.1400000    0.1400000   1.015252e-03  1.866303e-06
    357    375   2   0.50000     0.1400000    0.1000000   2.494471e-04  1.671101e-07
    358    376   2   0.50000    -0.4000000    0.4180000   1.653295e-06  5.040276e-12
    361    376   2   0.50000     0.1400000    0.4180000   1.995577e-06  1.069504e-11
    375    376   2   0.50000     0.1000000    0.4180000   4.903125e-07  9.576416e-13
    358    362   2   0.50000    -0.4000000   -0.4000000   6.968474e-04  4.145011e-07
    358    377   2   0.50000    -0.4000000    0.0300000   2.066619e-04  7.875431e-08
    358    378   2   0.50000    -0.4000000    0.0300000   2.066619e-04  7.875431e-08
    360    362   2   0.50000    -0.5827000   -0.4000000   9.562422e-04  7.083138e-07
    360    377   2   0.50000    -0.5827000    0.0300000   2.835898e-04  1.345781e-07
    360    378   2   0.50000    -0.5827000    0.0300000   2.835898e-04  1.345781e-07
    375    362   2   0.50000     0.1000000   -0.4000000   2.066619e-04  7.875431e-08
    375    377   2   0.50000     0.1000000    0.0300000   6.128906e-05  1.496315e-08
    375    378   2   0.50000     0.1000000    0.0300000   6.128906e-05  1.496315e-08
    359    379   2   0.50000     0.2647000    0.1400000   1.015252e-03  1.866303e-06
    377    379   2   0.50000     0.0300000    0.1400000   2.494471e-04  1.671101e-07
    378    379   2   0.50000     0.0300000    0.1400000   2.494471e-04  1.671101e-07
    361    380   2   0.50000     0.1400000    0.2050000   1.015252e-03  1.866303e-06
    361    392   2   0.50000     0.1400000    0.0300000   2.494471e-04  1.671101e-07
    361    393   2   0.50000     0.1400000    0.0300000   2.494471e-04  1.671101e-07
    362    381   2   0.50000    -0.4000000   -0.6830000   9.562422e-04  7.083138e-07
    362    382   2   0.50000    -0.4000000    0.1400000   8.411158e-04  8.795366e-07
    362    394   2   0.50000    -0.4000000    0.0600000   2.066619e-04  7.875431e-08
    392    381   2   0.50000     0.0300000   -0.6830000   2.835898e-04  1.345781e-07
    392    382   2   0.50000     0.0300000    0.1400000   2.494471e-04  1.671101e-07
    392    394   2   0.50000     0.0300000    0.0600000   6.128906e-05  1.496315e-08
    393    381   2   0.50000     0.0300000   -0.6830000   2.835898e-04  1.345781e-07
    393    382   2   0.50000     0.0300000    0.1400000   2.494471e-04  1.671101e-07
    393    394   2   0.50000     0.0300000    0.0600000   6.128906e-05  1.496315e-08
    379    395   2   0.50000     0.1400000    0.4180000   1.995577e-06  1.069504e-11
    382    395   2   0.50000     0.1400000    0.4180000   1.995577e-06  1.069504e-11
    394    395   2   0.50000     0.0600000    0.4180000   4.903125e-07  9.576416e-13
    379    383   2   0.50000     0.1400000   -0.4000000   8.411158e-04  8.795366e-07
    379    396   2   0.50000     0.1400000    0.0300000   2.494471e-04  1.671101e-07
    379    397   2   0.50000     0.1400000    0.0300000   2.494471e-04  1.671101e-07
    381    383   2   0.50000    -0.6830000   -0.4000000   9.562422e-04  7.083138e-07
    381    396   2   0.50000    -0.6830000    0.0300000   2.835898e-04  1.345781e-07
    381    397   2   0.50000    -0.6830000    0.0300000   2.835898e-04  1.345781e-07
    394    383   2   0.50000     0.0600000   -0.4000000   2.066619e-04  7.875431e-08
    394    396   2   0.50000     0.0600000    0.0300000   6.128906e-05  1.496315e-08
    394    397   2   0.50000     0.0600000    0.0300000   6.128906e-05  1.496315e-08
    380    384   2   0.50000     0.2050000    0.1400000   1.015252e-03  1.866303e-06
    396    384   2   0.50000     0.0300000    0.1400000   2.494471e-04  1.671101e-07
    397    384   2   0.50000     0.0300000    0.1400000   2.494471e-04  1.671101e-07
    382    385   2   0.50000     0.1400000   -0.1200000   1.015252e-03  1.866303e-06
    382    398   2   0.50000     0.1400000    0.0300000   2.494471e-04  1.671101e-07
    382    399   2   0.50000     0.1400000    0.0300000   2.494471e-04  1.671101e-07
    383    386   2   0.50000    -0.4000000    0.1400000   8.411158e-04  8.795366e-07
    383    400   2   0.50000    -0.4000000    0.0600000   2.066619e-04  7.875431e-08
    383    401   2   0.50000    -0.4000000    0.0600000   2.066619e-04  7.875431e-08
    398    386   2   0.50000     0.0300000    0.1400000   2.494471e-04  1.671101e-07
    398    400   2   0.50000     0.0300000    0.0600000   6.128906e-05  1.496315e-08
    398    401   2   0.50000     0.0300000    0.0600000   6.128906e-05  1.496315e-08
    399    386   2   0.50000     0.0300000    0.1400000   2.494471e-04  1.671101e-07
    399    400   2   0.50000     0.0300000    0.0600000   6.128906e-05  1.496315e-08
    399    401   2   0.50000     0.0300000    0.0600000   6.128906e-05  1.496315e-08
    384    387   2   0.50000     0.1400000   -0.4000000   8.411158e-04  8.795366e-07
    384    402   2   0.50000     0.1400000    0.0300000   2.494471e-04  1.671101e-07
    384    403   2   0.50000     0.1400000    0.0300000   2.494471e-04  1.671101e-07
    400    387   2   0.50000     0.0600000   -0.4000000   2.066619e-04  7.875431e-08
    400    402   2   0.50000     0.0600000    0.0300000   6.128906e-05  1.496315e-08
    400    403   2   0.50000     0.0600000    0.0300000   6.128906e-05  1.496315e-08
    401    387   2   0.50000     0.0600000   -0.4000000   2.066619e-04  7.875431e-08
    401    402   2   0.50000     0.0600000    0.0300000   6.128906e-05  1.496315e-08
    401    403   2   0.50000     0.0600000    0.0300000   6.128906e-05  1.496315e-08
    385    388   2   0.50000    -0.1200000    0.2647000   1.015252e-03  1.866303e-06
    402    388   2   0.50000     0.0300000    0.2647000   2.494471e-04  1.671101e-07
    403    388   2   0.50000     0.0300000    0.2647000   2.494471e-04  1.671101e-07
    386    389   2   0.50000     0.1400000   -0.5827000   1.154213e-03  1.502983e-06
    386    390   2   0.50000     0.1400000    0.1400000   1.015252e-03  1.866303e-06
    386    404   2   0.50000     0.1400000    0.1000000   2.494471e-04  1.671101e-07
    387    405   2   0.50000    -0.4000000    0.4180000   1.653295e-06  5.040276e-12
    390    405   2   0.50000     0.1400000    0.4180000   1.995577e-06  1.069504e-11
    404    405   2   0.50000     0.1000000    0.4180000   4.903125e-07  9.576416e-13
    387    391   2   0.50000    -0.4000000   -0.4000000   6.968474e-04  4.145011e-07
    387    406   2   0.50000    -0.4000000    0.0300000   2.066619e-04  7.875431e-08
    387    407   2   0.50000    -0.4000000    0.0300000   2.066619e-04  7.875431e-08
    389    391   2   0.50000    -0.5827000   -0.4000000   9.562422e-04  7.083138e-07
    389    406   2   0.50000    -0.5827000    0.0300000   2.835898e-04  1.345781e-07
    389    407   2   0.50000    -0.5827000    0.0300000   2.835898e-04  1.345781e-07
    404    391   2   0.50000     0.1000000   -0.4000000   2.066619e-04  7.875431e-08
    404    406   2   0.50000     0.1000000    0.0300000   6.128906e-05  1.496315e-08
    404    407   2   0.50000     0.1000000    0.0300000   6.128906e-05  1.496315e-08
    388    408   2   0.50000     0.2647000    0.1400000   1.015252e-03  1.866303e-06
    406    408   2   0.50000     0.0300000    0.1400000   2.494471e-04  1.671101e-07
    407    408   2   0.50000     0.0300000    0.1400000   2.494471e-04  1.671101e-07
    390    409   2   0.50000     0.1400000    0.2050000   1.015252e-03  1.866303e-06
    390    421   2   0.50000     0.1400000    0.0300000   2.494471e-04  1.671101e-07
    390    422   2   0.50000     0.1400000    0.0300000   2.494471e-04  1.671101e-07
    391    410   2   0.50000    -0.4000000   -0.6830000   9.562422e-04  7.083138e-07
    391    411   2   0.50000    -0.4000000    0.1400000   8.411158e-04  8.795366e-07
    391    423   2   0.50000    -0.4000000    0.0600000   2.066619e-04  7.875431e-08
    421    410   2   0.50000     0.0300000   -0.6830000   2.835898e-04  1.345781e-07
    421    411   2   0.50000     0.0300000    0.1400000   2.494471e-04  1.671101e-07
    421    423   2   0.50000     0.0300000    0.0600000   6.128906e-05  1.496315e-08
    422    410   2   0.50000     0.0300000   -0.6830000   2.835898e-04  1.345781e-07
    422    411   2   0.50000     0.0300000    0.1400000   2.494471e-04  1.671101e-07
    422    423   2   0.50000     0.0300000    0.0600000   6.128906e-05  1.496315e-08
    408    424   2   0.50000     0.1400000    0.4180000   1.995577e-06  1.069504e-11
    411    424   2   0.50000     0.1400000    0.4180000   1.995577e-06  1.069504e-11
    423    424   2   0.50000     0.0600000    0.4180000   4.903125e-07  9.576416e-13
    408    412   2   0.50000     0.1400000   -0.4000000   8.411158e-04  8.795366e-07
    408    425   2   0.50000     0.1400000    0.0300000   2.494471e-04  1.671101e-07
    408    426   2   0.50000     0.1400000    0.0300000   2.494471e-04  1.671101e-07
    410    412   2   0.50000    -0.6830000   -0.4000000   9.562422e-04  7.083138e-07
    410    425   2   0.50000    -0.6830000    0.0300000   2.835898e-04  1.345781e-07
    410    426   2   0.50000    -0.6830000    0.0300000   2.835898e-04  1.345781e-07
    423    412   2   0.50000     0.0600000   -0.4000000   2.066619e-04  7.875431e-08
    423    425   2   0.50000     0.0600000    0.0300000   6.128906e-05  1.496315e-08
    423    426   2   0.50000     0.0600000    0.0300000   6.128906e-05  1.496315e-08
    409    413   2   0.50000     0.2050000    0.1400000   1.015252e-03  1.866303e-06
    425    413   2   0.50000     0.0300000    0.1400000   2.494471e-04  1.671101e-07
    426    413   2   0.50000     0.0300000    0.1400000   2.494471e-04  1.671101e-07
    411    414   2   0.50000     0.1400000   -0.1200000   1.015252e-03  1.866303e-06
    411    427   2   0.50000     0.1400000    0.0300000   2.494471e-04  1.671101e-07
    411    428   2   0.50000     0.1400000    0.0300000   2.494471e-04  1.671101e-07
    412    415   2   0.50000    -0.4000000    0.1400000   8.411158e-04  8.795366e-07
    412    429   2   0.50000    -0.4000000    0.0600000   2.066619e-04  7.875431e-08
    412    430   2   0.50000    -0.4000000    0.0600000   2.066619e-04  7.875431e-08
    427    415   2   0.50000     0.0300000    0.1400000   2.494471e-04  1.671101e-07
    427    429   2   0.50000     0.0300000    0.0600000   6.128906e-05  1.496315e-08
    427    430   2   0.50000     0.0300000    0.0600000   6.128906e-05  1.496315e-08
    428    415   2   0.50000     0.0300000    0.1400000   2.494471e-04  1.671101e-07
    428    429   2   0.50000     0.0300000    0.0600000   6.128906e-05  1.496315e-08
    428    430   2   0.50000     0.0300000    0.0600000   6.128906e-05  1.496315e-08
    413    416   2   0.50000     0.1400000   -0.4000000   8.411158e-04  8.795366e-07
    413    431   2   0.50000     0.1400000    0.0300000   2.494471e-04  1.671101e-07
    413    432   2   0.50000     0.1400000    0.0300000   2.494471e-04  1.671101e-07
    429    416   2   0.50000     0.0600000   -0.4000000   2.066619e-04  7.875431e-08
    429    431   2   0.50000     0.0600000    0.0300000   6.128906e-05  1.496315e-08
    429    432   2   0.50000     0.0600000    0.0300000   6.128906e-05  1.496315e-08
    430    416   2   0.50000     0.0600000   -0.4000000   2.066619e-04  7.875431e-08
    430    431   2   0.50000     0.0600000    0.0300000   6.128906e-05  1.496315e-08
    430    432   2   0.50000     0.0600000    0.0300000   6.128906e-05  1.496315e-08
    414    417   2   0.50000    -0.1200000    0.2647000   1.015252e-03  1.866303e-06
    431    417   2   0.50000     0.0300000    0.2647000   2.494471e-04  1.671101e-07
    432    417   2   0.50000     0.0300000    0.2647000   2.494471e-04  1.671101e-07
    415    418   2   0.50000     0.1400000   -0.5827000   1.154213e-03  1.502983e-06
    415    419   2   0.50000     0.1400000    0.1400000   1.015252e-03  1.866303e-06
    415    433   2   0.50000     0.1400000    0.1000000   2.494471e-04  1.671101e-07
    416    434   2   0.50000    -0.4000000    0.4180000   1.653295e-06  5.040276e-12
    419    434   2   0.50000     0.1400000    0.4180000   1.995577e-06  1.069504e-11
    433    434   2   0.50000     0.1000000    0.4180000   4.903125e-07  9.576416e-13
    416    420   2   0.50000    -0.4000000   -0.4000000   6.968474e-04  4.145011e-07
    416    435   2   0.50000    -0.4000000    0.0300000   2.066619e-04  7.875431e-08
    416    436   2   0.50000    -0.4000000    0.0300000   2.066619e-04  7.875431e-08
    418    420   2   0.50000    -0.5827000   -0.4000000   9.562422e-04  7.083138e-07
    418    435   2   0.50000    -0.5827000    0.0300000   2.835898e-04  1.345781e-07
    418    436   2   0.50000    -0.5827000    0.0300000   2.835898e-04  1.345781e-07
    433    420   2   0.50000     0.1000000   -0.4000000   2.066619e-04  7.875431e-08
    433    435   2   0.50000     0.1000000    0.0300000   6.128906e-05  1.496315e-08
    433    436   2   0.50000     0.1000000    0.0300000   6.128906e-05  1.496315e-08
    417    437   2   0.50000     0.2647000    0.1400000   1.015252e-03  1.866303e-06
    435    437   2   0.50000     0.0300000    0.1400000   2.494471e-04  1.671101e-07
    436    437   2   0.50000     0.0300000    0.1400000   2.494471e-04  1.671101e-07
    419    438   2   0.50000     0.1400000    0.2050000   1.015252e-03  1.866303e-06
    419    450   2   0.50000     0.1400000    0.0300000   2.494471e-04  1.671101e-07
    419    451   2   0.50000     0.1400000    0.0300000   2.494471e-04  1.671101e-07
    420    439   2   0.50000    -0.4000000   -0.6830000   9.562422e-04  7.083138e-07
    420    440   2   0.50000    -0.4000000    0.1400000   8.411158e-04  8.795366e-07
    420    452   2   0.50000    -0.4000000    0.0600000   2.066619e-04  7.875431e-08
    450    439   2   0.50000     0.0300000   -0.6830000   2.835898e-04  1.345781e-07
    450    440   2   0.50000     0.0300000    0.1400000   2.494471e-04  1.671101e-07
    450    452   2   0.50000     0.0300000    0.0600000   6.128906e-05  1.496315e-08
    451    439   2   0.50000     0.0300000   -0.6830000   2.835898e-04  1.345781e-07
    451    440   2   0.50000     0.0300000    0.1400000   2.494471e-04  1.671101e-07
    451    452   2   0.50000     0.0300000    0.0600000   6.128906e-05  1.496315e-08
    437    453   2   0.50000     0.1400000    0.4180000   1.995577e-06  1.069504e-11
    440    453   2   0.50000     0.1400000    0.4180000   1.995577e-06  1.069504e-11
    452    453   2   0.50000     0.0600000    0.4180000   4.903125e-07  9.576416e-13
    437    441   2   0.50000     0.1400000   -0.4000000   8.411158e-04  8.795366e-07
    437    454   2   0.50000     0.1400000    0.0300000   2.494471e-04  1.671101e-07
    437    455   2   0.50000     0.1400000    0.0300000   2.494471e-04  1.671101e-07
    439    441   2   0.50000    -0.6830000   -0.4000000   9.562422e-04  7.083138e-07
    439    454   2   0.50000    -0.6830000    0.0300000   2.835898e-04  1.345781e-07
    439    455   2   0.50000    -0.6830000    0.0300000   2.835898e-04  1.345781e-07
    452    441   2   0.50000     0.0600000   -0.4000000   2.066619e-04  7.875431e-08
    452    454   2   0.50000     0.0600000    0.0300000   6.128906e-05  1.496315e-08
    452    455   2   0.50000     0.0600000    0.0300000   6.128906e-05  1.496315e-08
    438    442   2   0.50000     0.2050000    0.1400000   1.015252e-03  1.866303e-06
    454    442   2   0.50000     0.0300000    0.1400000   2.494471e-04  1.671101e-07
    455    442   2   0.50000     0.0300000    0.1400000   2.494471e-04  1.671101e-07
    440    443   2   0.50000     0.1400000   -0.1200000   1.015252e-03  1.866303e-06
    440    456   2   0.50000     0.1400000    0.0300000   2.494471e-04  1.671101e-07
    440    457   2   0.50000     0.1400000    0.0300000   2.494471e-04  1.671101e-07
    441    444   2   0.50000    -0.4000000    0.1400000   8.411158e-04  8.795366e-07
    441    458   2   0.50000    -0.4000000    0.0600000   2.066619e-04  7.875431e-08
    441    459   2   0.50000    -0.4000000    0.0600000   2.066619e-04  7.875431e-08
    456    444   2   0.50000     0.0300000    0.1400000   2.494471e-04  1.671101e-07
    456    458   2   0.50000     0.0300000    0.0600000   6.128906e-05  1.496315e-08
    456    459   2   0.50000     0.0300000    0.0600000   6.128906e-05  1.496315e-08
    457    444   2   0.50000     0.0300000    0.1400000   2.494471e-04  1.671101e-07
    457    458   2   0.50000     0.0300000    0.0600000   6.128906e-05  1.496315e-08
    457    459   2   0.50000     0.0300000    0.0600000   6.128906e-05  1.496315e-08
    442    445   2   0.50000     0.1400000   -0.4000000   8.411158e-04  8.795366e-07
    442    460   2   0.50000     0.1400000    0.0300000   2.494471e-04  1.671101e-07
    442    461   2   0.50000     0.1400000    0.0300000   2.494471e-04  1.671101e-07
    458    445   2   0.50000     0.0600000   -0.4000000   2.066619e-04  7.875431e-08
    458    460   2   0.50000     0.0600000    0.0300000   6.128906e-05  1.496315e-08
    458    461   2   0.50000     0.0600000    0.0300000   6.128906e-05  1.496315e-08
    459    445   2   0.50000     0.0600000   -0.4000000   2.066619e-04  7.875431e-08
    459    460   2   0.50000     0.0600000    0.0300000   6.128906e-05  1.496315e-08
    459    461   2   0.50000     0.0600000    0.0300000   6.128906e-05  1.496315e-08
    443    446   2   0.50000    -0.1200000    0.2647000   1.015252e-03  1.866303e-06
    460    446   2   0.50000     0.0300000    0.2647000   2.494471e-04  1.671101e-07
    461    446   2   0.50000     0.0300000    0.2647000   2.494471e-04  1.671101e-07
    444    447   2   0.50000     0.1400000   -0.5827000   1.154213e-03  1.502983e-06
    444    448   2   0.50000     0.1400000    0.1400000   1.015252e-03  1.866303e-06
    444    462   2   0.50000     0.1400000    0.1000000   2.494471e-04  1.671101e-07
    445    463   2   0.50000    -0.4000000    0.4180000   1.653295e-06  5.040276e-12
    448    463   2   0.50000     0.1400000    0.4180000   1.995577e-06  1.069504e-11
    462    463   2   0.50000     0.1000000    0.4180000   4.903125e-07  9.576416e-13
    445    449   2   0.50000    -0.4000000   -0.4000000   6.968474e-04  4.145011e-07
    445    464   2   0.50000    -0.4000000    0.0300000   2.066619e-04  7.875431e-08
    445    465   2   0.50000    -0.4000000    0.0300000   2.066619e-04  7.875431e-08
    447    449   2   0.50000    -0.5827000   -0.4000000   9.562422e-04  7.083138e-07
    447    464   2   0.50000    -0.5827000    0.0300000   2.835898e-04  1.345781e-07
    447    465   2   0.50000    -0.5827000    0.0300000   2.835898e-04  1.345781e-07
    462    449   2   0.50000     0.1000000   -0.4000000   2.066619e-04  7.875431e-08
    462    464   2   0.50000     0.1000000    0.0300000   6.128906e-05  1.496315e-08
    462    465   2   0.50000     0.1000000    0.0300000   6.128906e-05  1.496315e-08
    446    466   2   0.50000     0.2647000    0.1400000   1.015252e-03  1.866303e-06
    464    466   2   0.50000     0.0300000    0.1400000   2.494471e-04  1.671101e-07
    465    466   2   0.50000     0.0300000    0.1400000   2.494471e-04  1.671101e-07
    448    467   2   0.50000     0.1400000    0.2050000   1.015252e-03  1.866303e-06
    448    479   2   0.50000     0.1400000    0.0300000   2.494471e-04  1.671101e-07
    448    480   2   0.50000     0.1400000    0.0300000   2.494471e-04  1.671101e-07
    449    468   2   0.50000    -0.4000000   -0.6830000   9.562422e-04  7.083138e-07
    449    469   2   0.50000    -0.4000000    0.1400000   8.411158e-04  8.795366e-07
    449    481   2   0.50000    -0.4000000    0.0600000   2.066619e-04  7.875431e-08
    479    468   2   0.50000     0.0300000   -0.6830000   2.835898e-04  1.345781e-07
    479    469   2   0.50000     0.0300000    0.1400000   2.494471e-04  1.671101e-07
    479    481   2   0.50000     0.0300000    0.0600000   6.128906e-05  1.496315e-08
    480    468   2   0.50000     0.0300000   -0.6830000   2.835898e-04  1.345781e-07
    480    469   2   0.50000     0.0300000    0.1400000   2.494471e-04  1.671101e-07
    480    481   2   0.50000     0.0300000    0.0600000   6.128906e-05  1.496315e-08
    466    482   2   0.50000     0.1400000    0.4180000   1.995577e-06  1.069504e-11
    469    482   2   0.50000     0.1400000    0.4180000   1.995577e-06  1.069504e-11
    481    482   2   0.50000     0.0600000    0.4180000   4.903125e-07  9.576416e-13
    466    470   2   0.50000     0.1400000   -0.4000000   8.411158e-04  8.795366e-07
    466    483   2   0.50000     0.1400000    0.0300000   2.494471e-04  1.671101e-07
    466    484   2   0.50000     0.1400000    0.0300000   2.494471e-04  1.671101e-07
    468    470   2   0.50000    -0.6830000   -0.4000000   9.562422e-04  7.083138e-07
    468    483   2   0.50000    -0.6830000    0.0300000   2.835898e-04  1.345781e-07
    468    484   2   0.50000    -0.6830000    0.0300000   2.835898e-04  1.345781e-07
    481    470   2   0.50000     0.0600000   -0.4000000   2.066619e-04  7.875431e-08
    481    483   2   0.50000     0.0600000    0.0300000   6.128906e-05  1.496315e-08
    481    484   2   0.50000     0.0600000    0.0300000   6.128906e-05  1.496315e-08
    467    471   2   0.50000     0.2050000    0.1400000   1.015252e-03  1.866303e-06
    483    471   2   0.50000     0.0300000    0.1400000   2.494471e-04  1.671101e-07
    484    471   2   0.50000     0.0300000    0.1400000   2.494471e-04  1.671101e-07
    469    472   2   0.50000     0.1400000   -0.1200000   1.015252e-03  1.866303e-06
    469    485   2   0.50000     0.1400000    0.0300000   2.494471e-04  1.671101e-07
    469    486   2   0.50000     0.1400000    0.0300000   2.494471e-04  1.671101e-07
    470    473   2   0.50000    -0.4000000    0.1400000   8.411158e-04  8.795366e-07
    470    487   2   0.50000    -0.4000000    0.0600000   2.066619e-04  7.875431e-08
    470    488   2   0.50000    -0.4000000    0.0600000   2.066619e-04  7.875431e-08
    485    473   2   0.50000     0.0300000    0.1400000   2.494471e-04  1.671101e-07
    485    487   2   0.50000     0.0300000    0.0600000   6.128906e-05  1.496315e-08
    485    488   2   0.50000     0.0300000    0.0600000   6.128906e-05  1.496315e-08
    486    473   2   0.50000     0.0300000    0.1400000   2.494471e-04  1.671101e-07
    486    487   2   0.50000     0.0300000    0.0600000   6.128906e-05  1.496315e-08
    486    488   2   0.50000     0.0300000    0.0600000   6.128906e-05  1.496315e-08
    471    474   2   0.50000     0.1400000   -0.4000000   8.411158e-04  8.795366e-07
    471    489   2   0.50000     0.1400000    0.0300000   2.494471e-04  1.671101e-07
    471    490   2   0.50000     0.1400000    0.0300000   2.494471e-04  1.671101e-07
    487    474   2   0.50000     0.0600000   -0.4000000   2.066619e-04  7.875431e-08
    487    489   2   0.50000     0.0600000    0.0300000   6.128906e-05  1.496315e-08
    487    490   2   0.50000     0.0600000    0.0300000   6.128906e-05  1.496315e-08
    488    474   2   0.50000     0.0600000   -0.4000000   2.066619e-04  7.875431e-08
    488    489   2   0.50000     0.0600000    0.0300000   6.128906e-05  1.496315e-08
    488    490   2   0.50000     0.0600000    0.0300000   6.128906e-05  1.496315e-08
    472    475   2   0.50000    -0.1200000    0.2647000   1.015252e-03  1.866303e-06
    489    475   2   0.50000     0.0300000    0.2647000   2.494471e-04  1.671101e-07
    490    475   2   0.50000     0.0300000    0.2647000   2.494471e-04  1.671101e-07
    473    476   2   0.50000     0.1400000   -0.5827000   1.154213e-03  1.502983e-06
    473    477   2   0.50000     0.1400000    0.1400000   1.015252e-03  1.866303e-06
    473    491   2   0.50000     0.1400000    0.1000000   2.494471e-04  1.671101e-07
    474    492   2   0.50000    -0.4000000    0.4180000   1.653295e-06  5.040276e-12
    477    492   2   0.50000     0.1400000    0.4180000   1.995577e-06  1.069504e-11
    491    492   2   0.50000     0.1000000    0.4180000   4.903125e-07  9.576416e-13
    474    478   2   0.50000    -0.4000000   -0.4000000   6.968474e-04  4.145011e-07
    474    493   2   0.50000    -0.4000000    0.0300000   2.066619e-04  7.875431e-08
    474    494   2   0.50000    -0.4000000    0.0300000   2.066619e-04  7.875431e-08
    476    478   2   0.50000    -0.5827000   -0.4000000   9.562422e-04  7.083138e-07
    476    493   2   0.50000    -0.5827000    0.0300000   2.835898e-04  1.345781e-07
    476    494   2   0.50000    -0.5827000    0.0300000   2.835898e-04  1.345781e-07
    491    478   2   0.50000     0.1000000   -0.4000000   2.066619e-04  7.875431e-08
    491    493   2   0.50000     0.1000000    0.0300000   6.128906e-05  1.496315e-08
    491    494   2   0.50000     0.1000000    0.0300000   6.128906e-05  1.496315e-08
    475    495   2   0.50000     0.2647000    0.1400000   1.015252e-03  1.866303e-06
    493    495   2   0.50000     0.0300000    0.1400000   2.494471e-04  1.671101e-07
    494    495   2   0.50000     0.0300000    0.1400000   2.494471e-04  1.671101e-07
    477    496   2   0.50000     0.1400000    0.2050000   1.015252e-03  1.866303e-06
    477    508   2   0.50000     0.1400000    0.0300000   2.494471e-04  1.671101e-07
    477    509   2   0.50000     0.1400000    0.0300000   2.494471e-04  1.671101e-07
    478    497   2   0.50000    -0.4000000   -0.6830000   9.562422e-04  7.083138e-07
    478    498   2   0.50000    -0.4000000    0.1400000   8.411158e-04  8.795366e-07
    478    510   2   0.50000    -0.4000000    0.0600000   2.066619e-04  7.875431e-08
    508    497   2   0.50000     0.0300000   -0.6830000   2.835898e-04  1.345781e-07
    508    498   2   0.50000     0.0300000    0.1400000   2.494471e-04  1.671101e-07
    508    510   2   0.50000     0.0300000    0.0600000   6.128906e-05  1.496315e-08
    509    497   2   0.50000     0.0300000   -0.6830000   2.835898e-04  1.345781e-07
    509    498   2   0.50000     0.0300000    0.1400000   2.494471e-04  1.671101e-07
    509    510   2   0.50000     0.0300000    0.0600000   6.128906e-05  1.496315e-08
    495    511   2   0.50000     0.1400000    0.4180000   1.995577e-06  1.069504e-11
    498    511   2   0.50000     0.1400000    0.4180000   1.995577e-06  1.069504e-11
    510    511   2   0.50000     0.0600000    0.4180000   4.903125e-07  9.576416e-13
    495    499   2   0.50000     0.1400000   -0.4000000   8.411158e-04  8.795366e-07
    495    512   2   0.50000     0.1400000    0.0300000   2.494471e-04  1.671101e-07
    495    513   2   0.50000     0.1400000    0.0300000   2.494471e-04  1.671101e-07
    497    499   2   0.50000    -0.6830000   -0.4000000   9.562422e-04  7.083138e-07
    497    512   2   0.50000    -0.6830000    0.0300000   2.835898e-04  1.345781e-07
    497    513   2   0.50000    -0.6830000    0.0300000   2.835898e-04  1.345781e-07
    510    499   2   0.50000     0.0600000   -0.4000000   2.066619e-04  7.875431e-08
    510    512   2   0.50000     0.0600000    0.0300000   6.128906e-05  1.496315e-08
    510    513   2   0.50000     0.0600000    0.0300000   6.128906e-05  1.496315e-08
    496    500   2   0.50000     0.2050000    0.1400000   1.015252e-03  1.866303e-06
    512    500   2   0.50000     0.0300000    0.1400000   2.494471e-04  1.671101e-07
    513    500   2   0.50000     0.0300000    0.1400000   2.494471e-04  1.671101e-07
    498    501   2   0.50000     0.1400000   -0.1200000   1.015252e-03  1.866303e-06
    498    514   2   0.50000     0.1400000    0.0300000   2.494471e-04  1.671101e-07
    498    515   2   0.50000     0.1400000    0.0300000   2.494471e-04  1.671101e-07
    499    502   2   0.50000    -0.4000000    0.1400000   8.411158e-04  8.795366e-07
    499    516   2   0.50000    -0.4000000    0.0600000   2.066619e-04  7.875431e-08
    499    517   2   0.50000    -0.4000000    0.0600000   2.066619e-04  7.875431e-08
    514    502   2   0.50000     0.0300000    0.1400000   2.494471e-04  1.671101e-07
    514    516   2   0.50000     0.0300000    0.0600000   6.128906e-05  1.496315e-08
    514    517   2   0.50000     0.0300000    0.0600000   6.128906e-05  1.496315e-08
    515    502   2   0.50000     0.0300000    0.1400000   2.494471e-04  1.671101e-07
    515    516   2   0.50000     0.0300000    0.0600000   6.128906e-05  1.496315e-08
    515    517   2   0.50000     0.0300000    0.0600000   6.128906e-05  1.496315e-08
    500    503   2   0.50000     0.1400000   -0.4000000   8.411158e-04  8.795366e-07
    500    518   2   0.50000     0.1400000    0.0300000   2.494471e-04  1.671101e-07
    500    519   2   0.50000     0.1400000    0.0300000   2.494471e-04  1.671101e-07
    516    503   2   0.50000     0.0600000   -0.4000000   2.066619e-04  7.875431e-08
    516    518   2   0.50000     0.0600000    0.0300000   6.128906e-05  1.496315e-08
    516    519   2   0.50000     0.0600000    0.0300000   6.128906e-05  1.496315e-08
    517    503   2   0.50000     0.0600000   -0.4000000   2.066619e-04  7.875431e-08
    517    518   2   0.50000     0.0600000    0.0300000   6.128906e-05  1.496315e-08
    517    519   2   0.50000     0.0600000    0.0300000   6.128906e-05  1.496315e-08
    501    504   2   0.50000    -0.1200000    0.2647000   1.015252e-03  1.866303e-06
    518    504   2   0.50000     0.0300000    0.2647000   2.494471e-04  1.671101e-07
    519    504   2   0.50000     0.0300000    0.2647000   2.494471e-04  1.671101e-07
    502    505   2   0.50000     0.1400000   -0.5827000   1.154213e-03  1.502983e-06
    502    506   2   0.50000     0.1400000    0.1400000   1.015252e-03  1.866303e-06
    502    520   2   0.50000     0.1400000    0.1000000   2.494471e-04  1.671101e-07
    503    521   2   0.50000    -0.4000000    0.4180000   1.653295e-06  5.040276e-12
    506    521   2   0.50000     0.1400000    0.4180000   1.995577e-06  1.069504e-11
    520    521   2   0.50000     0.1000000    0.4180000   4.903125e-07  9.576416e-13
    503    507   2   0.50000    -0.4000000   -0.4000000   6.968474e-04  4.145011e-07
    503    522   2   0.50000    -0.4000000    0.0300000   2.066619e-04  7.875431e-08
    503    523   2   0.50000    -0.4000000    0.0300000   2.066619e-04  7.875431e-08
    505    507   2   0.50000    -0.5827000   -0.4000000   9.562422e-04  7.083138e-07
    505    522   2   0.50000    -0.5827000    0.0300000   2.835898e-04  1.345781e-07
    505    523   2   0.50000    -0.5827000    0.0300000   2.835898e-04  1.345781e-07
    520    507   2   0.50000     0.1000000   -0.4000000   2.066619e-04  7.875431e-08
    520    522   2   0.50000     0.1000000    0.0300000   6.128906e-05  1.496315e-08
    520    523   2   0.50000     0.1000000    0.0300000   6.128906e-05  1.496315e-08
    504    524   2   0.50000     0.2647000    0.1400000   1.015252e-03  1.866303e-06
    522    524   2   0.50000     0.0300000    0.1400000   2.494471e-04  1.671101e-07
    523    524   2   0.50000     0.0300000    0.1400000   2.494471e-04  1.671101e-07
    506    525   2   0.50000     0.1400000    0.2050000   1.015252e-03  1.866303e-06
    506    537   2   0.50000     0.1400000    0.0300000   2.494471e-04  1.671101e-07
    506    538   2   0.50000     0.1400000    0.0300000   2.494471e-04  1.671101e-07
    507    526   2   0.50000    -0.4000000   -0.6830000   9.562422e-04  7.083138e-07
    507    527   2   0.50000    -0.4000000    0.1400000   8.411158e-04  8.795366e-07
    507    539   2   0.50000    -0.4000000    0.0600000   2.066619e-04  7.875431e-08
    537    526   2   0.50000     0.0300000   -0.6830000   2.835898e-04  1.345781e-07
    537    527   2   0.50000     0.0300000    0.1400000   2.494471e-04  1.671101e-07
    537    539   2   0.50000     0.0300000    0.0600000   6.128906e-05  1.496315e-08
    538    526   2   0.50000     0.0300000   -0.6830000   2.835898e-04  1.345781e-07
    538    527   2   0.50000     0.0300000    0.1400000   2.494471e-04  1.671101e-07
    538    539   2   0.50000     0.0300000    0.0600000   6.128906e-05  1.496315e-08
    524    540   2   0.50000     0.1400000    0.4180000   1.995577e-06  1.069504e-11
    527    540   2   0.50000     0.1400000    0.4180000   1.995577e-06  1.069504e-11
    539    540   2   0.50000     0.0600000    0.4180000   4.903125e-07  9.576416e-13
    524    528   2   0.50000     0.1400000   -0.4000000   8.411158e-04  8.795366e-07
    524    541   2   0.50000     0.1400000    0.0300000   2.494471e-04  1.671101e-07
    524    542   2   0.50000     0.1400000    0.0300000   2.494471e-04  1.671101e-07
    526    528   2   0.50000    -0.6830000   -0.4000000   9.562422e-04  7.083138e-07
    526    541   2   0.50000    -0.6830000    0.0300000   2.835898e-04  1.345781e-07
    526    542   2   0.50000    -0.6830000    0.0300000   2.835898e-04  1.345781e-07
    539    528   2   0.50000     0.0600000   -0.4000000   2.066619e-04  7.875431e-08
    539    541   2   0.50000     0.0600000    0.0300000   6.128906e-05  1.496315e-08
    539    542   2   0.50000     0.0600000    0.0300000   6.128906e-05  1.496315e-08
    525    529   2   0.50000     0.2050000    0.1400000   1.015252e-03  1.866303e-06
    541    529   2   0.50000     0.0300000    0.1400000   2.494471e-04  1.671101e-07
    542    529   2   0.50000     0.0300000    0.1400000   2.494471e-04  1.671101e-07
    527    530   2   0.50000     0.1400000   -0.1200000   1.015252e-03  1.866303e-06
    527    543   2   0.50000     0.1400000    0.0300000   2.494471e-04  1.671101e-07
    527    544   2   0.50000     0.1400000    0.0300000   2.494471e-04  1.671101e-07
    528    531   2   0.50000    -0.4000000    0.1400000   8.411158e-04  8.795366e-07
    528    545   2   0.50000    -0.4000000    0.0600000   2.066619e-04  7.875431e-08
    528    546   2   0.50000    -0.4000000    0.0600000   2.066619e-04  7.875431e-08
    543    531   2   0.50000     0.0300000    0.1400000   2.494471e-04  1.671101e-07
    543    545   2   0.50000     0.0300000    0.0600000   6.128906e-05  1.496315e-08
    543    546   2   0.50000     0.0300000    0.0600000   6.128906e-05  1.496315e-08
    544    531   2   0.50000     0.0300000    0.1400000   2.494471e-04  1.671101e-07
    544    545   2   0.50000     0.0300000    0.0600000   6.128906e-05  1.496315e-08
    544    546   2   0.50000     0.0300000    0.0600000   6.128906e-05  1.496315e-08
    529    532   2   0.50000     0.1400000   -0.4000000   8.411158e-04  8.795366e-07
    529    547   2   0.50000     0.1400000    0.0300000   2.494471e-04  1.671101e-07
    529    548   2   0.50000     0.1400000    0.0300000   2.494471e-04  1.671101e-07
    545    532   2   0.50000     0.0600000   -0.4000000   2.066619e-04  7.875431e-08
    545    547   2   0.50000     0.0600000    0.0300000   6.128906e-05  1.496315e-08
    545    548   2   0.50000     0.0600000    0.0300000   6.128906e-05  1.496315e-08
    546    532   2   0.50000     0.0600000   -0.4000000   2.066619e-04  7.875431e-08
    546    547   2   0.50000     0.0600000    0.0300000   6.128906e-05  1.496315e-08
    546    548   2   0.50000     0.0600000    0.0300000   6.128906e-05  1.496315e-08
    530    533   2   0.50000    -0.1200000    0.2647000   1.015252e-03  1.866303e-06
    547    533   2   0.50000     0.0300000    0.2647000   2.494471e-04  1.671101e-07
    548    533   2   0.50000     0.0300000    0.2647000   2.494471e-04  1.671101e-07
    531    534   2   0.50000     0.1400000   -0.5827000   1.154213e-03  1.502983e-06
    531    535   2   0.50000     0.1400000    0.1400000   1.015252e-03  1.866303e-06
    531    549   2   0.50000     0.1400000    0.1000000   2.494471e-04  1.671101e-07
    532    550   2   0.50000    -0.4000000    0.4180000   1.653295e-06  5.040276e-12
    535    550   2   0.50000     0.1400000    0.4180000   1.995577e-06  1.069504e-11
    549    550   2   0.50000     0.1000000    0.4180000   4.903125e-07  9.576416e-13
    532    536   2   0.50000    -0.4000000   -0.4000000   6.968474e-04  4.145011e-07
    532    551   2   0.50000    -0.4000000    0.0300000   2.066619e-04  7.875431e-08
    532    552   2   0.50000    -0.4000000    0.0300000   2.066619e-04  7.875431e-08
    534    536   2   0.50000    -0.5827000   -0.4000000   9.562422e-04  7.083138e-07
    534    551   2   0.50000    -0.5827000    0.0300000   2.835898e-04  1.345781e-07
    534    552   2   0.50000    -0.5827000    0.0300000   2.835898e-04  1.345781e-07
    549    536   2   0.50000     0.1000000   -0.4000000   2.066619e-04  7.875431e-08
    549    551   2   0.50000     0.1000000    0.0300000   6.128906e-05  1.496315e-08
    549    552   2   0.50000     0.1000000    0.0300000   6.128906e-05  1.496315e-08
    533    553   2   0.50000     0.2647000    0.1400000   1.015252e-03  1.866303e-06
    551    553   2   0.50000     0.0300000    0.1400000   2.494471e-04  1.671101e-07
    552    553   2   0.50000     0.0300000    0.1400000   2.494471e-04  1.671101e-07
    535    554   2   0.50000     0.1400000    0.2050000   1.015252e-03  1.866303e-06
    535    566   2   0.50000     0.1400000    0.0300000   2.494471e-04  1.671101e-07
    535    567   2   0.50000     0.1400000    0.0300000   2.494471e-04  1.671101e-07
    536    555   2   0.50000    -0.4000000   -0.6830000   9.562422e-04  7.083138e-07
    536    556   2   0.50000    -0.4000000    0.1400000   8.411158e-04  8.795366e-07
    536    568   2   0.50000    -0.4000000    0.0600000   2.066619e-04  7.875431e-08
    566    555   2   0.50000     0.0300000   -0.6830000   2.835898e-04  1.345781e-07
    566    556   2   0.50000     0.0300000    0.1400000   2.494471e-04  1.671101e-07
    566    568   2   0.50000     0.0300000    0.0600000   6.128906e-05  1.496315e-08
    567    555   2   0.50000     0.0300000   -0.6830000   2.835898e-04  1.345781e-07
    567    556   2   0.50000     0.0300000    0.1400000   2.494471e-04  1.671101e-07
    567    568   2   0.50000     0.0300000    0.0600000   6.128906e-05  1.496315e-08
    553    569   2   0.50000     0.1400000    0.4180000   1.995577e-06  1.069504e-11
    556    569   2   0.50000     0.1400000    0.4180000   1.995577e-06  1.069504e-11
    568    569   2   0.50000     0.0600000    0.4180000   4.903125e-07  9.576416e-13
    553    557   2   0.50000     0.1400000   -0.4000000   8.411158e-04  8.795366e-07
    553    570   2   0.50000     0.1400000    0.0300000   2.494471e-04  1.671101e-07
    553    571   2   0.50000     0.1400000    0.0300000   2.494471e-04  1.671101e-07
    555    557   2   0.50000    -0.6830000   -0.4000000   9.562422e-04  7.083138e-07
    555    570   2   0.50000    -0.6830000    0.0300000   2.835898e-04  1.345781e-07
    555    571   2   0.50000    -0.6830000    0.0300000   2.835898e-04  1.345781e-07
    568    557   2   0.50000     0.0600000   -0.4000000   2.066619e-04  7.875431e-08
    568    570   2   0.50000     0.0600000    0.0300000   6.128906e-05  1.496315e-08
    568    571   2   0.50000     0.0600000    0.0300000   6.128906e-05  1.496315e-08
    554    558   2   0.50000     0.2050000    0.1400000   1.015252e-03  1.866303e-06
    570    558   2   0.50000     0.0300000    0.1400000   2.494471e-04  1.671101e-07
    571    558   2   0.50000     0.0300000    0.1400000   2.494471e-04  1.671101e-07
    556    559   2   0.50000     0.1400000   -0.1200000   1.015252e-03  1.866303e-06
    556    572   2   0.50000     0.1400000    0.0300000   2.494471e-04  1.671101e-07
    556    573   2   0.50000     0.1400000    0.0300000   2.494471e-04  1.671101e-07
    557    560   2   0.50000    -0.4000000    0.1400000   8.411158e-04  8.795366e-07
    557    574   2   0.50000    -0.4000000    0.0600000   2.066619e-04  7.875431e-08
    557    575   2   0.50000    -0.4000000    0.0600000   2.066619e-04  7.875431e-08
    572    560   2   0.50000     0.0300000    0.1400000   2.494471e-04  1.671101e-07
    572    574   2   0.50000     0.0300000    0.0600000   6.128906e-05  1.496315e-08
    572    575   2   0.50000     0.0300000    0.0600000   6.128906e-05  1.496315e-08
    573    560   2   0.50000     0.0300000    0.1400000   2.494471e-04  1.671101e-07
    573    574   2   0.50000     0.0300000    0.0600000   6.128906e-05  1.496315e-08
    573    575   2   0.50000     0.0300000    0.0600000   6.128906e-05  1.496315e-08
    558    561   2   0.50000     0.1400000   -0.4000000   8.411158e-04  8.795366e-07
    558    576   2   0.50000     0.1400000    0.0300000   2.494471e-04  1.671101e-07
    558    577   2   0.50000     0.1400000    0.0300000   2.494471e-04  1.671101e-07
    574    561   2   0.50000     0.0600000   -0.4000000   2.066619e-04  7.875431e-08
    574    576   2   0.50000     0.0600000    0.0300000   6.128906e-05  1.496315e-08
    574    577   2   0.50000     0.0600000    0.0300000   6.128906e-05  1.496315e-08
    575    561   2   0.50000     0.0600000   -0.4000000   2.066619e-04  7.875431e-08
    575    576   2   0.50000     0.0600000    0.0300000   6.128906e-05  1.496315e-08
    575    577   2   0.50000     0.0600000    0.0300000   6.128906e-05  1.496315e-08
    559    562   2   0.50000    -0.1200000    0.2647000   1.015252e-03  1.866303e-06
    576    562   2   0.50000     0.0300000    0.2647000   2.494471e-04  1.671101e-07
    577    562   2   0.50000     0.0300000    0.2647000   2.494471e-04  1.671101e-07
    560    563   2   0.50000     0.1400000   -0.5827000   1.154213e-03  1.502983e-06
    560    564   2   0.50000     0.1400000    0.1450000   1.015252e-03  1.866303e-06
    560    578   2   0.50000     0.1400000    0.1000000   2.494471e-04  1.671101e-07
    561    579   2   0.50000    -0.4000000    0.4180000   1.653295e-06  5.040276e-12
    564    579   2   0.50000     0.1450000    0.4180000   1.995577e-06  1.069504e-11
    578    579   2   0.50000     0.1000000    0.4180000   4.903125e-07  9.576416e-13
    561    565   2   0.50000    -0.4000000   -0.6830000   9.562422e-04  7.083138e-07
    561    580   2   0.50000    -0.4000000    0.0600000   2.066619e-04  7.875431e-08
    561    581   2   0.50000    -0.4000000    0.0600000   2.066619e-04  7.875431e-08
    563    565   2   0.50000    -0.5827000   -0.6830000   1.312194e-03  1.210391e-06
    563    580   2   0.50000    -0.5827000    0.0600000   2.835898e-04  1.345781e-07
    563    581   2   0.50000    -0.5827000    0.0600000   2.835898e-04  1.345781e-07
    578    565   2   0.50000     0.1000000   -0.6830000   2.835898e-04  1.345781e-07
    578    580   2   0.50000     0.1000000    0.0600000   6.128906e-05  1.496315e-08
    578    581   2   0.50000     0.1000000    0.0600000   6.128906e-05  1.496315e-08
    562    582   2   0.50000     0.2647000    0.4180000   1.995577e-06  1.069504e-11
    580    582   2   0.50000     0.0600000    0.4180000   4.903125e-07  9.576416e-13
    581    582   2   0.50000     0.0600000    0.4180000   4.903125e-07  9.576416e-13

[ angles ]
; ai  aj  ak
      2      1     14   1    110.7000    313.8000
      2      1     15   1    110.7000    313.8000
      2      1     30   1    110.7000    313.8000
     14      1     15   1    107.8000    276.1440
     14      1     30   1    107.8000    276.1440
     15      1     30   1    107.8000    276.1440
      1      2      3   1    109.5000    418.4000
      1      2      4   1    112.7000    488.2728
      1      2     16   1    110.7000    313.8000
      3      2      4   1    109.5000    418.4000
      3      2     16   1    109.5000    292.8800
      4      2     16   1    110.7000    313.8000
      2      3     17   1    108.5000    460.2400
      2      4      5   1    109.5000    418.4000
      2      4     18   1    110.7000    313.8000
      2      4     19   1    110.7000    313.8000
      5      4     18   1    109.5000    292.8800
      5      4     19   1    109.5000    292.8800
     18      4     19   1    107.8000    276.1440
      4      5      6   1    109.5000    502.0800
      5      6      7   1    109.5000    418.4000
      5      6     20   1    109.5000    292.8800
      5      6     21   1    109.5000    292.8800
      7      6     20   1    110.7000    313.8000
      7      6     21   1    110.7000    313.8000
     20      6     21   1    107.8000    276.1440
      6      7      8   1    112.7000    488.2728
      6      7     22   1    110.7000    313.8000
      6      7     23   1    110.7000    313.8000
      8      7     22   1    110.7000    313.8000
      8      7     23   1    110.7000    313.8000
     22      7     23   1    107.8000    276.1440
      7      8      9   1    109.5000    418.4000
      7      8     24   1    110.7000    313.8000
      7      8     25   1    110.7000    313.8000
      9      8     24   1    109.5000    292.8800
      9      8     25   1    109.5000    292.8800
     24      8     25   1    107.8000    276.1440
      8      9     10   1    109.5000    502.0800
      9     10     11   1    112.0800    920.4800
      9     10     12   1    108.5670    753.1200
      9     10     26   1    109.5000    292.8800
     11     10     12   1    110.1910    753.1200
     11     10     26   1    108.0250    502.0800
     12     10     26   1    112.0110    376.5600
     10     11     27   1    107.9200    585.7600
     10     12     13   1    109.3800    753.1200
     10     12     28   1    108.7200    376.5600
     10     12     29   1    108.7200    376.5600
     13     12     28   1    109.5000    292.8800
     13     12     29   1    109.5000    292.8800
     28     12     29   1    107.8000    276.1440
     12     13     31   1    109.5000    502.0800
     13     31     32   1    109.5000    418.4000
     13     31     44   1    109.5000    292.8800
     13     31     45   1    109.5000    292.8800
     32     31     44   1    110.7000    313.8000
     32     31     45   1    110.7000    313.8000
     44     31     45   1    107.8000    276.1440
     31     32     33   1    109.5000    418.4000
     31     32     34   1    112.7000    488.2728
     31     32     46   1    110.7000    313.8000
     33     32     34   1    109.5000    418.4000
     33     32     46   1    109.5000    292.8800
     34     32     46   1    110.7000    313.8000
     32     33     47   1    108.5000    460.2400
     32     34     35   1    109.5000    418.4000
     32     34     48   1    110.7000    313.8000
     32     34     49   1    110.7000    313.8000
     35     34     48   1    109.5000    292.8800
     35     34     49   1    109.5000    292.8800
     48     34     49   1    107.8000    276.1440
     34     35     36   1    109.5000    502.0800
     35     36     37   1    109.5000    418.4000
     35     36     50   1    109.5000    292.8800
     35     36     51   1    109.5000    292.8800
     37     36     50   1    110.7000    313.8000
     37     36     51   1    110.7000    313.8000
     50     36     51   1    107.8000    276.1440
     36     37     38   1    112.7000    488.2728
     36     37     52   1    110.7000    313.8000
     36     37     53   1    110.7000    313.8000
     38     37     52   1    110.7000    313.8000
     38     37     53   1    110.7000    313.8000
     52     37     53   1    107.8000    276.1440
     37     38     39   1    109.5000    418.4000
     37     38     54   1    110.7000    313.8000
     37     38     55   1    110.7000    313.8000
     39     38     54   1    109.5000    292.8800
     39     38     55   1    109.5000    292.8800
     54     38     55   1    107.8000    276.1440
     38     39     40   1    109.5000    502.0800
     39     40     41   1    112.0800    920.4800
     39     40     42   1    108.5670    753.1200
     39     40     56   1    109.5000    292.8800
     41     40     42   1    110.1910    753.1200
     41     40     56   1    108.0250    502.0800
     42     40     56   1    112.0110    376.5600
     40     41     57   1    107.9200    585.7600
     40     42     43   1    109.3800    753.1200
     40     42     58   1    108.7200    376.5600
     40     42     59   1    108.7200    376.5600
     43     42     58   1    109.5000    292.8800
     43     42     59   1    109.5000    292.8800
     58     42     59   1    107.8000    276.1440
     42     43     60   1    109.5000    502.0800
     43     60     61   1    109.5000    418.4000
     43     60     73   1    109.5000    292.8800
     43     60     74   1    109.5000    292.8800
     61     60     73   1    110.7000    313.8000
     61     60     74   1    110.7000    313.8000
     73     60     74   1    107.8000    276.1440
     60     61     62   1    109.5000    418.4000
     60     61     63   1    112.7000    488.2728
     60     61     75   1    110.7000    313.8000
     62     61     63   1    109.5000    418.4000
     62     61     75   1    109.5000    292.8800
     63     61     75   1    110.7000    313.8000
     61     62     76   1    108.5000    460.2400
     61     63     64   1    109.5000    418.4000
     61     63     77   1    110.7000    313.8000
     61     63     78   1    110.7000    313.8000
     64     63     77   1    109.5000    292.8800
     64     63     78   1    109.5000    292.8800
     77     63     78   1    107.8000    276.1440
     63     64     65   1    109.5000    502.0800
     64     65     66   1    109.5000    418.4000
     64     65     79   1    109.5000    292.8800
     64     65     80   1    109.5000    292.8800
     66     65     79   1    110.7000    313.8000
     66     65     80   1    110.7000    313.8000
     79     65     80   1    107.8000    276.1440
     65     66     67   1    112.7000    488.2728
     65     66     81   1    110.7000    313.8000
     65     66     82   1    110.7000    313.8000
     67     66     81   1    110.7000    313.8000
     67     66     82   1    110.7000    313.8000
     81     66     82   1    107.8000    276.1440
     66     67     68   1    109.5000    418.4000
     66     67     83   1    110.7000    313.8000
     66     67     84   1    110.7000    313.8000
     68     67     83   1    109.5000    292.8800
     68     67     84   1    109.5000    292.8800
     83     67     84   1    107.8000    276.1440
     67     68     69   1    109.5000    502.0800
     68     69     70   1    112.0800    920.4800
     68     69     71   1    108.5670    753.1200
     68     69     85   1    109.5000    292.8800
     70     69     71   1    110.1910    753.1200
     70     69     85   1    108.0250    502.0800
     71     69     85   1    112.0110    376.5600
     69     70     86   1    107.9200    585.7600
     69     71     72   1    109.3800    753.1200
     69     71     87   1    108.7200    376.5600
     69     71     88   1    108.7200    376.5600
     72     71     87   1    109.5000    292.8800
     72     71     88   1    109.5000    292.8800
     87     71     88   1    107.8000    276.1440
     71     72     89   1    109.5000    502.0800
     72     89     90   1    109.5000    418.4000
     72     89    102   1    109.5000    292.8800
     72     89    103   1    109.5000    292.8800
     90     89    102   1    110.7000    313.8000
     90     89    103   1    110.7000    313.8000
    102     89    103   1    107.8000    276.1440
     89     90     91   1    109.5000    418.4000
     89     90     92   1    112.7000    488.2728
     89     90    104   1    110.7000    313.8000
     91     90     92   1    109.5000    418.4000
     91     90    104   1    109.5000    292.8800
     92     90    104   1    110.7000    313.8000
     90     91    105   1    108.5000    460.2400
     90     92     93   1    109.5000    418.4000
     90     92    106   1    110.7000    313.8000
     90     92    107   1    110.7000    313.8000
     93     92    106   1    109.5000    292.8800
     93     92    107   1    109.5000    292.8800
    106     92    107   1    107.8000    276.1440
     92     93     94   1    109.5000    502.0800
     93     94     95   1    109.5000    418.4000
     93     94    108   1    109.5000    292.8800
     93     94    109   1    109.5000    292.8800
     95     94    108   1    110.7000    313.8000
     95     94    109   1    110.7000    313.8000
    108     94    109   1    107.8000    276.1440
     94     95     96   1    112.7000    488.2728
     94     95    110   1    110.7000    313.8000
     94     95    111   1    110.7000    313.8000
     96     95    110   1    110.7000    313.8000
     96     95    111   1    110.7000    313.8000
    110     95    111   1    107.8000    276.1440
     95     96     97   1    109.5000    418.4000
     95     96    112   1    110.7000    313.8000
     95     96    113   1    110.7000    313.8000
     97     96    112   1    109.5000    292.8800
     97     96    113   1    109.5000    292.8800
    112     96    113   1    107.8000    276.1440
     96     97     98   1    109.5000    502.0800
     97     98     99   1    112.0800    920.4800
     97     98    100   1    108.5670    753.1200
     97     98    114   1    109.5000    292.8800
     99     98    100   1    110.1910    753.1200
     99     98    114   1    108.0250    502.0800
    100     98    114   1    112.0110    376.5600
     98     99    115   1    107.9200    585.7600
     98    100    101   1    109.3800    753.1200
     98    100    116   1    108.7200    376.5600
     98    100    117   1    108.7200    376.5600
    101    100    116   1    109.5000    292.8800
    101    100    117   1    109.5000    292.8800
    116    100    117   1    107.8000    276.1440
    100    101    118   1    109.5000    502.0800
    101    118    119   1    109.5000    418.4000
    101    118    131   1    109.5000    292.8800
    101    118    132   1    109.5000    292.8800
    119    118    131   1    110.7000    313.8000
    119    118    132   1    110.7000    313.8000
    131    118    132   1    107.8000    276.1440
    118    119    120   1    109.5000    418.4000
    118    119    121   1    112.7000    488.2728
    118    119    133   1    110.7000    313.8000
    120    119    121   1    109.5000    418.4000
    120    119    133   1    109.5000    292.8800
    121    119    133   1    110.7000    313.8000
    119    120    134   1    108.5000    460.2400
    119    121    122   1    109.5000    418.4000
    119    121    135   1    110.7000    313.8000
    119    121    136   1    110.7000    313.8000
    122    121    135   1    109.5000    292.8800
    122    121    136   1    109.5000    292.8800
    135    121    136   1    107.8000    276.1440
    121    122    123   1    109.5000    502.0800
    122    123    124   1    109.5000    418.4000
    122    123    137   1    109.5000    292.8800
    122    123    138   1    109.5000    292.8800
    124    123    137   1    110.7000    313.8000
    124    123    138   1    110.7000    313.8000
    137    123    138   1    107.8000    276.1440
    123    124    125   1    112.7000    488.2728
    123    124    139   1    110.7000    313.8000
    123    124    140   1    110.7000    313.8000
    125    124    139   1    110.7000    313.8000
    125    124    140   1    110.7000    313.8000
    139    124    140   1    107.8000    276.1440
    124    125    126   1    109.5000    418.4000
    124    125    141   1    110.7000    313.8000
    124    125    142   1    110.7000    313.8000
    126    125    141   1    109.5000    292.8800
    126    125    142   1    109.5000    292.8800
    141    125    142   1    107.8000    276.1440
    125    126    127   1    109.5000    502.0800
    126    127    128   1    112.0800    920.4800
    126    127    129   1    108.5670    753.1200
    126    127    143   1    109.5000    292.8800
    128    127    129   1    110.1910    753.1200
    128    127    143   1    108.0250    502.0800
    129    127    143   1    112.0110    376.5600
    127    128    144   1    107.9200    585.7600
    127    129    130   1    109.3800    753.1200
    127    129    145   1    108.7200    376.5600
    127    129    146   1    108.7200    376.5600
    130    129    145   1    109.5000    292.8800
    130    129    146   1    109.5000    292.8800
    145    129    146   1    107.8000    276.1440
    129    130    147   1    109.5000    502.0800
    130    147    148   1    109.5000    418.4000
    130    147    160   1    109.5000    292.8800
    130    147    161   1    109.5000    292.8800
    148    147    160   1    110.7000    313.8000
    148    147    161   1    110.7000    313.8000
    160    147    161   1    107.8000    276.1440
    147    148    149   1    109.5000    418.4000
    147    148    150   1    112.7000    488.2728
    147    148    162   1    110.7000    313.8000
    149    148    150   1    109.5000    418.4000
    149    148    162   1    109.5000    292.8800
    150    148    162   1    110.7000    313.8000
    148    149    163   1    108.5000    460.2400
    148    150    151   1    109.5000    418.4000
    148    150    164   1    110.7000    313.8000
    148    150    165   1    110.7000    313.8000
    151    150    164   1    109.5000    292.8800
    151    150    165   1    109.5000    292.8800
    164    150    165   1    107.8000    276.1440
    150    151    152   1    109.5000    502.0800
    151    152    153   1    109.5000    418.4000
    151    152    166   1    109.5000    292.8800
    151    152    167   1    109.5000    292.8800
    153    152    166   1    110.7000    313.8000
    153    152    167   1    110.7000    313.8000
    166    152    167   1    107.8000    276.1440
    152    153    154   1    112.7000    488.2728
    152    153    168   1    110.7000    313.8000
    152    153    169   1    110.7000    313.8000
    154    153    168   1    110.7000    313.8000
    154    153    169   1    110.7000    313.8000
    168    153    169   1    107.8000    276.1440
    153    154    155   1    109.5000    418.4000
    153    154    170   1    110.7000    313.8000
    153    154    171   1    110.7000    313.8000
    155    154    170   1    109.5000    292.8800
    155    154    171   1    109.5000    292.8800
    170    154    171   1    107.8000    276.1440
    154    155    156   1    109.5000    502.0800
    155    156    157   1    112.0800    920.4800
    155    156    158   1    108.5670    753.1200
    155    156    172   1    109.5000    292.8800
    157    156    158   1    110.1910    753.1200
    157    156    172   1    108.0250    502.0800
    158    156    172   1    112.0110    376.5600
    156    157    173   1    107.9200    585.7600
    156    158    159   1    109.3800    753.1200
    156    158    174   1    108.7200    376.5600
    156    158    175   1    108.7200    376.5600
    159    158    174   1    109.5000    292.8800
    159    158    175   1    109.5000    292.8800
    174    158    175   1    107.8000    276.1440
    158    159    176   1    109.5000    502.0800
    159    176    177   1    109.5000    418.4000
    159    176    189   1    109.5000    292.8800
    159    176    190   1    109.5000    292.8800
    177    176    189   1    110.7000    313.8000
    177    176    190   1    110.7000    313.8000
    189    176    190   1    107.8000    276.1440
    176    177    178   1    109.5000    418.4000
    176    177    179   1    112.7000    488.2728
    176    177    191   1    110.7000    313.8000
    178    177    179   1    109.5000    418.4000
    178    177    191   1    109.5000    292.8800
    179    177    191   1    110.7000    313.8000
    177    178    192   1    108.5000    460.2400
    177    179    180   1    109.5000    418.4000
    177    179    193   1    110.7000    313.8000
    177    179    194   1    110.7000    313.8000
    180    179    193   1    109.5000    292.8800
    180    179    194   1    109.5000    292.8800
    193    179    194   1    107.8000    276.1440
    179    180    181   1    109.5000    502.0800
    180    181    182   1    109.5000    418.4000
    180    181    195   1    109.5000    292.8800
    180    181    196   1    109.5000    292.8800
    182    181    195   1    110.7000    313.8000
    182    181    196   1    110.7000    313.8000
    195    181    196   1    107.8000    276.1440
    181    182    183   1    112.7000    488.2728
    181    182    197   1    110.7000    313.8000
    181    182    198   1    110.7000    313.8000
    183    182    197   1    110.7000    313.8000
    183    182    198   1    110.7000    313.8000
    197    182    198   1    107.8000    276.1440
    182    183    184   1    109.5000    418.4000
    182    183    199   1    110.7000    313.8000
    182    183    200   1    110.7000    313.8000
    184    183    199   1    109.5000    292.8800
    184    183    200   1    109.5000    292.8800
    199    183    200   1    107.8000    276.1440
    183    184    185   1    109.5000    502.0800
    184    185    186   1    112.0800    920.4800
    184    185    187   1    108.5670    753.1200
    184    185    201   1    109.5000    292.8800
    186    185    187   1    110.1910    753.1200
    186    185    201   1    108.0250    502.0800
    187    185    201   1    112.0110    376.5600
    185    186    202   1    107.9200    585.7600
    185    187    188   1    109.3800    753.1200
    185    187    203   1    108.7200    376.5600
    185    187    204   1    108.7200    376.5600
    188    187    203   1    109.5000    292.8800
    188    187    204   1    109.5000    292.8800
    203    187    204   1    107.8000    276.1440
    187    188    205   1    109.5000    502.0800
    188    205    206   1    109.5000    418.4000
    188    205    218   1    109.5000    292.8800
    188    205    219   1    109.5000    292.8800
    206    205    218   1    110.7000    313.8000
    206    205    219   1    110.7000    313.8000
    218    205    219   1    107.8000    276.1440
    205    206    207   1    109.5000    418.4000
    205    206    208   1    112.7000    488.2728
    205    206    220   1    110.7000    313.8000
    207    206    208   1    109.5000    418.4000
    207    206    220   1    109.5000    292.8800
    208    206    220   1    110.7000    313.8000
    206    207    221   1    108.5000    460.2400
    206    208    209   1    109.5000    418.4000
    206    208    222   1    110.7000    313.8000
    206    208    223   1    110.7000    313.8000
    209    208    222   1    109.5000    292.8800
    209    208    223   1    109.5000    292.8800
    222    208    223   1    107.8000    276.1440
    208    209    210   1    109.5000    502.0800
    209    210    211   1    109.5000    418.4000
    209    210    224   1    109.5000    292.8800
    209    210    225   1    109.5000    292.8800
    211    210    224   1    110.7000    313.8000
    211    210    225   1    110.7000    313.8000
    224    210    225   1    107.8000    276.1440
    210    211    212   1    112.7000    488.2728
    210    211    226   1    110.7000    313.8000
    210    211    227   1    110.7000    313.8000
    212    211    226   1    110.7000    313.8000
    212    211    227   1    110.7000    313.8000
    226    211    227   1    107.8000    276.1440
    211    212    213   1    109.5000    418.4000
    211    212    228   1    110.7000    313.8000
    211    212    229   1    110.7000    313.8000
    213    212    228   1    109.5000    292.8800
    213    212    229   1    109.5000    292.8800
    228    212    229   1    107.8000    276.1440
    212    213    214   1    109.5000    502.0800
    213    214    215   1    112.0800    920.4800
    213    214    216   1    108.5670    753.1200
    213    214    230   1    109.5000    292.8800
    215    214    216   1    110.1910    753.1200
    215    214    230   1    108.0250    502.0800
    216    214    230   1    112.0110    376.5600
    214    215    231   1    107.9200    585.7600
    214    216    217   1    109.3800    753.1200
    214    216    232   1    108.7200    376.5600
    214    216    233   1    108.7200    376.5600
    217    216    232   1    109.5000    292.8800
    217    216    233   1    109.5000    292.8800
    232    216    233   1    107.8000    276.1440
    216    217    234   1    109.5000    502.0800
    217    234    235   1    109.5000    418.4000
    217    234    247   1    109.5000    292.8800
    217    234    248   1    109.5000    292.8800
    235    234    247   1    110.7000    313.8000
    235    234    248   1    110.7000    313.8000
    247    234    248   1    107.8000    276.1440
    234    235    236   1    109.5000    418.4000
    234    235    237   1    112.7000    488.2728
    234    235    249   1    110.7000    313.8000
    236    235    237   1    109.5000    418.4000
    236    235    249   1    109.5000    292.8800
    237    235    249   1    110.7000    313.8000
    235    236    250   1    108.5000    460.2400
    235    237    238   1    109.5000    418.4000
    235    237    251   1    110.7000    313.8000
    235    237    252   1    110.7000    313.8000
    238    237    251   1    109.5000    292.8800
    238    237    252   1    109.5000    292.8800
    251    237    252   1    107.8000    276.1440
    237    238    239   1    109.5000    502.0800
    238    239    240   1    109.5000    418.4000
    238    239    253   1    109.5000    292.8800
    238    239    254   1    109.5000    292.8800
    240    239    253   1    110.7000    313.8000
    240    239    254   1    110.7000    313.8000
    253    239    254   1    107.8000    276.1440
    239    240    241   1    112.7000    488.2728
    239    240    255   1    110.7000    313.8000
    239    240    256   1    110.7000    313.8000
    241    240    255   1    110.7000    313.8000
    241    240    256   1    110.7000    313.8000
    255    240    256   1    107.8000    276.1440
    240    241    242   1    109.5000    418.4000
    240    241    257   1    110.7000    313.8000
    240    241    258   1    110.7000    313.8000
    242    241    257   1    109.5000    292.8800
    242    241    258   1    109.5000    292.8800
    257    241    258   1    107.8000    276.1440
    241    242    243   1    109.5000    502.0800
    242    243    244   1    112.0800    920.4800
    242    243    245   1    108.5670    753.1200
    242    243    259   1    109.5000    292.8800
    244    243    245   1    110.1910    753.1200
    244    243    259   1    108.0250    502.0800
    245    243    259   1    112.0110    376.5600
    243    244    260   1    107.9200    585.7600
    243    245    246   1    109.3800    753.1200
    243    245    261   1    108.7200    376.5600
    243    245    262   1    108.7200    376.5600
    246    245    261   1    109.5000    292.8800
    246    245    262   1    109.5000    292.8800
    261    245    262   1    107.8000    276.1440
    245    246    263   1    109.5000    502.0800
    246    263    264   1    109.5000    418.4000
    246    263    276   1    109.5000    292.8800
    246    263    277   1    109.5000    292.8800
    264    263    276   1    110.7000    313.8000
    264    263    277   1    110.7000    313.8000
    276    263    277   1    107.8000    276.1440
    263    264    265   1    109.5000    418.4000
    263    264    266   1    112.7000    488.2728
    263    264    278   1    110.7000    313.8000
    265    264    266   1    109.5000    418.4000
    265    264    278   1    109.5000    292.8800
    266    264    278   1    110.7000    313.8000
    264    265    279   1    108.5000    460.2400
    264    266    267   1    109.5000    418.4000
    264    266    280   1    110.7000    313.8000
    264    266    281   1    110.7000    313.8000
    267    266    280   1    109.5000    292.8800
    267    266    281   1    109.5000    292.8800
    280    266    281   1    107.8000    276.1440
    266    267    268   1    109.5000    502.0800
    267    268    269   1    109.5000    418.4000
    267    268    282   1    109.5000    292.8800
    267    268    283   1    109.5000    292.8800
    269    268    282   1    110.7000    313.8000
    269    268    283   1    110.7000    313.8000
    282    268    283   1    107.8000    276.1440
    268    269    270   1    112.7000    488.2728
    268    269    284   1    110.7000    313.8000
    268    269    285   1    110.7000    313.8000
    270    269    284   1    110.7000    313.8000
    270    269    285   1    110.7000    313.8000
    284    269    285   1    107.8000    276.1440
    269    270    271   1    109.5000    418.4000
    269    270    286   1    110.7000    313.8000
    269    270    287   1    110.7000    313.8000
    271    270    286   1    109.5000    292.8800
    271    270    287   1    109.5000    292.8800
    286    270    287   1    107.8000    276.1440
    270    271    272   1    109.5000    502.0800
    271    272    273   1    112.0800    920.4800
    271    272    274   1    108.5670    753.1200
    271    272    288   1    109.5000    292.8800
    273    272    274   1    110.1910    753.1200
    273    272    288   1    108.0250    502.0800
    274    272    288   1    112.0110    376.5600
    272    273    289   1    107.9200    585.7600
    272    274    275   1    109.3800    753.1200
    272    274    290   1    108.7200    376.5600
    272    274    291   1    108.7200    376.5600
    275    274    290   1    109.5000    292.8800
    275    274    291   1    109.5000    292.8800
    290    274    291   1    107.8000    276.1440
    274    275    292   1    109.5000    502.0800
    275    292    293   1    109.5000    418.4000
    275    292    305   1    109.5000    292.8800
    275    292    306   1    109.5000    292.8800
    293    292    305   1    110.7000    313.8000
    293    292    306   1    110.7000    313.8000
    305    292    306   1    107.8000    276.1440
    292    293    294   1    109.5000    418.4000
    292    293    295   1    112.7000    488.2728
    292    293    307   1    110.7000    313.8000
    294    293    295   1    109.5000    418.4000
    294    293    307   1    109.5000    292.8800
    295    293    307   1    110.7000    313.8000
    293    294    308   1    108.5000    460.2400
    293    295    296   1    109.5000    418.4000
    293    295    309   1    110.7000    313.8000
    293    295    310   1    110.7000    313.8000
    296    295    309   1    109.5000    292.8800
    296    295    310   1    109.5000    292.8800
    309    295    310   1    107.8000    276.1440
    295    296    297   1    109.5000    502.0800
    296    297    298   1    109.5000    418.4000
    296    297    311   1    109.5000    292.8800
    296    297    312   1    109.5000    292.8800
    298    297    311   1    110.7000    313.8000
    298    297    312   1    110.7000    313.8000
    311    297    312   1    107.8000    276.1440
    297    298    299   1    112.7000    488.2728
    297    298    313   1    110.7000    313.8000
    297    298    314   1    110.7000    313.8000
    299    298    313   1    110.7000    313.8000
    299    298    314   1    110.7000    313.8000
    313    298    314   1    107.8000    276.1440
    298    299    300   1    109.5000    418.4000
    298    299    315   1    110.7000    313.8000
    298    299    316   1    110.7000    313.8000
    300    299    315   1    109.5000    292.8800
    300    299    316   1    109.5000    292.8800
    315    299    316   1    107.8000    276.1440
    299    300    301   1    109.5000    502.0800
    300    301    302   1    112.0800    920.4800
    300    301    303   1    108.5670    753.1200
    300    301    317   1    109.5000    292.8800
    302    301    303   1    110.1910    753.1200
    302    301    317   1    108.0250    502.0800
    303    301    317   1    112.0110    376.5600
    301    302    318   1    107.9200    585.7600
    301    303    304   1    109.3800    753.1200
    301    303    319   1    108.7200    376.5600
    301    303    320   1    108.7200    376.5600
    304    303    319   1    109.5000    292.8800
    304    303    320   1    109.5000    292.8800
    319    303    320   1    107.8000    276.1440
    303    304    321   1    109.5000    502.0800
    304    321    322   1    109.5000    418.4000
    304    321    334   1    109.5000    292.8800
    304    321    335   1    109.5000    292.8800
    322    321    334   1    110.7000    313.8000
    322    321    335   1    110.7000    313.8000
    334    321    335   1    107.8000    276.1440
    321    322    323   1    109.5000    418.4000
    321    322    324   1    112.7000    488.2728
    321    322    336   1    110.7000    313.8000
    323    322    324   1    109.5000    418.4000
    323    322    336   1    109.5000    292.8800
    324    322    336   1    110.7000    313.8000
    322    323    337   1    108.5000    460.2400
    322    324    325   1    109.5000    418.4000
    322    324    338   1    110.7000    313.8000
    322    324    339   1    110.7000    313.8000
    325    324    338   1    109.5000    292.8800
    325    324    339   1    109.5000    292.8800
    338    324    339   1    107.8000    276.1440
    324    325    326   1    109.5000    502.0800
    325    326    327   1    109.5000    418.4000
    325    326    340   1    109.5000    292.8800
    325    326    341   1    109.5000    292.8800
    327    326    340   1    110.7000    313.8000
    327    326    341   1    110.7000    313.8000
    340    326    341   1    107.8000    276.1440
    326    327    328   1    112.7000    488.2728
    326    327    342   1    110.7000    313.8000
    326    327    343   1    110.7000    313.8000
    328    327    342   1    110.7000    313.8000
    328    327    343   1    110.7000    313.8000
    342    327    343   1    107.8000    276.1440
    327    328    329   1    109.5000    418.4000
    327    328    344   1    110.7000    313.8000
    327    328    345   1    110.7000    313.8000
    329    328    344   1    109.5000    292.8800
    329    328    345   1    109.5000    292.8800
    344    328    345   1    107.8000    276.1440
    328    329    330   1    109.5000    502.0800
    329    330    331   1    112.0800    920.4800
    329    330    332   1    108.5670    753.1200
    329    330    346   1    109.5000    292.8800
    331    330    332   1    110.1910    753.1200
    331    330    346   1    108.0250    502.0800
    332    330    346   1    112.0110    376.5600
    330    331    347   1    107.9200    585.7600
    330    332    333   1    109.3800    753.1200
    330    332    348   1    108.7200    376.5600
    330    332    349   1    108.7200    376.5600
    333    332    348   1    109.5000    292.8800
    333    332    349   1    109.5000    292.8800
    348    332    349   1    107.8000    276.1440
    332    333    350   1    109.5000    502.0800
    333    350    351   1    109.5000    418.4000
    333    350    363   1    109.5000    292.8800
    333    350    364   1    109.5000    292.8800
    351    350    363   1    110.7000    313.8000
    351    350    364   1    110.7000    313.8000
    363    350    364   1    107.8000    276.1440
    350    351    352   1    109.5000    418.4000
    350    351    353   1    112.7000    488.2728
    350    351    365   1    110.7000    313.8000
    352    351    353   1    109.5000    418.4000
    352    351    365   1    109.5000    292.8800
    353    351    365   1    110.7000    313.8000
    351    352    366   1    108.5000    460.2400
    351    353    354   1    109.5000    418.4000
    351    353    367   1    110.7000    313.8000
    351    353    368   1    110.7000    313.8000
    354    353    367   1    109.5000    292.8800
    354    353    368   1    109.5000    292.8800
    367    353    368   1    107.8000    276.1440
    353    354    355   1    109.5000    502.0800
    354    355    356   1    109.5000    418.4000
    354    355    369   1    109.5000    292.8800
    354    355    370   1    109.5000    292.8800
    356    355    369   1    110.7000    313.8000
    356    355    370   1    110.7000    313.8000
    369    355    370   1    107.8000    276.1440
    355    356    357   1    112.7000    488.2728
    355    356    371   1    110.7000    313.8000
    355    356    372   1    110.7000    313.8000
    357    356    371   1    110.7000    313.8000
    357    356    372   1    110.7000    313.8000
    371    356    372   1    107.8000    276.1440
    356    357    358   1    109.5000    418.4000
    356    357    373   1    110.7000    313.8000
    356    357    374   1    110.7000    313.8000
    358    357    373   1    109.5000    292.8800
    358    357    374   1    109.5000    292.8800
    373    357    374   1    107.8000    276.1440
    357    358    359   1    109.5000    502.0800
    358    359    360   1    112.0800    920.4800
    358    359    361   1    108.5670    753.1200
    358    359    375   1    109.5000    292.8800
    360    359    361   1    110.1910    753.1200
    360    359    375   1    108.0250    502.0800
    361    359    375   1    112.0110    376.5600
    359    360    376   1    107.9200    585.7600
    359    361    362   1    109.3800    753.1200
    359    361    377   1    108.7200    376.5600
    359    361    378   1    108.7200    376.5600
    362    361    377   1    109.5000    292.8800
    362    361    378   1    109.5000    292.8800
    377    361    378   1    107.8000    276.1440
    361    362    379   1    109.5000    502.0800
    362    379    380   1    109.5000    418.4000
    362    379    392   1    109.5000    292.8800
    362    379    393   1    109.5000    292.8800
    380    379    392   1    110.7000    313.8000
    380    379    393   1    110.7000    313.8000
    392    379    393   1    107.8000    276.1440
    379    380    381   1    109.5000    418.4000
    379    380    382   1    112.7000    488.2728
    379    380    394   1    110.7000    313.8000
    381    380    382   1    109.5000    418.4000
    381    380    394   1    109.5000    292.8800
    382    380    394   1    110.7000    313.8000
    380    381    395   1    108.5000    460.2400
    380    382    383   1    109.5000    418.4000
    380    382    396   1    110.7000    313.8000
    380    382    397   1    110.7000    313.8000
    383    382    396   1    109.5000    292.8800
    383    382    397   1    109.5000    292.8800
    396    382    397   1    107.8000    276.1440
    382    383    384   1    109.5000    502.0800
    383    384    385   1    109.5000    418.4000
    383    384    398   1    109.5000    292.8800
    383    384    399   1    109.5000    292.8800
    385    384    398   1    110.7000    313.8000
    385    384    399   1    110.7000    313.8000
    398    384    399   1    107.8000    276.1440
    384    385    386   1    112.7000    488.2728
    384    385    400   1    110.7000    313.8000
    384    385    401   1    110.7000    313.8000
    386    385    400   1    110.7000    313.8000
    386    385    401   1    110.7000    313.8000
    400    385    401   1    107.8000    276.1440
    385    386    387   1    109.5000    418.4000
    385    386    402   1    110.7000    313.8000
    385    386    403   1    110.7000    313.8000
    387    386    402   1    109.5000    292.8800
    387    386    403   1    109.5000    292.8800
    402    386    403   1    107.8000    276.1440
    386    387    388   1    109.5000    502.0800
    387    388    389   1    112.0800    920.4800
    387    388    390   1    108.5670    753.1200
    387    388    404   1    109.5000    292.8800
    389    388    390   1    110.1910    753.1200
    389    388    404   1    108.0250    502.0800
    390    388    404   1    112.0110    376.5600
    388    389    405   1    107.9200    585.7600
    388    390    391   1    109.3800    753.1200
    388    390    406   1    108.7200    376.5600
    388    390    407   1    108.7200    376.5600
    391    390    406   1    109.5000    292.8800
    391    390    407   1    109.5000    292.8800
    406    390    407   1    107.8000    276.1440
    390    391    408   1    109.5000    502.0800
    391    408    409   1    109.5000    418.4000
    391    408    421   1    109.5000    292.8800
    391    408    422   1    109.5000    292.8800
    409    408    421   1    110.7000    313.8000
    409    408    422   1    110.7000    313.8000
    421    408    422   1    107.8000    276.1440
    408    409    410   1    109.5000    418.4000
    408    409    411   1    112.7000    488.2728
    408    409    423   1    110.7000    313.8000
    410    409    411   1    109.5000    418.4000
    410    409    423   1    109.5000    292.8800
    411    409    423   1    110.7000    313.8000
    409    410    424   1    108.5000    460.2400
    409    411    412   1    109.5000    418.4000
    409    411    425   1    110.7000    313.8000
    409    411    426   1    110.7000    313.8000
    412    411    425   1    109.5000    292.8800
    412    411    426   1    109.5000    292.8800
    425    411    426   1    107.8000    276.1440
    411    412    413   1    109.5000    502.0800
    412    413    414   1    109.5000    418.4000
    412    413    427   1    109.5000    292.8800
    412    413    428   1    109.5000    292.8800
    414    413    427   1    110.7000    313.8000
    414    413    428   1    110.7000    313.8000
    427    413    428   1    107.8000    276.1440
    413    414    415   1    112.7000    488.2728
    413    414    429   1    110.7000    313.8000
    413    414    430   1    110.7000    313.8000
    415    414    429   1    110.7000    313.8000
    415    414    430   1    110.7000    313.8000
    429    414    430   1    107.8000    276.1440
    414    415    416   1    109.5000    418.4000
    414    415    431   1    110.7000    313.8000
    414    415    432   1    110.7000    313.8000
    416    415    431   1    109.5000    292.8800
    416    415    432   1    109.5000    292.8800
    431    415    432   1    107.8000    276.1440
    415    416    417   1    109.5000    502.0800
    416    417    418   1    112.0800    920.4800
    416    417    419   1    108.5670    753.1200
    416    417    433   1    109.5000    292.8800
    418    417    419   1    110.1910    753.1200
    418    417    433   1    108.0250    502.0800
    419    417    433   1    112.0110    376.5600
    417    418    434   1    107.9200    585.7600
    417    419    420   1    109.3800    753.1200
    417    419    435   1    108.7200    376.5600
    417    419    436   1    108.7200    376.5600
    420    419    435   1    109.5000    292.8800
    420    419    436   1    109.5000    292.8800
    435    419    436   1    107.8000    276.1440
    419    420    437   1    109.5000    502.0800
    420    437    438   1    109.5000    418.4000
    420    437    450   1    109.5000    292.8800
    420    437    451   1    109.5000    292.8800
    438    437    450   1    110.7000    313.8000
    438    437    451   1    110.7000    313.8000
    450    437    451   1    107.8000    276.1440
    437    438    439   1    109.5000    418.4000
    437    438    440   1    112.7000    488.2728
    437    438    452   1    110.7000    313.8000
    439    438    440   1    109.5000    418.4000
    439    438    452   1    109.5000    292.8800
    440    438    452   1    110.7000    313.8000
    438    439    453   1    108.5000    460.2400
    438    440    441   1    109.5000    418.4000
    438    440    454   1    110.7000    313.8000
    438    440    455   1    110.7000    313.8000
    441    440    454   1    109.5000    292.8800
    441    440    455   1    109.5000    292.8800
    454    440    455   1    107.8000    276.1440
    440    441    442   1    109.5000    502.0800
    441    442    443   1    109.5000    418.4000
    441    442    456   1    109.5000    292.8800
    441    442    457   1    109.5000    292.8800
    443    442    456   1    110.7000    313.8000
    443    442    457   1    110.7000    313.8000
    456    442    457   1    107.8000    276.1440
    442    443    444   1    112.7000    488.2728
    442    443    458   1    110.7000    313.8000
    442    443    459   1    110.7000    313.8000
    444    443    458   1    110.7000    313.8000
    444    443    459   1    110.7000    313.8000
    458    443    459   1    107.8000    276.1440
    443    444    445   1    109.5000    418.4000
    443    444    460   1    110.7000    313.8000
    443    444    461   1    110.7000    313.8000
    445    444    460   1    109.5000    292.8800
    445    444    461   1    109.5000    292.8800
    460    444    461   1    107.8000    276.1440
    444    445    446   1    109.5000    502.0800
    445    446    447   1    112.0800    920.4800
    445    446    448   1    108.5670    753.1200
    445    446    462   1    109.5000    292.8800
    447    446    448   1    110.1910    753.1200
    447    446    462   1    108.0250    502.0800
    448    446    462   1    112.0110    376.5600
    446    447    463   1    107.9200    585.7600
    446    448    449   1    109.3800    753.1200
    446    448    464   1    108.7200    376.5600
    446    448    465   1    108.7200    376.5600
    449    448    464   1    109.5000    292.8800
    449    448    465   1    109.5000    292.8800
    464    448    465   1    107.8000    276.1440
    448    449    466   1    109.5000    502.0800
    449    466    467   1    109.5000    418.4000
    449    466    479   1    109.5000    292.8800
    449    466    480   1    109.5000    292.8800
    467    466    479   1    110.7000    313.8000
    467    466    480   1    110.7000    313.8000
    479    466    480   1    107.8000    276.1440
    466    467    468   1    109.5000    418.4000
    466    467    469   1    112.7000    488.2728
    466    467    481   1    110.7000    313.8000
    468    467    469   1    109.5000    418.4000
    468    467    481   1    109.5000    292.8800
    469    467    481   1    110.7000    313.8000
    467    468    482   1    108.5000    460.2400
    467    469    470   1    109.5000    418.4000
    467    469    483   1    110.7000    313.8000
    467    469    484   1    110.7000    313.8000
    470    469    483   1    109.5000    292.8800
    470    469    484   1    109.5000    292.8800
    483    469    484   1    107.8000    276.1440
    469    470    471   1    109.5000    502.0800
    470    471    472   1    109.5000    418.4000
    470    471    485   1    109.5000    292.8800
    470    471    486   1    109.5000    292.8800
    472    471    485   1    110.7000    313.8000
    472    471    486   1    110.7000    313.8000
    485    471    486   1    107.8000    276.1440
    471    472    473   1    112.7000    488.2728
    471    472    487   1    110.7000    313.8000
    471    472    488   1    110.7000    313.8000
    473    472    487   1    110.7000    313.8000
    473    472    488   1    110.7000    313.8000
    487    472    488   1    107.8000    276.1440
    472    473    474   1    109.5000    418.4000
    472    473    489   1    110.7000    313.8000
    472    473    490   1    110.7000    313.8000
    474    473    489   1    109.5000    292.8800
    474    473    490   1    109.5000    292.8800
    489    473    490   1    107.8000    276.1440
    473    474    475   1    109.5000    502.0800
    474    475    476   1    112.0800    920.4800
    474    475    477   1    108.5670    753.1200
    474    475    491   1    109.5000    292.8800
    476    475    477   1    110.1910    753.1200
    476    475    491   1    108.0250    502.0800
    477    475    491   1    112.0110    376.5600
    475    476    492   1    107.9200    585.7600
    475    477    478   1    109.3800    753.1200
    475    477    493   1    108.7200    376.5600
    475    477    494   1    108.7200    376.5600
    478    477    493   1    109.5000    292.8800
    478    477    494   1    109.5000    292.8800
    493    477    494   1    107.8000    276.1440
    477    478    495   1    109.5000    502.0800
    478    495    496   1    109.5000    418.4000
    478    495    508   1    109.5000    292.8800
    478    495    509   1    109.5000    292.8800
    496    495    508   1    110.7000    313.8000
    496    495    509   1    110.7000    313.8000
    508    495    509   1    107.8000    276.1440
    495    496    497   1    109.5000    418.4000
    495    496    498   1    112.7000    488.2728
    495    496    510   1    110.7000    313.8000
    497    496    498   1    109.5000    418.4000
    497    496    510   1    109.5000    292.8800
    498    496    510   1    110.7000    313.8000
    496    497    511   1    108.5000    460.2400
    496    498    499   1    109.5000    418.4000
    496    498    512   1    110.7000    313.8000
    496    498    513   1    110.7000    313.8000
    499    498    512   1    109.5000    292.8800
    499    498    513   1    109.5000    292.8800
    512    498    513   1    107.8000    276.1440
    498    499    500   1    109.5000    502.0800
    499    500    501   1    109.5000    418.4000
    499    500    514   1    109.5000    292.8800
    499    500    515   1    109.5000    292.8800
    501    500    514   1    110.7000    313.8000
    501    500    515   1    110.7000    313.8000
    514    500    515   1    107.8000    276.1440
    500    501    502   1    112.7000    488.2728
    500    501    516   1    110.7000    313.8000
    500    501    517   1    110.7000    313.8000
    502    501    516   1    110.7000    313.8000
    502    501    517   1    110.7000    313.8000
    516    501    517   1    107.8000    276.1440
    501    502    503   1    109.5000    418.4000
    501    502    518   1    110.7000    313.8000
    501    502    519   1    110.7000    313.8000
    503    502    518   1    109.5000    292.8800
    503    502    519   1    109.5000    292.8800
    518    502    519   1    107.8000    276.1440
    502    503    504   1    109.5000    502.0800
    503    504    505   1    112.0800    920.4800
    503    504    506   1    108.5670    753.1200
    503    504    520   1    109.5000    292.8800
    505    504    506   1    110.1910    753.1200
    505    504    520   1    108.0250    502.0800
    506    504    520   1    112.0110    376.5600
    504    505    521   1    107.9200    585.7600
    504    506    507   1    109.3800    753.1200
    504    506    522   1    108.7200    376.5600
    504    506    523   1    108.7200    376.5600
    507    506    522   1    109.5000    292.8800
    507    506    523   1    109.5000    292.8800
    522    506    523   1    107.8000    276.1440
    506    507    524   1    109.5000    502.0800
    507    524    525   1    109.5000    418.4000
    507    524    537   1    109.5000    292.8800
    507    524    538   1    109.5000    292.8800
    525    524    537   1    110.7000    313.8000
    525    524    538   1    110.7000    313.8000
    537    524    538   1    107.8000    276.1440
    524    525    526   1    109.5000    418.4000
    524    525    527   1    112.7000    488.2728
    524    525    539   1    110.7000    313.8000
    526    525    527   1    109.5000    418.4000
    526    525    539   1    109.5000    292.8800
    527    525    539   1    110.7000    313.8000
    525    526    540   1    108.5000    460.2400
    525    527    528   1    109.5000    418.4000
    525    527    541   1    110.7000    313.8000
    525    527    542   1    110.7000    313.8000
    528    527    541   1    109.5000    292.8800
    528    527    542   1    109.5000    292.8800
    541    527    542   1    107.8000    276.1440
    527    528    529   1    109.5000    502.0800
    528    529    530   1    109.5000    418.4000
    528    529    543   1    109.5000    292.8800
    528    529    544   1    109.5000    292.8800
    530    529    543   1    110.7000    313.8000
    530    529    544   1    110.7000    313.8000
    543    529    544   1    107.8000    276.1440
    529    530    531   1    112.7000    488.2728
    529    530    545   1    110.7000    313.8000
    529    530    546   1    110.7000    313.8000
    531    530    545   1    110.7000    313.8000
    531    530    546   1    110.7000    313.8000
    545    530    546   1    107.8000    276.1440
    530    531    532   1    109.5000    418.4000
    530    531    547   1    110.7000    313.8000
    530    531    548   1    110.7000    313.8000
    532    531    547   1    109.5000    292.8800
    532    531    548   1    109.5000    292.8800
    547    531    548   1    107.8000    276.1440
    531    532    533   1    109.5000    502.0800
    532    533    534   1    112.0800    920.4800
    532    533    535   1    108.5670    753.1200
    532    533    549   1    109.5000    292.8800
    534    533    535   1    110.1910    753.1200
    534    533    549   1    108.0250    502.0800
    535    533    549   1    112.0110    376.5600
    533    534    550   1    107.9200    585.7600
    533    535    536   1    109.3800    753.1200
    533    535    551   1    108.7200    376.5600
    533    535    552   1    108.7200    376.5600
    536    535    551   1    109.5000    292.8800
    536    535    552   1    109.5000    292.8800
    551    535    552   1    107.8000    276.1440
    535    536    553   1    109.5000    502.0800
    536    553    554   1    109.5000    418.4000
    536    553    566   1    109.5000    292.8800
    536    553    567   1    109.5000    292.8800
    554    553    566   1    110.7000    313.8000
    554    553    567   1    110.7000    313.8000
    566    553    567   1    107.8000    276.1440
    553    554    555   1    109.5000    418.4000
    553    554    556   1    112.7000    488.2728
    553    554    568   1    110.7000    313.8000
    555    554    556   1    109.5000    418.4000
    555    554    568   1    109.5000    292.8800
    556    554    568   1    110.7000    313.8000
    554    555    569   1    108.5000    460.2400
    554    556    557   1    109.5000    418.4000
    554    556    570   1    110.7000    313.8000
    554    556    571   1    110.7000    313.8000
    557    556    570   1    109.5000    292.8800
    557    556    571   1    109.5000    292.8800
    570    556    571   1    107.8000    276.1440
    556    557    558   1    109.5000    502.0800
    557    558    559   1    109.5000    418.4000
    557    558    572   1    109.5000    292.8800
    557    558    573   1    109.5000    292.8800
    559    558    572   1    110.7000    313.8000
    559    558    573   1    110.7000    313.8000
    572    558    573   1    107.8000    276.1440
    558    559    560   1    112.7000    488.2728
    558    559    574   1    110.7000    313.8000
    558    559    575   1    110.7000    313.8000
    560    559    574   1    110.7000    313.8000
    560    559    575   1    110.7000    313.8000
    574    559    575   1    107.8000    276.1440
    559    560    561   1    109.5000    418.4000
    559    560    576   1    110.7000    313.8000
    559    560    577   1    110.7000    313.8000
    561    560    576   1    109.5000    292.8800
    561    560    577   1    109.5000    292.8800
    576    560    577   1    107.8000    276.1440
    560    561    562   1    109.5000    502.0800
    561    562    563   1    112.0800    920.4800
    561    562    564   1    108.5670    753.1200
    561    562    578   1    109.5000    292.8800
    563    562    564   1    110.1910    753.1200
    563    562    578   1    108.0250    502.0800
    564    562    578   1    112.0110    376.5600
    562    563    579   1    107.9200    585.7600
    562    564    565   1    111.5870    753.1200
    562    564    580   1    108.7200    376.5600
    562    564    581   1    108.7200    376.5600
    565    564    580   1    109.5000    292.8800
    565    564    581   1    109.5000    292.8800
    580    564    581   1    107.8000    276.1440
    564    565    582   1    108.5000    460.2400

[ dihedrals ]
; Proper dihedrals
     14      1      2      3   5     0.00000     0.00000     1.95811  0.0
     14      1      2      4   5     0.00000     0.00000     1.25520  0.0
     14      1      2     16   5     0.00000     0.00000     1.25520  0.0
     15      1      2      3   5     0.00000     0.00000     1.95811  0.0
     15      1      2      4   5     0.00000     0.00000     1.25520  0.0
     15      1      2     16   5     0.00000     0.00000     1.25520  0.0
     30      1      2      3   5     0.00000     0.00000     1.95811  0.0
     30      1      2      4   5     0.00000     0.00000     1.25520  0.0
     30      1      2     16   5     0.00000     0.00000     1.25520  0.0
      1      2      3     17   5    -0.97069    -0.79078     1.77820  0.0
      4      2      3     17   5    -0.97069    -0.79078     1.77820  0.0
     16      2      3     17   5     0.00000     0.00000     1.62758  0.0
      1      2      4      5   5     5.25092    -2.58990     2.28446  0.0
      1      2      4     18   5     0.00000     0.00000     1.25520  0.0
      1      2      4     19   5     0.00000     0.00000     1.25520  0.0
      3      2      4      5   5    30.90721   -15.30926     0.00000  0.0
      3      2      4     18   5     0.00000     0.00000     1.95811  0.0
      3      2      4     19   5     0.00000     0.00000     1.95811  0.0
     16      2      4      5   5     0.00000     0.00000     1.95811  0.0
     16      2      4     18   5     0.00000     0.00000     1.25520  0.0
     16      2      4     19   5     0.00000     0.00000     1.25520  0.0
      2      4      5      6   5     0.52300    -0.09205     2.34722  0.0
     18      4      5      6   5     0.00000     0.00000     3.10034  0.0
     19      4      5      6   5     0.00000     0.00000     3.10034  0.0
      4      5      6      7   5     0.52300    -0.09205     2.34722  0.0
      4      5      6     20   5     0.00000     0.00000     3.10034  0.0
      4      5      6     21   5     0.00000     0.00000     3.10034  0.0
      5      6      7      8   5     5.25092    -2.58990     2.28446  0.0
      5      6      7     22   5     0.00000     0.00000     1.95811  0.0
      5      6      7     23   5     0.00000     0.00000     1.95811  0.0
     20      6      7      8   5     0.00000     0.00000     1.25520  0.0
     20      6      7     22   5     0.00000     0.00000     1.25520  0.0
     20      6      7     23   5     0.00000     0.00000     1.25520  0.0
     21      6      7      8   5     0.00000     0.00000     1.25520  0.0
     21      6      7     22   5     0.00000     0.00000     1.25520  0.0
     21      6      7     23   5     0.00000     0.00000     1.25520  0.0
      6      7      8      9   5     5.25092    -2.58990     2.28446  0.0
      6      7      8     24   5     0.00000     0.00000     1.25520  0.0
      6      7      8     25   5     0.00000     0.00000     1.25520  0.0
     22      7      8      9   5     0.00000     0.00000     1.95811  0.0
     22      7      8     24   5     0.00000     0.00000     1.25520  0.0
     22      7      8     25   5     0.00000     0.00000     1.25520  0.0
     23      7      8      9   5     0.00000     0.00000     1.95811  0.0
     23      7      8     24   5     0.00000     0.00000     1.25520  0.0
     23      7      8     25   5     0.00000     0.00000     1.25520  0.0
      7      8      9     10   5     0.52300    -0.09205     2.34722  0.0
     24      8      9     10   5     0.00000     0.00000     3.10034  0.0
     25      8      9     10   5     0.00000     0.00000     3.10034  0.0
      8      9     10     11   5    -5.93291    -9.87424     7.66927  0.0
      8      9     10     12   5     0.52300    -0.09205     2.34722  0.0
      8      9     10     26   5     0.00000     0.00000     3.10034  0.0
      9     10     11     27   5    -4.18400    -6.18814     1.43511  0.0
     12     10     11     27   5    -0.97069    -0.79078     1.77820  0.0
     26     10     11     27   5     0.00000     0.00000     1.62758  0.0
      9     10     12     13   5     9.36379    -9.73617    -2.85767  0.0
      9     10     12     28   5     0.00000     0.00000     1.95811  0.0
      9     10     12     29   5     0.00000     0.00000     1.95811  0.0
     11     10     12     13   5    30.90721   -15.30926     0.00000  0.0
     11     10     12     28   5     0.00000     0.00000     1.95811  0.0
     11     10     12     29   5     0.00000     0.00000     1.95811  0.0
     26     10     12     13   5     0.00000     0.00000     1.95811  0.0
     26     10     12     28   5     0.00000     0.00000     1.25520  0.0
     26     10     12     29   5     0.00000     0.00000     1.25520  0.0
     10     12     13     31   5     0.52300    -0.09205     2.34722  0.0
     28     12     13     31   5     0.00000     0.00000     3.10034  0.0
     29     12     13     31   5     0.00000     0.00000     3.10034  0.0
     12     13     31     32   5     0.52300    -0.09205     2.34722  0.0
     12     13     31     44   5     0.00000     0.00000     3.10034  0.0
     12     13     31     45   5     0.00000     0.00000     3.10034  0.0
     13     31     32     33   5    30.90721   -15.30926     0.00000  0.0
     13     31     32     34   5     5.25092    -2.58990     2.28446  0.0
     13     31     32     46   5     0.00000     0.00000     1.95811  0.0
     44     31     32     33   5     0.00000     0.00000     1.95811  0.0
     44     31     32     34   5     0.00000     0.00000     1.25520  0.0
     44     31     32     46   5     0.00000     0.00000     1.25520  0.0
     45     31     32     33   5     0.00000     0.00000     1.95811  0.0
     45     31     32     34   5     0.00000     0.00000     1.25520  0.0
     45     31     32     46   5     0.00000     0.00000     1.25520  0.0
     31     32     33     47   5    -0.97069    -0.79078     1.77820  0.0
     34     32     33     47   5    -0.97069    -0.79078     1.77820  0.0
     46     32     33     47   5     0.00000     0.00000     1.62758  0.0
     31     32     34     35   5     5.25092    -2.58990     2.28446  0.0
     31     32     34     48   5     0.00000     0.00000     1.25520  0.0
     31     32     34     49   5     0.00000     0.00000     1.25520  0.0
     33     32     34     35   5    30.90721   -15.30926     0.00000  0.0
     33     32     34     48   5     0.00000     0.00000     1.95811  0.0
     33     32     34     49   5     0.00000     0.00000     1.95811  0.0
     46     32     34     35   5     0.00000     0.00000     1.95811  0.0
     46     32     34     48   5     0.00000     0.00000     1.25520  0.0
     46     32     34     49   5     0.00000     0.00000     1.25520  0.0
     32     34     35     36   5     0.52300    -0.09205     2.34722  0.0
     48     34     35     36   5     0.00000     0.00000     3.10034  0.0
     49     34     35     36   5     0.00000     0.00000     3.10034  0.0
     34     35     36     37   5     0.52300    -0.09205     2.34722  0.0
     34     35     36     50   5     0.00000     0.00000     3.10034  0.0
     34     35     36     51   5     0.00000     0.00000     3.10034  0.0
     35     36     37     38   5     5.25092    -2.58990     2.28446  0.0
     35     36     37     52   5     0.00000     0.00000     1.95811  0.0
     35     36     37     53   5     0.00000     0.00000     1.95811  0.0
     50     36     37     38   5     0.00000     0.00000     1.25520  0.0
     50     36     37     52   5     0.00000     0.00000     1.25520  0.0
     50     36     37     53   5     0.00000     0.00000     1.25520  0.0
     51     36     37     38   5     0.00000     0.00000     1.25520  0.0
     51     36     37     52   5     0.00000     0.00000     1.25520  0.0
     51     36     37     53   5     0.00000     0.00000     1.25520  0.0
     36     37     38     39   5     5.25092    -2.58990     2.28446  0.0
     36     37     38     54   5     0.00000     0.00000     1.25520  0.0
     36     37     38     55   5     0.00000     0.00000     1.25520  0.0
     52     37     38     39   5     0.00000     0.00000     1.95811  0.0
     52     37     38     54   5     0.00000     0.00000     1.25520  0.0
     52     37     38     55   5     0.00000     0.00000     1.25520  0.0
     53     37     38     39   5     0.00000     0.00000     1.95811  0.0
     53     37     38     54   5     0.00000     0.00000     1.25520  0.0
     53     37     38     55   5     0.00000     0.00000     1.25520  0.0
     37     38     39     40   5     0.52300    -0.09205     2.34722  0.0
     54     38     39     40   5     0.00000     0.00000     3.10034  0.0
     55     38     39     40   5     0.00000     0.00000     3.10034  0.0
     38     39     40     41   5    -5.93291    -9.87424     7.66927  0.0
     38     39     40     42   5     0.52300    -0.09205     2.34722  0.0
     38     39     40     56   5     0.00000     0.00000     3.10034  0.0
     39     40     41     57   5    -4.18400    -6.18814     1.43511  0.0
     42     40     41     57   5    -0.97069    -0.79078     1.77820  0.0
     56     40     41     57   5     0.00000     0.00000     1.62758  0.0
     39     40     42     43   5     9.36379    -9.73617    -2.85767  0.0
     39     40     42     58   5     0.00000     0.00000     1.95811  0.0
     39     40     42     59   5     0.00000     0.00000     1.95811  0.0
     41     40     42     43   5    30.90721   -15.30926     0.00000  0.0
     41     40     42     58   5     0.00000     0.00000     1.95811  0.0
     41     40     42     59   5     0.00000     0.00000     1.95811  0.0
     56     40     42     43   5     0.00000     0.00000     1.95811  0.0
     56     40     42     58   5     0.00000     0.00000     1.25520  0.0
     56     40     42     59   5     0.00000     0.00000     1.25520  0.0
     40     42     43     60   5     0.52300    -0.09205     2.34722  0.0
     58     42     43     60   5     0.00000     0.00000     3.10034  0.0
     59     42     43     60   5     0.00000     0.00000     3.10034  0.0
     42     43     60     61   5     0.52300    -0.09205     2.34722  0.0
     42     43     60     73   5     0.00000     0.00000     3.10034  0.0
     42     43     60     74   5     0.00000     0.00000     3.10034  0.0
     43     60     61     62   5    30.90721   -15.30926     0.00000  0.0
     43     60     61     63   5     5.25092    -2.58990     2.28446  0.0
     43     60     61     75   5     0.00000     0.00000     1.95811  0.0
     73     60     61     62   5     0.00000     0.00000     1.95811  0.0
     73     60     61     63   5     0.00000     0.00000     1.25520  0.0
     73     60     61     75   5     0.00000     0.00000     1.25520  0.0
     74     60     61     62   5     0.00000     0.00000     1.95811  0.0
     74     60     61     63   5     0.00000     0.00000     1.25520  0.0
     74     60     61     75   5     0.00000     0.00000     1.25520  0.0
     60     61     62     76   5    -0.97069    -0.79078     1.77820  0.0
     63     61     62     76   5    -0.97069    -0.79078     1.77820  0.0
     75     61     62     76   5     0.00000     0.00000     1.62758  0.0
     60     61     63     64   5     5.25092    -2.58990     2.28446  0.0
     60     61     63     77   5     0.00000     0.00000     1.25520  0.0
     60     61     63     78   5     0.00000     0.00000     1.25520  0.0
     62     61     63     64   5    30.90721   -15.30926     0.00000  0.0
     62     61     63     77   5     0.00000     0.00000     1.95811  0.0
     62     61     63     78   5     0.00000     0.00000     1.95811  0.0
     75     61     63     64   5     0.00000     0.00000     1.95811  0.0
     75     61     63     77   5     0.00000     0.00000     1.25520  0.0
     75     61     63     78   5     0.00000     0.00000     1.25520  0.0
     61     63     64     65   5     0.52300    -0.09205     2.34722  0.0
     77     63     64     65   5     0.00000     0.00000     3.10034  0.0
     78     63     64     65   5     0.00000     0.00000     3.10034  0.0
     63     64     65     66   5     0.52300    -0.09205     2.34722  0.0
     63     64     65     79   5     0.00000     0.00000     3.10034  0.0
     63     64     65     80   5     0.00000     0.00000     3.10034  0.0
     64     65     66     67   5     5.25092    -2.58990     2.28446  0.0
     64     65     66     81   5     0.00000     0.00000     1.95811  0.0
     64     65     66     82   5     0.00000     0.00000     1.95811  0.0
     79     65     66     67   5     0.00000     0.00000     1.25520  0.0
     79     65     66     81   5     0.00000     0.00000     1.25520  0.0
     79     65     66     82   5     0.00000     0.00000     1.25520  0.0
     80     65     66     67   5     0.00000     0.00000     1.25520  0.0
     80     65     66     81   5     0.00000     0.00000     1.25520  0.0
     80     65     66     82   5     0.00000     0.00000     1.25520  0.0
     65     66     67     68   5     5.25092    -2.58990     2.28446  0.0
     65     66     67     83   5     0.00000     0.00000     1.25520  0.0
     65     66     67     84   5     0.00000     0.00000     1.25520  0.0
     81     66     67     68   5     0.00000     0.00000     1.95811  0.0
     81     66     67     83   5     0.00000     0.00000     1.25520  0.0
     81     66     67     84   5     0.00000     0.00000     1.25520  0.0
     82     66     67     68   5     0.00000     0.00000     1.95811  0.0
     82     66     67     83   5     0.00000     0.00000     1.25520  0.0
     82     66     67     84   5     0.00000     0.00000     1.25520  0.0
     66     67     68     69   5     0.52300    -0.09205     2.34722  0.0
     83     67     68     69   5     0.00000     0.00000     3.10034  0.0
     84     67     68     69   5     0.00000     0.00000     3.10034  0.0
     67     68     69     70   5    -5.93291    -9.87424     7.66927  0.0
     67     68     69     71   5     0.52300    -0.09205     2.34722  0.0
     67     68     69     85   5     0.00000     0.00000     3.10034  0.0
     68     69     70     86   5    -4.18400    -6.18814     1.43511  0.0
     71     69     70     86   5    -0.97069    -0.79078     1.77820  0.0
     85     69     70     86   5     0.00000     0.00000     1.62758  0.0
     68     69     71     72   5     9.36379    -9.73617    -2.85767  0.0
     68     69     71     87   5     0.00000     0.00000     1.95811  0.0
     68     69     71     88   5     0.00000     0.00000     1.95811  0.0
     70     69     71     72   5    30.90721   -15.30926     0.00000  0.0
     70     69     71     87   5     0.00000     0.00000     1.95811  0.0
     70     69     71     88   5     0.00000     0.00000     1.95811  0.0
     85     69     71     72   5     0.00000     0.00000     1.95811  0.0
     85     69     71     87   5     0.00000     0.00000     1.25520  0.0
     85     69     71     88   5     0.00000     0.00000     1.25520  0.0
     69     71     72     89   5     0.52300    -0.09205     2.34722  0.0
     87     71     72     89   5     0.00000     0.00000     3.10034  0.0
     88     71     72     89   5     0.00000     0.00000     3.10034  0.0
     71     72     89     90   5     0.52300    -0.09205     2.34722  0.0
     71     72     89    102   5     0.00000     0.00000     3.10034  0.0
     71     72     89    103   5     0.00000     0.00000     3.10034  0.0
     72     89     90     91   5    30.90721   -15.30926     0.00000  0.0
     72     89     90     92   5     5.25092    -2.58990     2.28446  0.0
     72     89     90    104   5     0.00000     0.00000     1.95811  0.0
    102     89     90     91   5     0.00000     0.00000     1.95811  0.0
    102     89     90     92   5     0.00000     0.00000     1.25520  0.0
    102     89     90    104   5     0.00000     0.00000     1.25520  0.0
    103     89     90     91   5     0.00000     0.00000     1.95811  0.0
    103     89     90     92   5     0.00000     0.00000     1.25520  0.0
    103     89     90    104   5     0.00000     0.00000     1.25520  0.0
     89     90     91    105   5    -0.97069    -0.79078     1.77820  0.0
     92     90     91    105   5    -0.97069    -0.79078     1.77820  0.0
    104     90     91    105   5     0.00000     0.00000     1.62758  0.0
     89     90     92     93   5     5.25092    -2.58990     2.28446  0.0
     89     90     92    106   5     0.00000     0.00000     1.25520  0.0
     89     90     92    107   5     0.00000     0.00000     1.25520  0.0
     91     90     92     93   5    30.90721   -15.30926     0.00000  0.0
     91     90     92    106   5     0.00000     0.00000     1.95811  0.0
     91     90     92    107   5     0.00000     0.00000     1.95811  0.0
    104     90     92     93   5     0.00000     0.00000     1.95811  0.0
    104     90     92    106   5     0.00000     0.00000     1.25520  0.0
    104     90     92    107   5     0.00000     0.00000     1.25520  0.0
     90     92     93     94   5     0.52300    -0.09205     2.34722  0.0
    106     92     93     94   5     0.00000     0.00000     3.10034  0.0
    107     92     93     94   5     0.00000     0.00000     3.10034  0.0
     92     93     94     95   5     0.52300    -0.09205     2.34722  0.0
     92     93     94    108   5     0.00000     0.00000     3.10034  0.0
     92     93     94    109   5     0.00000     0.00000     3.10034  0.0
     93     94     95     96   5     5.25092    -2.58990     2.28446  0.0
     93     94     95    110   5     0.00000     0.00000     1.95811  0.0
     93     94     95    111   5     0.00000     0.00000     1.95811  0.0
    108     94     95     96   5     0.00000     0.00000     1.25520  0.0
    108     94     95    110   5     0.00000     0.00000     1.25520  0.0
    108     94     95    111   5     0.00000     0.00000     1.25520  0.0
    109     94     95     96   5     0.00000     0.00000     1.25520  0.0
    109     94     95    110   5     0.00000     0.00000     1.25520  0.0
    109     94     95    111   5     0.00000     0.00000     1.25520  0.0
     94     95     96     97   5     5.25092    -2.58990     2.28446  0.0
     94     95     96    112   5     0.00000     0.00000     1.25520  0.0
     94     95     96    113   5     0.00000     0.00000     1.25520  0.0
    110     95     96     97   5     0.00000     0.00000     1.95811  0.0
    110     95     96    112   5     0.00000     0.00000     1.25520  0.0
    110     95     96    113   5     0.00000     0.00000     1.25520  0.0
    111     95     96     97   5     0.00000     0.00000     1.95811  0.0
    111     95     96    112   5     0.00000     0.00000     1.25520  0.0
    111     95     96    113   5     0.00000     0.00000     1.25520  0.0
     95     96     97     98   5     0.52300    -0.09205     2.34722  0.0
    112     96     97     98   5     0.00000     0.00000     3.10034  0.0
    113     96     97     98   5     0.00000     0.00000     3.10034  0.0
     96     97     98     99   5    -5.93291    -9.87424     7.66927  0.0
     96     97     98    100   5     0.52300    -0.09205     2.34722  0.0
     96     97     98    114   5     0.00000     0.00000     3.10034  0.0
     97     98     99    115   5    -4.18400    -6.18814     1.43511  0.0
    100     98     99    115   5    -0.97069    -0.79078     1.77820  0.0
    114     98     99    115   5     0.00000     0.00000     1.62758  0.0
     97     98    100    101   5     9.36379    -9.73617    -2.85767  0.0
     97     98    100    116   5     0.00000     0.00000     1.95811  0.0
     97     98    100    117   5     0.00000     0.00000     1.95811  0.0
     99     98    100    101   5    30.90721   -15.30926     0.00000  0.0
     99     98    100    116   5     0.00000     0.00000     1.95811  0.0
     99     98    100    117   5     0.00000     0.00000     1.95811  0.0
    114     98    100    101   5     0.00000     0.00000     1.95811  0.0
    114     98    100    116   5     0.00000     0.00000     1.25520  0.0
    114     98    100    117   5     0.00000     0.00000     1.25520  0.0
     98    100    101    118   5     0.52300    -0.09205     2.34722  0.0
    116    100    101    118   5     0.00000     0.00000     3.10034  0.0
    117    100    101    118   5     0.00000     0.00000     3.10034  0.0
    100    101    118    119   5     0.52300    -0.09205     2.34722  0.0
    100    101    118    131   5     0.00000     0.00000     3.10034  0.0
    100    101    118    132   5     0.00000     0.00000     3.10034  0.0
    101    118    119    120   5    30.90721   -15.30926     0.00000  0.0
    101    118    119    121   5     5.25092    -2.58990     2.28446  0.0
    101    118    119    133   5     0.00000     0.00000     1.95811  0.0
    131    118    119    120   5     0.00000     0.00000     1.95811  0.0
    131    118    119    121   5     0.00000     0.00000     1.25520  0.0
    131    118    119    133   5     0.00000     0.00000     1.25520  0.0
    132    118    119    120   5     0.00000     0.00000     1.95811  0.0
    132    118    119    121   5     0.00000     0.00000     1.25520  0.0
    132    118    119    133   5     0.00000     0.00000     1.25520  0.0
    118    119    120    134   5    -0.97069    -0.79078     1.77820  0.0
    121    119    120    134   5    -0.97069    -0.79078     1.77820  0.0
    133    119    120    134   5     0.00000     0.00000     1.62758  0.0
    118    119    121    122   5     5.25092    -2.58990     2.28446  0.0
    118    119    121    135   5     0.00000     0.00000     1.25520  0.0
    118    119    121    136   5     0.00000     0.00000     1.25520  0.0
    120    119    121    122   5    30.90721   -15.30926     0.00000  0.0
    120    119    121    135   5     0.00000     0.00000     1.95811  0.0
    120    119    121    136   5     0.00000     0.00000     1.95811  0.0
    133    119    121    122   5     0.00000     0.00000     1.95811  0.0
    133    119    121    135   5     0.00000     0.00000     1.25520  0.0
    133    119    121    136   5     0.00000     0.00000     1.25520  0.0
    119    121    122    123   5     0.52300    -0.09205     2.34722  0.0
    135    121    122    123   5     0.00000     0.00000     3.10034  0.0
    136    121    122    123   5     0.00000     0.00000     3.10034  0.0
    121    122    123    124   5     0.52300    -0.09205     2.34722  0.0
    121    122    123    137   5     0.00000     0.00000     3.10034  0.0
    121    122    123    138   5     0.00000     0.00000     3.10034  0.0
    122    123    124    125   5     5.25092    -2.58990     2.28446  0.0
    122    123    124    139   5     0.00000     0.00000     1.95811  0.0
    122    123    124    140   5     0.00000     0.00000     1.95811  0.0
    137    123    124    125   5     0.00000     0.00000     1.25520  0.0
    137    123    124    139   5     0.00000     0.00000     1.25520  0.0
    137    123    124    140   5     0.00000     0.00000     1.25520  0.0
    138    123    124    125   5     0.00000     0.00000     1.25520  0.0
    138    123    124    139   5     0.00000     0.00000     1.25520  0.0
    138    123    124    140   5     0.00000     0.00000     1.25520  0.0
    123    124    125    126   5     5.25092    -2.58990     2.28446  0.0
    123    124    125    141   5     0.00000     0.00000     1.25520  0.0
    123    124    125    142   5     0.00000     0.00000     1.25520  0.0
    139    124    125    126   5     0.00000     0.00000     1.95811  0.0
    139    124    125    141   5     0.00000     0.00000     1.25520  0.0
    139    124    125    142   5     0.00000     0.00000     1.25520  0.0
    140    124    125    126   5     0.00000     0.00000     1.95811  0.0
    140    124    125    141   5     0.00000     0.00000     1.25520  0.0
    140    124    125    142   5     0.00000     0.00000     1.25520  0.0
    124    125    126    127   5     0.52300    -0.09205     2.34722  0.0
    141    125    126    127   5     0.00000     0.00000     3.10034  0.0
    142    125    126    127   5     0.00000     0.00000     3.10034  0.0
    125    126    127    128   5    -5.93291    -9.87424     7.66927  0.0
    125    126    127    129   5     0.52300    -0.09205     2.34722  0.0
    125    126    127    143   5     0.00000     0.00000     3.10034  0.0
    126    127    128    144   5    -4.18400    -6.18814     1.43511  0.0
    129    127    128    144   5    -0.97069    -0.79078     1.77820  0.0
    143    127    128    144   5     0.00000     0.00000     1.62758  0.0
    126    127    129    130   5     9.36379    -9.73617    -2.85767  0.0
    126    127    129    145   5     0.00000     0.00000     1.95811  0.0
    126    127    129    146   5     0.00000     0.00000     1.95811  0.0
    128    127    129    130   5    30.90721   -15.30926     0.00000  0.0
    128    127    129    145   5     0.00000     0.00000     1.95811  0.0
    128    127    129    146   5     0.00000     0.00000     1.95811  0.0
    143    127    129    130   5     0.00000     0.00000     1.95811  0.0
    143    127    129    145   5     0.00000     0.00000     1.25520  0.0
    143    127    129    146   5     0.00000     0.00000     1.25520  0.0
    127    129    130    147   5     0.52300    -0.09205     2.34722  0.0
    145    129    130    147   5     0.00000     0.00000     3.10034  0.0
    146    129    130    147   5     0.00000     0.00000     3.10034  0.0
    129    130    147    148   5     0.52300    -0.09205     2.34722  0.0
    129    130    147    160   5     0.00000     0.00000     3.10034  0.0
    129    130    147    161   5     0.00000     0.00000     3.10034  0.0
    130    147    148    149   5    30.90721   -15.30926     0.00000  0.0
    130    147    148    150   5     5.25092    -2.58990     2.28446  0.0
    130    147    148    162   5     0.00000     0.00000     1.95811  0.0
    160    147    148    149   5     0.00000     0.00000     1.95811  0.0
    160    147    148    150   5     0.00000     0.00000     1.25520  0.0
    160    147    148    162   5     0.00000     0.00000     1.25520  0.0
    161    147    148    149   5     0.00000     0.00000     1.95811  0.0
    161    147    148    150   5     0.00000     0.00000     1.25520  0.0
    161    147    148    162   5     0.00000     0.00000     1.25520  0.0
    147    148    149    163   5    -0.97069    -0.79078     1.77820  0.0
    150    148    149    163   5    -0.97069    -0.79078     1.77820  0.0
    162    148    149    163   5     0.00000     0.00000     1.62758  0.0
    147    148    150    151   5     5.25092    -2.58990     2.28446  0.0
    147    148    150    164   5     0.00000     0.00000     1.25520  0.0
    147    148    150    165   5     0.00000     0.00000     1.25520  0.0
    149    148    150    151   5    30.90721   -15.30926     0.00000  0.0
    149    148    150    164   5     0.00000     0.00000     1.95811  0.0
    149    148    150    165   5     0.00000     0.00000     1.95811  0.0
    162    148    150    151   5     0.00000     0.00000     1.95811  0.0
    162    148    150    164   5     0.00000     0.00000     1.25520  0.0
    162    148    150    165   5     0.00000     0.00000     1.25520  0.0
    148    150    151    152   5     0.52300    -0.09205     2.34722  0.0
    164    150    151    152   5     0.00000     0.00000     3.10034  0.0
    165    150    151    152   5     0.00000     0.00000     3.10034  0.0
    150    151    152    153   5     0.52300    -0.09205     2.34722  0.0
    150    151    152    166   5     0.00000     0.00000     3.10034  0.0
    150    151    152    167   5     0.00000     0.00000     3.10034  0.0
    151    152    153    154   5     5.25092    -2.58990     2.28446  0.0
    151    152    153    168   5     0.00000     0.00000     1.95811  0.0
    151    152    153    169   5     0.00000     0.00000     1.95811  0.0
    166    152    153    154   5     0.00000     0.00000     1.25520  0.0
    166    152    153    168   5     0.00000     0.00000     1.25520  0.0
    166    152    153    169   5     0.00000     0.00000     1.25520  0.0
    167    152    153    154   5     0.00000     0.00000     1.25520  0.0
    167    152    153    168   5     0.00000     0.00000     1.25520  0.0
    167    152    153    169   5     0.00000     0.00000     1.25520  0.0
    152    153    154    155   5     5.25092    -2.58990     2.28446  0.0
    152    153    154    170   5     0.00000     0.00000     1.25520  0.0
    152    153    154    171   5     0.00000     0.00000     1.25520  0.0
    168    153    154    155   5     0.00000     0.00000     1.95811  0.0
    168    153    154    170   5     0.00000     0.00000     1.25520  0.0
    168    153    154    171   5     0.00000     0.00000     1.25520  0.0
    169    153    154    155   5     0.00000     0.00000     1.95811  0.0
    169    153    154    170   5     0.00000     0.00000     1.25520  0.0
    169    153    154    171   5     0.00000     0.00000     1.25520  0.0
    153    154    155    156   5     0.52300    -0.09205     2.34722  0.0
    170    154    155    156   5     0.00000     0.00000     3.10034  0.0
    171    154    155    156   5     0.00000     0.00000     3.10034  0.0
    154    155    156    157   5    -5.93291    -9.87424     7.66927  0.0
    154    155    156    158   5     0.52300    -0.09205     2.34722  0.0
    154    155    156    172   5     0.00000     0.00000     3.10034  0.0
    155    156    157    173   5    -4.18400    -6.18814     1.43511  0.0
    158    156    157    173   5    -0.97069    -0.79078     1.77820  0.0
    172    156    157    173   5     0.00000     0.00000     1.62758  0.0
    155    156    158    159   5     9.36379    -9.73617    -2.85767  0.0
    155    156    158    174   5     0.00000     0.00000     1.95811  0.0
    155    156    158    175   5     0.00000     0.00000     1.95811  0.0
    157    156    158    159   5    30.90721   -15.30926     0.00000  0.0
    157    156    158    174   5     0.00000     0.00000     1.95811  0.0
    157    156    158    175   5     0.00000     0.00000     1.95811  0.0
    172    156    158    159   5     0.00000     0.00000     1.95811  0.0
    172    156    158    174   5     0.00000     0.00000     1.25520  0.0
    172    156    158    175   5     0.00000     0.00000     1.25520  0.0
    156    158    159    176   5     0.52300    -0.09205     2.34722  0.0
    174    158    159    176   5     0.00000     0.00000     3.10034  0.0
    175    158    159    176   5     0.00000     0.00000     3.10034  0.0
    158    159    176    177   5     0.52300    -0.09205     2.34722  0.0
    158    159    176    189   5     0.00000     0.00000     3.10034  0.0
    158    159    176    190   5     0.00000     0.00000     3.10034  0.0
    159    176    177    178   5    30.90721   -15.30926     0.00000  0.0
    159    176    177    179   5     5.25092    -2.58990     2.28446  0.0
    159    176    177    191   5     0.00000     0.00000     1.95811  0.0
    189    176    177    178   5     0.00000     0.00000     1.95811  0.0
    189    176    177    179   5     0.00000     0.00000     1.25520  0.0
    189    176    177    191   5     0.00000     0.00000     1.25520  0.0
    190    176    177    178   5     0.00000     0.00000     1.95811  0.0
    190    176    177    179   5     0.00000     0.00000     1.25520  0.0
    190    176    177    191   5     0.00000     0.00000     1.25520  0.0
    176    177    178    192   5    -0.97069    -0.79078     1.77820  0.0
    179    177    178    192   5    -0.97069    -0.79078     1.77820  0.0
    191    177    178    192   5     0.00000     0.00000     1.62758  0.0
    176    177    179    180   5     5.25092    -2.58990     2.28446  0.0
    176    177    179    193   5     0.00000     0.00000     1.25520  0.0
    176    177    179    194   5     0.00000     0.00000     1.25520  0.0
    178    177    179    180   5    30.90721   -15.30926     0.00000  0.0
    178    177    179    193   5     0.00000     0.00000     1.95811  0.0
    178    177    179    194   5     0.00000     0.00000     1.95811  0.0
    191    177    179    180   5     0.00000     0.00000     1.95811  0.0
    191    177    179    193   5     0.00000     0.00000     1.25520  0.0
    191    177    179    194   5     0.00000     0.00000     1.25520  0.0
    177    179    180    181   5     0.52300    -0.09205     2.34722  0.0
    193    179    180    181   5     0.00000     0.00000     3.10034  0.0
    194    179    180    181   5     0.00000     0.00000     3.10034  0.0
    179    180    181    182   5     0.52300    -0.09205     2.34722  0.0
    179    180    181    195   5     0.00000     0.00000     3.10034  0.0
    179    180    181    196   5     0.00000     0.00000     3.10034  0.0
    180    181    182    183   5     5.25092    -2.58990     2.28446  0.0
    180    181    182    197   5     0.00000     0.00000     1.95811  0.0
    180    181    182    198   5     0.00000     0.00000     1.95811  0.0
    195    181    182    183   5     0.00000     0.00000     1.25520  0.0
    195    181    182    197   5     0.00000     0.00000     1.25520  0.0
    195    181    182    198   5     0.00000     0.00000     1.25520  0.0
    196    181    182    183   5     0.00000     0.00000     1.25520  0.0
    196    181    182    197   5     0.00000     0.00000     1.25520  0.0
    196    181    182    198   5     0.00000     0.00000     1.25520  0.0
    181    182    183    184   5     5.25092    -2.58990     2.28446  0.0
    181    182    183    199   5     0.00000     0.00000     1.25520  0.0
    181    182    183    200   5     0.00000     0.00000     1.25520  0.0
    197    182    183    184   5     0.00000     0.00000     1.95811  0.0
    197    182    183    199   5     0.00000     0.00000     1.25520  0.0
    197    182    183    200   5     0.00000     0.00000     1.25520  0.0
    198    182    183    184   5     0.00000     0.00000     1.95811  0.0
    198    182    183    199   5     0.00000     0.00000     1.25520  0.0
    198    182    183    200   5     0.00000     0.00000     1.25520  0.0
    182    183    184    185   5     0.52300    -0.09205     2.34722  0.0
    199    183    184    185   5     0.00000     0.00000     3.10034  0.0
    200    183    184    185   5     0.00000     0.00000     3.10034  0.0
    183    184    185    186   5    -5.93291    -9.87424     7.66927  0.0
    183    184    185    187   5     0.52300    -0.09205     2.34722  0.0
    183    184    185    201   5     0.00000     0.00000     3.10034  0.0
    184    185    186    202   5    -4.18400    -6.18814     1.43511  0.0
    187    185    186    202   5    -0.97069    -0.79078     1.77820  0.0
    201    185    186    202   5     0.00000     0.00000     1.62758  0.0
    184    185    187    188   5     9.36379    -9.73617    -2.85767  0.0
    184    185    187    203   5     0.00000     0.00000     1.95811  0.0
    184    185    187    204   5     0.00000     0.00000     1.95811  0.0
    186    185    187    188   5    30.90721   -15.30926     0.00000  0.0
    186    185    187    203   5     0.00000     0.00000     1.95811  0.0
    186    185    187    204   5     0.00000     0.00000     1.95811  0.0
    201    185    187    188   5     0.00000     0.00000     1.95811  0.0
    201    185    187    203   5     0.00000     0.00000     1.25520  0.0
    201    185    187    204   5     0.00000     0.00000     1.25520  0.0
    185    187    188    205   5     0.52300    -0.09205     2.34722  0.0
    203    187    188    205   5     0.00000     0.00000     3.10034  0.0
    204    187    188    205   5     0.00000     0.00000     3.10034  0.0
    187    188    205    206   5     0.52300    -0.09205     2.34722  0.0
    187    188    205    218   5     0.00000     0.00000     3.10034  0.0
    187    188    205    219   5     0.00000     0.00000     3.10034  0.0
    188    205    206    207   5    30.90721   -15.30926     0.00000  0.0
    188    205    206    208   5     5.25092    -2.58990     2.28446  0.0
    188    205    206    220   5     0.00000     0.00000     1.95811  0.0
    218    205    206    207   5     0.00000     0.00000     1.95811  0.0
    218    205    206    208   5     0.00000     0.00000     1.25520  0.0
    218    205    206    220   5     0.00000     0.00000     1.25520  0.0
    219    205    206    207   5     0.00000     0.00000     1.95811  0.0
    219    205    206    208   5     0.00000     0.00000     1.25520  0.0
    219    205    206    220   5     0.00000     0.00000     1.25520  0.0
    205    206    207    221   5    -0.97069    -0.79078     1.77820  0.0
    208    206    207    221   5    -0.97069    -0.79078     1.77820  0.0
    220    206    207    221   5     0.00000     0.00000     1.62758  0.0
    205    206    208    209   5     5.25092    -2.58990     2.28446  0.0
    205    206    208    222   5     0.00000     0.00000     1.25520  0.0
    205    206    208    223   5     0.00000     0.00000     1.25520  0.0
    207    206    208    209   5    30.90721   -15.30926     0.00000  0.0
    207    206    208    222   5     0.00000     0.00000     1.95811  0.0
    207    206    208    223   5     0.00000     0.00000     1.95811  0.0
    220    206    208    209   5     0.00000     0.00000     1.95811  0.0
    220    206    208    222   5     0.00000     0.00000     1.25520  0.0
    220    206    208    223   5     0.00000     0.00000     1.25520  0.0
    206    208    209    210   5     0.52300    -0.09205     2.34722  0.0
    222    208    209    210   5     0.00000     0.00000     3.10034  0.0
    223    208    209    210   5     0.00000     0.00000     3.10034  0.0
    208    209    210    211   5     0.52300    -0.09205     2.34722  0.0
    208    209    210    224   5     0.00000     0.00000     3.10034  0.0
    208    209    210    225   5     0.00000     0.00000     3.10034  0.0
    209    210    211    212   5     5.25092    -2.58990     2.28446  0.0
    209    210    211    226   5     0.00000     0.00000     1.95811  0.0
    209    210    211    227   5     0.00000     0.00000     1.95811  0.0
    224    210    211    212   5     0.00000     0.00000     1.25520  0.0
    224    210    211    226   5     0.00000     0.00000     1.25520  0.0
    224    210    211    227   5     0.00000     0.00000     1.25520  0.0
    225    210    211    212   5     0.00000     0.00000     1.25520  0.0
    225    210    211    226   5     0.00000     0.00000     1.25520  0.0
    225    210    211    227   5     0.00000     0.00000     1.25520  0.0
    210    211    212    213   5     5.25092    -2.58990     2.28446  0.0
    210    211    212    228   5     0.00000     0.00000     1.25520  0.0
    210    211    212    229   5     0.00000     0.00000     1.25520  0.0
    226    211    212    213   5     0.00000     0.00000     1.95811  0.0
    226    211    212    228   5     0.00000     0.00000     1.25520  0.0
    226    211    212    229   5     0.00000     0.00000     1.25520  0.0
    227    211    212    213   5     0.00000     0.00000     1.95811  0.0
    227    211    212    228   5     0.00000     0.00000     1.25520  0.0
    227    211    212    229   5     0.00000     0.00000     1.25520  0.0
    211    212    213    214   5     0.52300    -0.09205     2.34722  0.0
    228    212    213    214   5     0.00000     0.00000     3.10034  0.0
    229    212    213    214   5     0.00000     0.00000     3.10034  0.0
    212    213    214    215   5    -5.93291    -9.87424     7.66927  0.0
    212    213    214    216   5     0.52300    -0.09205     2.34722  0.0
    212    213    214    230   5     0.00000     0.00000     3.10034  0.0
    213    214    215    231   5    -4.18400    -6.18814     1.43511  0.0
    216    214    215    231   5    -0.97069    -0.79078     1.77820  0.0
    230    214    215    231   5     0.00000     0.00000     1.62758  0.0
    213    214    216    217   5     9.36379    -9.73617    -2.85767  0.0
    213    214    216    232   5     0.00000     0.00000     1.95811  0.0
    213    214    216    233   5     0.00000     0.00000     1.95811  0.0
    215    214    216    217   5    30.90721   -15.30926     0.00000  0.0
    215    214    216    232   5     0.00000     0.00000     1.95811  0.0
    215    214    216    233   5     0.00000     0.00000     1.95811  0.0
    230    214    216    217   5     0.00000     0.00000     1.95811  0.0
    230    214    216    232   5     0.00000     0.00000     1.25520  0.0
    230    214    216    233   5     0.00000     0.00000     1.25520  0.0
    214    216    217    234   5     0.52300    -0.09205     2.34722  0.0
    232    216    217    234   5     0.00000     0.00000     3.10034  0.0
    233    216    217    234   5     0.00000     0.00000     3.10034  0.0
    216    217    234    235   5     0.52300    -0.09205     2.34722  0.0
    216    217    234    247   5     0.00000     0.00000     3.10034  0.0
    216    217    234    248   5     0.00000     0.00000     3.10034  0.0
    217    234    235    236   5    30.90721   -15.30926     0.00000  0.0
    217    234    235    237   5     5.25092    -2.58990     2.28446  0.0
    217    234    235    249   5     0.00000     0.00000     1.95811  0.0
    247    234    235    236   5     0.00000     0.00000     1.95811  0.0
    247    234    235    237   5     0.00000     0.00000     1.25520  0.0
    247    234    235    249   5     0.00000     0.00000     1.25520  0.0
    248    234    235    236   5     0.00000     0.00000     1.95811  0.0
    248    234    235    237   5     0.00000     0.00000     1.25520  0.0
    248    234    235    249   5     0.00000     0.00000     1.25520  0.0
    234    235    236    250   5    -0.97069    -0.79078     1.77820  0.0
    237    235    236    250   5    -0.97069    -0.79078     1.77820  0.0
    249    235    236    250   5     0.00000     0.00000     1.62758  0.0
    234    235    237    238   5     5.25092    -2.58990     2.28446  0.0
    234    235    237    251   5     0.00000     0.00000     1.25520  0.0
    234    235    237    252   5     0.00000     0.00000     1.25520  0.0
    236    235    237    238   5    30.90721   -15.30926     0.00000  0.0
    236    235    237    251   5     0.00000     0.00000     1.95811  0.0
    236    235    237    252   5     0.00000     0.00000     1.95811  0.0
    249    235    237    238   5     0.00000     0.00000     1.95811  0.0
    249    235    237    251   5     0.00000     0.00000     1.25520  0.0
    249    235    237    252   5     0.00000     0.00000     1.25520  0.0
    235    237    238    239   5     0.52300    -0.09205     2.34722  0.0
    251    237    238    239   5     0.00000     0.00000     3.10034  0.0
    252    237    238    239   5     0.00000     0.00000     3.10034  0.0
    237    238    239    240   5     0.52300    -0.09205     2.34722  0.0
    237    238    239    253   5     0.00000     0.00000     3.10034  0.0
    237    238    239    254   5     0.00000     0.00000     3.10034  0.0
    238    239    240    241   5     5.25092    -2.58990     2.28446  0.0
    238    239    240    255   5     0.00000     0.00000     1.95811  0.0
    238    239    240    256   5     0.00000     0.00000     1.95811  0.0
    253    239    240    241   5     0.00000     0.00000     1.25520  0.0
    253    239    240    255   5     0.00000     0.00000     1.25520  0.0
    253    239    240    256   5     0.00000     0.00000     1.25520  0.0
    254    239    240    241   5     0.00000     0.00000     1.25520  0.0
    254    239    240    255   5     0.00000     0.00000     1.25520  0.0
    254    239    240    256   5     0.00000     0.00000     1.25520  0.0
    239    240    241    242   5     5.25092    -2.58990     2.28446  0.0
    239    240    241    257   5     0.00000     0.00000     1.25520  0.0
    239    240    241    258   5     0.00000     0.00000     1.25520  0.0
    255    240    241    242   5     0.00000     0.00000     1.95811  0.0
    255    240    241    257   5     0.00000     0.00000     1.25520  0.0
    255    240    241    258   5     0.00000     0.00000     1.25520  0.0
    256    240    241    242   5     0.00000     0.00000     1.95811  0.0
    256    240    241    257   5     0.00000     0.00000     1.25520  0.0
    256    240    241    258   5     0.00000     0.00000     1.25520  0.0
    240    241    242    243   5     0.52300    -0.09205     2.34722  0.0
    257    241    242    243   5     0.00000     0.00000     3.10034  0.0
    258    241    242    243   5     0.00000     0.00000     3.10034  0.0
    241    242    243    244   5    -5.93291    -9.87424     7.66927  0.0
    241    242    243    245   5     0.52300    -0.09205     2.34722  0.0
    241    242    243    259   5     0.00000     0.00000     3.10034  0.0
    242    243    244    260   5    -4.18400    -6.18814     1.43511  0.0
    245    243    244    260   5    -0.97069    -0.79078     1.77820  0.0
    259    243    244    260   5     0.00000     0.00000     1.62758  0.0
    242    243    245    246   5     9.36379    -9.73617    -2.85767  0.0
    242    243    245    261   5     0.00000     0.00000     1.95811  0.0
    242    243    245    262   5     0.00000     0.00000     1.95811  0.0
    244    243    245    246   5    30.90721   -15.30926     0.00000  0.0
    244    243    245    261   5     0.00000     0.00000     1.95811  0.0
    244    243    245    262   5     0.00000     0.00000     1.95811  0.0
    259    243    245    246   5     0.00000     0.00000     1.95811  0.0
    259    243    245    261   5     0.00000     0.00000     1.25520  0.0
    259    243    245    262   5     0.00000     0.00000     1.25520  0.0
    243    245    246    263   5     0.52300    -0.09205     2.34722  0.0
    261    245    246    263   5     0.00000     0.00000     3.10034  0.0
    262    245    246    263   5     0.00000     0.00000     3.10034  0.0
    245    246    263    264   5     0.52300    -0.09205     2.34722  0.0
    245    246    263    276   5     0.00000     0.00000     3.10034  0.0
    245    246    263    277   5     0.00000     0.00000     3.10034  0.0
    246    263    264    265   5    30.90721   -15.30926     0.00000  0.0
    246    263    264    266   5     5.25092    -2.58990     2.28446  0.0
    246    263    264    278   5     0.00000     0.00000     1.95811  0.0
    276    263    264    265   5     0.00000     0.00000     1.95811  0.0
    276    263    264    266   5     0.00000     0.00000     1.25520  0.0
    276    263    264    278   5     0.00000     0.00000     1.25520  0.0
    277    263    264    265   5     0.00000     0.00000     1.95811  0.0
    277    263    264    266   5     0.00000     0.00000     1.25520  0.0
    277    263    264    278   5     0.00000     0.00000     1.25520  0.0
    263    264    265    279   5    -0.97069    -0.79078     1.77820  0.0
    266    264    265    279   5    -0.97069    -0.79078     1.77820  0.0
    278    264    265    279   5     0.00000     0.00000     1.62758  0.0
    263    264    266    267   5     5.25092    -2.58990     2.28446  0.0
    263    264    266    280   5     0.00000     0.00000     1.25520  0.0
    263    264    266    281   5     0.00000     0.00000     1.25520  0.0
    265    264    266    267   5    30.90721   -15.30926     0.00000  0.0
    265    264    266    280   5     0.00000     0.00000     1.95811  0.0
    265    264    266    281   5     0.00000     0.00000     1.95811  0.0
    278    264    266    267   5     0.00000     0.00000     1.95811  0.0
    278    264    266    280   5     0.00000     0.00000     1.25520  0.0
    278    264    266    281   5     0.00000     0.00000     1.25520  0.0
    264    266    267    268   5     0.52300    -0.09205     2.34722  0.0
    280    266    267    268   5     0.00000     0.00000     3.10034  0.0
    281    266    267    268   5     0.00000     0.00000     3.10034  0.0
    266    267    268    269   5     0.52300    -0.09205     2.34722  0.0
    266    267    268    282   5     0.00000     0.00000     3.10034  0.0
    266    267    268    283   5     0.00000     0.00000     3.10034  0.0
    267    268    269    270   5     5.25092    -2.58990     2.28446  0.0
    267    268    269    284   5     0.00000     0.00000     1.95811  0.0
    267    268    269    285   5     0.00000     0.00000     1.95811  0.0
    282    268    269    270   5     0.00000     0.00000     1.25520  0.0
    282    268    269    284   5     0.00000     0.00000     1.25520  0.0
    282    268    269    285   5     0.00000     0.00000     1.25520  0.0
    283    268    269    270   5     0.00000     0.00000     1.25520  0.0
    283    268    269    284   5     0.00000     0.00000     1.25520  0.0
    283    268    269    285   5     0.00000     0.00000     1.25520  0.0
    268    269    270    271   5     5.25092    -2.58990     2.28446  0.0
    268    269    270    286   5     0.00000     0.00000     1.25520  0.0
    268    269    270    287   5     0.00000     0.00000     1.25520  0.0
    284    269    270    271   5     0.00000     0.00000     1.95811  0.0
    284    269    270    286   5     0.00000     0.00000     1.25520  0.0
    284    269    270    287   5     0.00000     0.00000     1.25520  0.0
    285    269    270    271   5     0.00000     0.00000     1.95811  0.0
    285    269    270    286   5     0.00000     0.00000     1.25520  0.0
    285    269    270    287   5     0.00000     0.00000     1.25520  0.0
    269    270    271    272   5     0.52300    -0.09205     2.34722  0.0
    286    270    271    272   5     0.00000     0.00000     3.10034  0.0
    287    270    271    272   5     0.00000     0.00000     3.10034  0.0
    270    271    272    273   5    -5.93291    -9.87424     7.66927  0.0
    270    271    272    274   5     0.52300    -0.09205     2.34722  0.0
    270    271    272    288   5     0.00000     0.00000     3.10034  0.0
    271    272    273    289   5    -4.18400    -6.18814     1.43511  0.0
    274    272    273    289   5    -0.97069    -0.79078     1.77820  0.0
    288    272    273    289   5     0.00000     0.00000     1.62758  0.0
    271    272    274    275   5     9.36379    -9.73617    -2.85767  0.0
    271    272    274    290   5     0.00000     0.00000     1.95811  0.0
    271    272    274    291   5     0.00000     0.00000     1.95811  0.0
    273    272    274    275   5    30.90721   -15.30926     0.00000  0.0
    273    272    274    290   5     0.00000     0.00000     1.95811  0.0
    273    272    274    291   5     0.00000     0.00000     1.95811  0.0
    288    272    274    275   5     0.00000     0.00000     1.95811  0.0
    288    272    274    290   5     0.00000     0.00000     1.25520  0.0
    288    272    274    291   5     0.00000     0.00000     1.25520  0.0
    272    274    275    292   5     0.52300    -0.09205     2.34722  0.0
    290    274    275    292   5     0.00000     0.00000     3.10034  0.0
    291    274    275    292   5     0.00000     0.00000     3.10034  0.0
    274    275    292    293   5     0.52300    -0.09205     2.34722  0.0
    274    275    292    305   5     0.00000     0.00000     3.10034  0.0
    274    275    292    306   5     0.00000     0.00000     3.10034  0.0
    275    292    293    294   5    30.90721   -15.30926     0.00000  0.0
    275    292    293    295   5     5.25092    -2.58990     2.28446  0.0
    275    292    293    307   5     0.00000     0.00000     1.95811  0.0
    305    292    293    294   5     0.00000     0.00000     1.95811  0.0
    305    292    293    295   5     0.00000     0.00000     1.25520  0.0
    305    292    293    307   5     0.00000     0.00000     1.25520  0.0
    306    292    293    294   5     0.00000     0.00000     1.95811  0.0
    306    292    293    295   5     0.00000     0.00000     1.25520  0.0
    306    292    293    307   5     0.00000     0.00000     1.25520  0.0
    292    293    294    308   5    -0.97069    -0.79078     1.77820  0.0
    295    293    294    308   5    -0.97069    -0.79078     1.77820  0.0
    307    293    294    308   5     0.00000     0.00000     1.62758  0.0
    292    293    295    296   5     5.25092    -2.58990     2.28446  0.0
    292    293    295    309   5     0.00000     0.00000     1.25520  0.0
    292    293    295    310   5     0.00000     0.00000     1.25520  0.0
    294    293    295    296   5    30.90721   -15.30926     0.00000  0.0
    294    293    295    309   5     0.00000     0.00000     1.95811  0.0
    294    293    295    310   5     0.00000     0.00000     1.95811  0.0
    307    293    295    296   5     0.00000     0.00000     1.95811  0.0
    307    293    295    309   5     0.00000     0.00000     1.25520  0.0
    307    293    295    310   5     0.00000     0.00000     1.25520  0.0
    293    295    296    297   5     0.52300    -0.09205     2.34722  0.0
    309    295    296    297   5     0.00000     0.00000     3.10034  0.0
    310    295    296    297   5     0.00000     0.00000     3.10034  0.0
    295    296    297    298   5     0.52300    -0.09205     2.34722  0.0
    295    296    297    311   5     0.00000     0.00000     3.10034  0.0
    295    296    297    312   5     0.00000     0.00000     3.10034  0.0
    296    297    298    299   5     5.25092    -2.58990     2.28446  0.0
    296    297    298    313   5     0.00000     0.00000     1.95811  0.0
    296    297    298    314   5     0.00000     0.00000     1.95811  0.0
    311    297    298    299   5     0.00000     0.00000     1.25520  0.0
    311    297    298    313   5     0.00000     0.00000     1.25520  0.0
    311    297    298    314   5     0.00000     0.00000     1.25520  0.0
    312    297    298    299   5     0.00000     0.00000     1.25520  0.0
    312    297    298    313   5     0.00000     0.00000     1.25520  0.0
    312    297    298    314   5     0.00000     0.00000     1.25520  0.0
    297    298    299    300   5     5.25092    -2.58990     2.28446  0.0
    297    298    299    315   5     0.00000     0.00000     1.25520  0.0
    297    298    299    316   5     0.00000     0.00000     1.25520  0.0
    313    298    299    300   5     0.00000     0.00000     1.95811  0.0
    313    298    299    315   5     0.00000     0.00000     1.25520  0.0
    313    298    299    316   5     0.00000     0.00000     1.25520  0.0
    314    298    299    300   5     0.00000     0.00000     1.95811  0.0
    314    298    299    315   5     0.00000     0.00000     1.25520  0.0
    314    298    299    316   5     0.00000     0.00000     1.25520  0.0
    298    299    300    301   5     0.52300    -0.09205     2.34722  0.0
    315    299    300    301   5     0.00000     0.00000     3.10034  0.0
    316    299    300    301   5     0.00000     0.00000     3.10034  0.0
    299    300    301    302   5    -5.93291    -9.87424     7.66927  0.0
    299    300    301    303   5     0.52300    -0.09205     2.34722  0.0
    299    300    301    317   5     0.00000     0.00000     3.10034  0.0
    300    301    302    318   5    -4.18400    -6.18814     1.43511  0.0
    303    301    302    318   5    -0.97069    -0.79078     1.77820  0.0
    317    301    302    318   5     0.00000     0.00000     1.62758  0.0
    300    301    303    304   5     9.36379    -9.73617    -2.85767  0.0
    300    301    303    319   5     0.00000     0.00000     1.95811  0.0
    300    301    303    320   5     0.00000     0.00000     1.95811  0.0
    302    301    303    304   5    30.90721   -15.30926     0.00000  0.0
    302    301    303    319   5     0.00000     0.00000     1.95811  0.0
    302    301    303    320   5     0.00000     0.00000     1.95811  0.0
    317    301    303    304   5     0.00000     0.00000     1.95811  0.0
    317    301    303    319   5     0.00000     0.00000     1.25520  0.0
    317    301    303    320   5     0.00000     0.00000     1.25520  0.0
    301    303    304    321   5     0.52300    -0.09205     2.34722  0.0
    319    303    304    321   5     0.00000     0.00000     3.10034  0.0
    320    303    304    321   5     0.00000     0.00000     3.10034  0.0
    303    304    321    322   5     0.52300    -0.09205     2.34722  0.0
    303    304    321    334   5     0.00000     0.00000     3.10034  0.0
    303    304    321    335   5     0.00000     0.00000     3.10034  0.0
    304    321    322    323   5    30.90721   -15.30926     0.00000  0.0
    304    321    322    324   5     5.25092    -2.58990     2.28446  0.0
    304    321    322    336   5     0.00000     0.00000     1.95811  0.0
    334    321    322    323   5     0.00000     0.00000     1.95811  0.0
    334    321    322    324   5     0.00000     0.00000     1.25520  0.0
    334    321    322    336   5     0.00000     0.00000     1.25520  0.0
    335    321    322    323   5     0.00000     0.00000     1.95811  0.0
    335    321    322    324   5     0.00000     0.00000     1.25520  0.0
    335    321    322    336   5     0.00000     0.00000     1.25520  0.0
    321    322    323    337   5    -0.97069    -0.79078     1.77820  0.0
    324    322    323    337   5    -0.97069    -0.79078     1.77820  0.0
    336    322    323    337   5     0.00000     0.00000     1.62758  0.0
    321    322    324    325   5     5.25092    -2.58990     2.28446  0.0
    321    322    324    338   5     0.00000     0.00000     1.25520  0.0
    321    322    324    339   5     0.00000     0.00000     1.25520  0.0
    323    322    324    325   5    30.90721   -15.30926     0.00000  0.0
    323    322    324    338   5     0.00000     0.00000     1.95811  0.0
    323    322    324    339   5     0.00000     0.00000     1.95811  0.0
    336    322    324    325   5     0.00000     0.00000     1.95811  0.0
    336    322    324    338   5     0.00000     0.00000     1.25520  0.0
    336    322    324    339   5     0.00000     0.00000     1.25520  0.0
    322    324    325    326   5     0.52300    -0.09205     2.34722  0.0
    338    324    325    326   5     0.00000     0.00000     3.10034  0.0
    339    324    325    326   5     0.00000     0.00000     3.10034  0.0
    324    325    326    327   5     0.52300    -0.09205     2.34722  0.0
    324    325    326    340   5     0.00000     0.00000     3.10034  0.0
    324    325    326    341   5     0.00000     0.00000     3.10034  0.0
    325    326    327    328   5     5.25092    -2.58990     2.28446  0.0
    325    326    327    342   5     0.00000     0.00000     1.95811  0.0
    325    326    327    343   5     0.00000     0.00000     1.95811  0.0
    340    326    327    328   5     0.00000     0.00000     1.25520  0.0
    340    326    327    342   5     0.00000     0.00000     1.25520  0.0
    340    326    327    343   5     0.00000     0.00000     1.25520  0.0
    341    326    327    328   5     0.00000     0.00000     1.25520  0.0
    341    326    327    342   5     0.00000     0.00000     1.25520  0.0
    341    326    327    343   5     0.00000     0.00000     1.25520  0.0
    326    327    328    329   5     5.25092    -2.58990     2.28446  0.0
    326    327    328    344   5     0.00000     0.00000     1.25520  0.0
    326    327    328    345   5     0.00000     0.00000     1.25520  0.0
    342    327    328    329   5     0.00000     0.00000     1.95811  0.0
    342    327    328    344   5     0.00000     0.00000     1.25520  0.0
    342    327    328    345   5     0.00000     0.00000     1.25520  0.0
    343    327    328    329   5     0.00000     0.00000     1.95811  0.0
    343    327    328    344   5     0.00000     0.00000     1.25520  0.0
    343    327    328    345   5     0.00000     0.00000     1.25520  0.0
    327    328    329    330   5     0.52300    -0.09205     2.34722  0.0
    344    328    329    330   5     0.00000     0.00000     3.10034  0.0
    345    328    329    330   5     0.00000     0.00000     3.10034  0.0
    328    329    330    331   5    -5.93291    -9.87424     7.66927  0.0
    328    329    330    332   5     0.52300    -0.09205     2.34722  0.0
    328    329    330    346   5     0.00000     0.00000     3.10034  0.0
    329    330    331    347   5    -4.18400    -6.18814     1.43511  0.0
    332    330    331    347   5    -0.97069    -0.79078     1.77820  0.0
    346    330    331    347   5     0.00000     0.00000     1.62758  0.0
    329    330    332    333   5     9.36379    -9.73617    -2.85767  0.0
    329    330    332    348   5     0.00000     0.00000     1.95811  0.0
    329    330    332    349   5     0.00000     0.00000     1.95811  0.0
    331    330    332    333   5    30.90721   -15.30926     0.00000  0.0
    331    330    332    348   5     0.00000     0.00000     1.95811  0.0
    331    330    332    349   5     0.00000     0.00000     1.95811  0.0
    346    330    332    333   5     0.00000     0.00000     1.95811  0.0
    346    330    332    348   5     0.00000     0.00000     1.25520  0.0
    346    330    332    349   5     0.00000     0.00000     1.25520  0.0
    330    332    333    350   5     0.52300    -0.09205     2.34722  0.0
    348    332    333    350   5     0.00000     0.00000     3.10034  0.0
    349    332    333    350   5     0.00000     0.00000     3.10034  0.0
    332    333    350    351   5     0.52300    -0.09205     2.34722  0.0
    332    333    350    363   5     0.00000     0.00000     3.10034  0.0
    332    333    350    364   5     0.00000     0.00000     3.10034  0.0
    333    350    351    352   5    30.90721   -15.30926     0.00000  0.0
    333    350    351    353   5     5.25092    -2.58990     2.28446  0.0
    333    350    351    365   5     0.00000     0.00000     1.95811  0.0
    363    350    351    352   5     0.00000     0.00000     1.95811  0.0
    363    350    351    353   5     0.00000     0.00000     1.25520  0.0
    363    350    351    365   5     0.00000     0.00000     1.25520  0.0
    364    350    351    352   5     0.00000     0.00000     1.95811  0.0
    364    350    351    353   5     0.00000     0.00000     1.25520  0.0
    364    350    351    365   5     0.00000     0.00000     1.25520  0.0
    350    351    352    366   5    -0.97069    -0.79078     1.77820  0.0
    353    351    352    366   5    -0.97069    -0.79078     1.77820  0.0
    365    351    352    366   5     0.00000     0.00000     1.62758  0.0
    350    351    353    354   5     5.25092    -2.58990     2.28446  0.0
    350    351    353    367   5     0.00000     0.00000     1.25520  0.0
    350    351    353    368   5     0.00000     0.00000     1.25520  0.0
    352    351    353    354   5    30.90721   -15.30926     0.00000  0.0
    352    351    353    367   5     0.00000     0.00000     1.95811  0.0
    352    351    353    368   5     0.00000     0.00000     1.95811  0.0
    365    351    353    354   5     0.00000     0.00000     1.95811  0.0
    365    351    353    367   5     0.00000     0.00000     1.25520  0.0
    365    351    353    368   5     0.00000     0.00000     1.25520  0.0
    351    353    354    355   5     0.52300    -0.09205     2.34722  0.0
    367    353    354    355   5     0.00000     0.00000     3.10034  0.0
    368    353    354    355   5     0.00000     0.00000     3.10034  0.0
    353    354    355    356   5     0.52300    -0.09205     2.34722  0.0
    353    354    355    369   5     0.00000     0.00000     3.10034  0.0
    353    354    355    370   5     0.00000     0.00000     3.10034  0.0
    354    355    356    357   5     5.25092    -2.58990     2.28446  0.0
    354    355    356    371   5     0.00000     0.00000     1.95811  0.0
    354    355    356    372   5     0.00000     0.00000     1.95811  0.0
    369    355    356    357   5     0.00000     0.00000     1.25520  0.0
    369    355    356    371   5     0.00000     0.00000     1.25520  0.0
    369    355    356    372   5     0.00000     0.00000     1.25520  0.0
    370    355    356    357   5     0.00000     0.00000     1.25520  0.0
    370    355    356    371   5     0.00000     0.00000     1.25520  0.0
    370    355    356    372   5     0.00000     0.00000     1.25520  0.0
    355    356    357    358   5     5.25092    -2.58990     2.28446  0.0
    355    356    357    373   5     0.00000     0.00000     1.25520  0.0
    355    356    357    374   5     0.00000     0.00000     1.25520  0.0
    371    356    357    358   5     0.00000     0.00000     1.95811  0.0
    371    356    357    373   5     0.00000     0.00000     1.25520  0.0
    371    356    357    374   5     0.00000     0.00000     1.25520  0.0
    372    356    357    358   5     0.00000     0.00000     1.95811  0.0
    372    356    357    373   5     0.00000     0.00000     1.25520  0.0
    372    356    357    374   5     0.00000     0.00000     1.25520  0.0
    356    357    358    359   5     0.52300    -0.09205     2.34722  0.0
    373    357    358    359   5     0.00000     0.00000     3.10034  0.0
    374    357    358    359   5     0.00000     0.00000     3.10034  0.0
    357    358    359    360   5    -5.93291    -9.87424     7.66927  0.0
    357    358    359    361   5     0.52300    -0.09205     2.34722  0.0
    357    358    359    375   5     0.00000     0.00000     3.10034  0.0
    358    359    360    376   5    -4.18400    -6.18814     1.43511  0.0
    361    359    360    376   5    -0.97069    -0.79078     1.77820  0.0
    375    359    360    376   5     0.00000     0.00000     1.62758  0.0
    358    359    361    362   5     9.36379    -9.73617    -2.85767  0.0
    358    359    361    377   5     0.00000     0.00000     1.95811  0.0
    358    359    361    378   5     0.00000     0.00000     1.95811  0.0
    360    359    361    362   5    30.90721   -15.30926     0.00000  0.0
    360    359    361    377   5     0.00000     0.00000     1.95811  0.0
    360    359    361    378   5     0.00000     0.00000     1.95811  0.0
    375    359    361    362   5     0.00000     0.00000     1.95811  0.0
    375    359    361    377   5     0.00000     0.00000     1.25520  0.0
    375    359    361    378   5     0.00000     0.00000     1.25520  0.0
    359    361    362    379   5     0.52300    -0.09205     2.34722  0.0
    377    361    362    379   5     0.00000     0.00000     3.10034  0.0
    378    361    362    379   5     0.00000     0.00000     3.10034  0.0
    361    362    379    380   5     0.52300    -0.09205     2.34722  0.0
    361    362    379    392   5     0.00000     0.00000     3.10034  0.0
    361    362    379    393   5     0.00000     0.00000     3.10034  0.0
    362    379    380    381   5    30.90721   -15.30926     0.00000  0.0
    362    379    380    382   5     5.25092    -2.58990     2.28446  0.0
    362    379    380    394   5     0.00000     0.00000     1.95811  0.0
    392    379    380    381   5     0.00000     0.00000     1.95811  0.0
    392    379    380    382   5     0.00000     0.00000     1.25520  0.0
    392    379    380    394   5     0.00000     0.00000     1.25520  0.0
    393    379    380    381   5     0.00000     0.00000     1.95811  0.0
    393    379    380    382   5     0.00000     0.00000     1.25520  0.0
    393    379    380    394   5     0.00000     0.00000     1.25520  0.0
    379    380    381    395   5    -0.97069    -0.79078     1.77820  0.0
    382    380    381    395   5    -0.97069    -0.79078     1.77820  0.0
    394    380    381    395   5     0.00000     0.00000     1.62758  0.0
    379    380    382    383   5     5.25092    -2.58990     2.28446  0.0
    379    380    382    396   5     0.00000     0.00000     1.25520  0.0
    379    380    382    397   5     0.00000     0.00000     1.25520  0.0
    381    380    382    383   5    30.90721   -15.30926     0.00000  0.0
    381    380    382    396   5     0.00000     0.00000     1.95811  0.0
    381    380    382    397   5     0.00000     0.00000     1.95811  0.0
    394    380    382    383   5     0.00000     0.00000     1.95811  0.0
    394    380    382    396   5     0.00000     0.00000     1.25520  0.0
    394    380    382    397   5     0.00000     0.00000     1.25520  0.0
    380    382    383    384   5     0.52300    -0.09205     2.34722  0.0
    396    382    383    384   5     0.00000     0.00000     3.10034  0.0
    397    382    383    384   5     0.00000     0.00000     3.10034  0.0
    382    383    384    385   5     0.52300    -0.09205     2.34722  0.0
    382    383    384    398   5     0.00000     0.00000     3.10034  0.0
    382    383    384    399   5     0.00000     0.00000     3.10034  0.0
    383    384    385    386   5     5.25092    -2.58990     2.28446  0.0
    383    384    385    400   5     0.00000     0.00000     1.95811  0.0
    383    384    385    401   5     0.00000     0.00000     1.95811  0.0
    398    384    385    386   5     0.00000     0.00000     1.25520  0.0
    398    384    385    400   5     0.00000     0.00000     1.25520  0.0
    398    384    385    401   5     0.00000     0.00000     1.25520  0.0
    399    384    385    386   5     0.00000     0.00000     1.25520  0.0
    399    384    385    400   5     0.00000     0.00000     1.25520  0.0
    399    384    385    401   5     0.00000     0.00000     1.25520  0.0
    384    385    386    387   5     5.25092    -2.58990     2.28446  0.0
    384    385    386    402   5     0.00000     0.00000     1.25520  0.0
    384    385    386    403   5     0.00000     0.00000     1.25520  0.0
    400    385    386    387   5     0.00000     0.00000     1.95811  0.0
    400    385    386    402   5     0.00000     0.00000     1.25520  0.0
    400    385    386    403   5     0.00000     0.00000     1.25520  0.0
    401    385    386    387   5     0.00000     0.00000     1.95811  0.0
    401    385    386    402   5     0.00000     0.00000     1.25520  0.0
    401    385    386    403   5     0.00000     0.00000     1.25520  0.0
    385    386    387    388   5     0.52300    -0.09205     2.34722  0.0
    402    386    387    388   5     0.00000     0.00000     3.10034  0.0
    403    386    387    388   5     0.00000     0.00000     3.10034  0.0
    386    387    388    389   5    -5.93291    -9.87424     7.66927  0.0
    386    387    388    390   5     0.52300    -0.09205     2.34722  0.0
    386    387    388    404   5     0.00000     0.00000     3.10034  0.0
    387    388    389    405   5    -4.18400    -6.18814     1.43511  0.0
    390    388    389    405   5    -0.97069    -0.79078     1.77820  0.0
    404    388    389    405   5     0.00000     0.00000     1.62758  0.0
    387    388    390    391   5     9.36379    -9.73617    -2.85767  0.0
    387    388    390    406   5     0.00000     0.00000     1.95811  0.0
    387    388    390    407   5     0.00000     0.00000     1.95811  0.0
    389    388    390    391   5    30.90721   -15.30926     0.00000  0.0
    389    388    390    406   5     0.00000     0.00000     1.95811  0.0
    389    388    390    407   5     0.00000     0.00000     1.95811  0.0
    404    388    390    391   5     0.00000     0.00000     1.95811  0.0
    404    388    390    406   5     0.00000     0.00000     1.25520  0.0
    404    388    390    407   5     0.00000     0.00000     1.25520  0.0
    388    390    391    408   5     0.52300    -0.09205     2.34722  0.0
    406    390    391    408   5     0.00000     0.00000     3.10034  0.0
    407    390    391    408   5     0.00000     0.00000     3.10034  0.0
    390    391    408    409   5     0.52300    -0.09205     2.34722  0.0
    390    391    408    421   5     0.00000     0.00000     3.10034  0.0
    390    391    408    422   5     0.00000     0.00000     3.10034  0.0
    391    408    409    410   5    30.90721   -15.30926     0.00000  0.0
    391    408    409    411   5     5.25092    -2.58990     2.28446  0.0
    391    408    409    423   5     0.00000     0.00000     1.95811  0.0
    421    408    409    410   5     0.00000     0.00000     1.95811  0.0
    421    408    409    411   5     0.00000     0.00000     1.25520  0.0
    421    408    409    423   5     0.00000     0.00000     1.25520  0.0
    422    408    409    410   5     0.00000     0.00000     1.95811  0.0
    422    408    409    411   5     0.00000     0.00000     1.25520  0.0
    422    408    409    423   5     0.00000     0.00000     1.25520  0.0
    408    409    410    424   5    -0.97069    -0.79078     1.77820  0.0
    411    409    410    424   5    -0.97069    -0.79078     1.77820  0.0
    423    409    410    424   5     0.00000     0.00000     1.62758  0.0
    408    409    411    412   5     5.25092    -2.58990     2.28446  0.0
    408    409    411    425   5     0.00000     0.00000     1.25520  0.0
    408    409    411    426   5     0.00000     0.00000     1.25520  0.0
    410    409    411    412   5    30.90721   -15.30926     0.00000  0.0
    410    409    411    425   5     0.00000     0.00000     1.95811  0.0
    410    409    411    426   5     0.00000     0.00000     1.95811  0.0
    423    409    411    412   5     0.00000     0.00000     1.95811  0.0
    423    409    411    425   5     0.00000     0.00000     1.25520  0.0
    423    409    411    426   5     0.00000     0.00000     1.25520  0.0
    409    411    412    413   5     0.52300    -0.09205     2.34722  0.0
    425    411    412    413   5     0.00000     0.00000     3.10034  0.0
    426    411    412    413   5     0.00000     0.00000     3.10034  0.0
    411    412    413    414   5     0.52300    -0.09205     2.34722  0.0
    411    412    413    427   5     0.00000     0.00000     3.10034  0.0
    411    412    413    428   5     0.00000     0.00000     3.10034  0.0
    412    413    414    415   5     5.25092    -2.58990     2.28446  0.0
    412    413    414    429   5     0.00000     0.00000     1.95811  0.0
    412    413    414    430   5     0.00000     0.00000     1.95811  0.0
    427    413    414    415   5     0.00000     0.00000     1.25520  0.0
    427    413    414    429   5     0.00000     0.00000     1.25520  0.0
    427    413    414    430   5     0.00000     0.00000     1.25520  0.0
    428    413    414    415   5     0.00000     0.00000     1.25520  0.0
    428    413    414    429   5     0.00000     0.00000     1.25520  0.0
    428    413    414    430   5     0.00000     0.00000     1.25520  0.0
    413    414    415    416   5     5.25092    -2.58990     2.28446  0.0
    413    414    415    431   5     0.00000     0.00000     1.25520  0.0
    413    414    415    432   5     0.00000     0.00000     1.25520  0.0
    429    414    415    416   5     0.00000     0.00000     1.95811  0.0
    429    414    415    431   5     0.00000     0.00000     1.25520  0.0
    429    414    415    432   5     0.00000     0.00000     1.25520  0.0
    430    414    415    416   5     0.00000     0.00000     1.95811  0.0
    430    414    415    431   5     0.00000     0.00000     1.25520  0.0
    430    414    415    432   5     0.00000     0.00000     1.25520  0.0
    414    415    416    417   5     0.52300    -0.09205     2.34722  0.0
    431    415    416    417   5     0.00000     0.00000     3.10034  0.0
    432    415    416    417   5     0.00000     0.00000     3.10034  0.0
    415    416    417    418   5    -5.93291    -9.87424     7.66927  0.0
    415    416    417    419   5     0.52300    -0.09205     2.34722  0.0
    415    416    417    433   5     0.00000     0.00000     3.10034  0.0
    416    417    418    434   5    -4.18400    -6.18814     1.43511  0.0
    419    417    418    434   5    -0.97069    -0.79078     1.77820  0.0
    433    417    418    434   5     0.00000     0.00000     1.62758  0.0
    416    417    419    420   5     9.36379    -9.73617    -2.85767  0.0
    416    417    419    435   5     0.00000     0.00000     1.95811  0.0
    416    417    419    436   5     0.00000     0.00000     1.95811  0.0
    418    417    419    420   5    30.90721   -15.30926     0.00000  0.0
    418    417    419    435   5     0.00000     0.00000     1.95811  0.0
    418    417    419    436   5     0.00000     0.00000     1.95811  0.0
    433    417    419    420   5     0.00000     0.00000     1.95811  0.0
    433    417    419    435   5     0.00000     0.00000     1.25520  0.0
    433    417    419    436   5     0.00000     0.00000     1.25520  0.0
    417    419    420    437   5     0.52300    -0.09205     2.34722  0.0
    435    419    420    437   5     0.00000     0.00000     3.10034  0.0
    436    419    420    437   5     0.00000     0.00000     3.10034  0.0
    419    420    437    438   5     0.52300    -0.09205     2.34722  0.0
    419    420    437    450   5     0.00000     0.00000     3.10034  0.0
    419    420    437    451   5     0.00000     0.00000     3.10034  0.0
    420    437    438    439   5    30.90721   -15.30926     0.00000  0.0
    420    437    438    440   5     5.25092    -2.58990     2.28446  0.0
    420    437    438    452   5     0.00000     0.00000     1.95811  0.0
    450    437    438    439   5     0.00000     0.00000     1.95811  0.0
    450    437    438    440   5     0.00000     0.00000     1.25520  0.0
    450    437    438    452   5     0.00000     0.00000     1.25520  0.0
    451    437    438    439   5     0.00000     0.00000     1.95811  0.0
    451    437    438    440   5     0.00000     0.00000     1.25520  0.0
    451    437    438    452   5     0.00000     0.00000     1.25520  0.0
    437    438    439    453   5    -0.97069    -0.79078     1.77820  0.0
    440    438    439    453   5    -0.97069    -0.79078     1.77820  0.0
    452    438    439    453   5     0.00000     0.00000     1.62758  0.0
    437    438    440    441   5     5.25092    -2.58990     2.28446  0.0
    437    438    440    454   5     0.00000     0.00000     1.25520  0.0
    437    438    440    455   5     0.00000     0.00000     1.25520  0.0
    439    438    440    441   5    30.90721   -15.30926     0.00000  0.0
    439    438    440    454   5     0.00000     0.00000     1.95811  0.0
    439    438    440    455   5     0.00000     0.00000     1.95811  0.0
    452    438    440    441   5     0.00000     0.00000     1.95811  0.0
    452    438    440    454   5     0.00000     0.00000     1.25520  0.0
    452    438    440    455   5     0.00000     0.00000     1.25520  0.0
    438    440    441    442   5     0.52300    -0.09205     2.34722  0.0
    454    440    441    442   5     0.00000     0.00000     3.10034  0.0
    455    440    441    442   5     0.00000     0.00000     3.10034  0.0
    440    441    442    443   5     0.52300    -0.09205     2.34722  0.0
    440    441    442    456   5     0.00000     0.00000     3.10034  0.0
    440    441    442    457   5     0.00000     0.00000     3.10034  0.0
    441    442    443    444   5     5.25092    -2.58990     2.28446  0.0
    441    442    443    458   5     0.00000     0.00000     1.95811  0.0
    441    442    443    459   5     0.00000     0.00000     1.95811  0.0
    456    442    443    444   5     0.00000     0.00000     1.25520  0.0
    456    442    443    458   5     0.00000     0.00000     1.25520  0.0
    456    442    443    459   5     0.00000     0.00000     1.25520  0.0
    457    442    443    444   5     0.00000     0.00000     1.25520  0.0
    457    442    443    458   5     0.00000     0.00000     1.25520  0.0
    457    442    443    459   5     0.00000     0.00000     1.25520  0.0
    442    443    444    445   5     5.25092    -2.58990     2.28446  0.0
    442    443    444    460   5     0.00000     0.00000     1.25520  0.0
    442    443    444    461   5     0.00000     0.00000     1.25520  0.0
    458    443    444    445   5     0.00000     0.00000     1.95811  0.0
    458    443    444    460   5     0.00000     0.00000     1.25520  0.0
    458    443    444    461   5     0.00000     0.00000     1.25520  0.0
    459    443    444    445   5     0.00000     0.00000     1.95811  0.0
    459    443    444    460   5     0.00000     0.00000     1.25520  0.0
    459    443    444    461   5     0.00000     0.00000     1.25520  0.0
    443    444    445    446   5     0.52300    -0.09205     2.34722  0.0
    460    444    445    446   5     0.00000     0.00000     3.10034  0.0
    461    444    445    446   5     0.00000     0.00000     3.10034  0.0
    444    445    446    447   5    -5.93291    -9.87424     7.66927  0.0
    444    445    446    448   5     0.52300    -0.09205     2.34722  0.0
    444    445    446    462   5     0.00000     0.00000     3.10034  0.0
    445    446    447    463   5    -4.18400    -6.18814     1.43511  0.0
    448    446    447    463   5    -0.97069    -0.79078     1.77820  0.0
    462    446    447    463   5     0.00000     0.00000     1.62758  0.0
    445    446    448    449   5     9.36379    -9.73617    -2.85767  0.0
    445    446    448    464   5     0.00000     0.00000     1.95811  0.0
    445    446    448    465   5     0.00000     0.00000     1.95811  0.0
    447    446    448    449   5    30.90721   -15.30926     0.00000  0.0
    447    446    448    464   5     0.00000     0.00000     1.95811  0.0
    447    446    448    465   5     0.00000     0.00000     1.95811  0.0
    462    446    448    449   5     0.00000     0.00000     1.95811  0.0
    462    446    448    464   5     0.00000     0.00000     1.25520  0.0
    462    446    448    465   5     0.00000     0.00000     1.25520  0.0
    446    448    449    466   5     0.52300    -0.09205     2.34722  0.0
    464    448    449    466   5     0.00000     0.00000     3.10034  0.0
    465    448    449    466   5     0.00000     0.00000     3.10034  0.0
    448    449    466    467   5     0.52300    -0.09205     2.34722  0.0
    448    449    466    479   5     0.00000     0.00000     3.10034  0.0
    448    449    466    480   5     0.00000     0.00000     3.10034  0.0
    449    466    467    468   5    30.90721   -15.30926     0.00000  0.0
    449    466    467    469   5     5.25092    -2.58990     2.28446  0.0
    449    466    467    481   5     0.00000     0.00000     1.95811  0.0
    479    466    467    468   5     0.00000     0.00000     1.95811  0.0
    479    466    467    469   5     0.00000     0.00000     1.25520  0.0
    479    466    467    481   5     0.00000     0.00000     1.25520  0.0
    480    466    467    468   5     0.00000     0.00000     1.95811  0.0
    480    466    467    469   5     0.00000     0.00000     1.25520  0.0
    480    466    467    481   5     0.00000     0.00000     1.25520  0.0
    466    467    468    482   5    -0.97069    -0.79078     1.77820  0.0
    469    467    468    482   5    -0.97069    -0.79078     1.77820  0.0
    481    467    468    482   5     0.00000     0.00000     1.62758  0.0
    466    467    469    470   5     5.25092    -2.58990     2.28446  0.0
    466    467    469    483   5     0.00000     0.00000     1.25520  0.0
    466    467    469    484   5     0.00000     0.00000     1.25520  0.0
    468    467    469    470   5    30.90721   -15.30926     0.00000  0.0
    468    467    469    483   5     0.00000     0.00000     1.95811  0.0
    468    467    469    484   5     0.00000     0.00000     1.95811  0.0
    481    467    469    470   5     0.00000     0.00000     1.95811  0.0
    481    467    469    483   5     0.00000     0.00000     1.25520  0.0
    481    467    469    484   5     0.00000     0.00000     1.25520  0.0
    467    469    470    471   5     0.52300    -0.09205     2.34722  0.0
    483    469    470    471   5     0.00000     0.00000     3.10034  0.0
    484    469    470    471   5     0.00000     0.00000     3.10034  0.0
    469    470    471    472   5     0.52300    -0.09205     2.34722  0.0
    469    470    471    485   5     0.00000     0.00000     3.10034  0.0
    469    470    471    486   5     0.00000     0.00000     3.10034  0.0
    470    471    472    473   5     5.25092    -2.58990     2.28446  0.0
    470    471    472    487   5     0.00000     0.00000     1.95811  0.0
    470    471    472    488   5     0.00000     0.00000     1.95811  0.0
    485    471    472    473   5     0.00000     0.00000     1.25520  0.0
    485    471    472    487   5     0.00000     0.00000     1.25520  0.0
    485    471    472    488   5     0.00000     0.00000     1.25520  0.0
    486    471    472    473   5     0.00000     0.00000     1.25520  0.0
    486    471    472    487   5     0.00000     0.00000     1.25520  0.0
    486    471    472    488   5     0.00000     0.00000     1.25520  0.0
    471    472    473    474   5     5.25092    -2.58990     2.28446  0.0
    471    472    473    489   5     0.00000     0.00000     1.25520  0.0
    471    472    473    490   5     0.00000     0.00000     1.25520  0.0
    487    472    473    474   5     0.00000     0.00000     1.95811  0.0
    487    472    473    489   5     0.00000     0.00000     1.25520  0.0
    487    472    473    490   5     0.00000     0.00000     1.25520  0.0
    488    472    473    474   5     0.00000     0.00000     1.95811  0.0
    488    472    473    489   5     0.00000     0.00000     1.25520  0.0
    488    472    473    490   5     0.00000     0.00000     1.25520  0.0
    472    473    474    475   5     0.52300    -0.09205     2.34722  0.0
    489    473    474    475   5     0.00000     0.00000     3.10034  0.0
    490    473    474    475   5     0.00000     0.00000     3.10034  0.0
    473    474    475    476   5    -5.93291    -9.87424     7.66927  0.0
    473    474    475    477   5     0.52300    -0.09205     2.34722  0.0
    473    474    475    491   5     0.00000     0.00000     3.10034  0.0
    474    475    476    492   5    -4.18400    -6.18814     1.43511  0.0
    477    475    476    492   5    -0.97069    -0.79078     1.77820  0.0
    491    475    476    492   5     0.00000     0.00000     1.62758  0.0
    474    475    477    478   5     9.36379    -9.73617    -2.85767  0.0
    474    475    477    493   5     0.00000     0.00000     1.95811  0.0
    474    475    477    494   5     0.00000     0.00000     1.95811  0.0
    476    475    477    478   5    30.90721   -15.30926     0.00000  0.0
    476    475    477    493   5     0.00000     0.00000     1.95811  0.0
    476    475    477    494   5     0.00000     0.00000     1.95811  0.0
    491    475    477    478   5     0.00000     0.00000     1.95811  0.0
    491    475    477    493   5     0.00000     0.00000     1.25520  0.0
    491    475    477    494   5     0.00000     0.00000     1.25520  0.0
    475    477    478    495   5     0.52300    -0.09205     2.34722  0.0
    493    477    478    495   5     0.00000     0.00000     3.10034  0.0
    494    477    478    495   5     0.00000     0.00000     3.10034  0.0
    477    478    495    496   5     0.52300    -0.09205     2.34722  0.0
    477    478    495    508   5     0.00000     0.00000     3.10034  0.0
    477    478    495    509   5     0.00000     0.00000     3.10034  0.0
    478    495    496    497   5    30.90721   -15.30926     0.00000  0.0
    478    495    496    498   5     5.25092    -2.58990     2.28446  0.0
    478    495    496    510   5     0.00000     0.00000     1.95811  0.0
    508    495    496    497   5     0.00000     0.00000     1.95811  0.0
    508    495    496    498   5     0.00000     0.00000     1.25520  0.0
    508    495    496    510   5     0.00000     0.00000     1.25520  0.0
    509    495    496    497   5     0.00000     0.00000     1.95811  0.0
    509    495    496    498   5     0.00000     0.00000     1.25520  0.0
    509    495    496    510   5     0.00000     0.00000     1.25520  0.0
    495    496    497    511   5    -0.97069    -0.79078     1.77820  0.0
    498    496    497    511   5    -0.97069    -0.79078     1.77820  0.0
    510    496    497    511   5     0.00000     0.00000     1.62758  0.0
    495    496    498    499   5     5.25092    -2.58990     2.28446  0.0
    495    496    498    512   5     0.00000     0.00000     1.25520  0.0
    495    496    498    513   5     0.00000     0.00000     1.25520  0.0
    497    496    498    499   5    30.90721   -15.30926     0.00000  0.0
    497    496    498    512   5     0.00000     0.00000     1.95811  0.0
    497    496    498    513   5     0.00000     0.00000     1.95811  0.0
    510    496    498    499   5     0.00000     0.00000     1.95811  0.0
    510    496    498    512   5     0.00000     0.00000     1.25520  0.0
    510    496    498    513   5     0.00000     0.00000     1.25520  0.0
    496    498    499    500   5     0.52300    -0.09205     2.34722  0.0
    512    498    499    500   5     0.00000     0.00000     3.10034  0.0
    513    498    499    500   5     0.00000     0.00000     3.10034  0.0
    498    499    500    501   5     0.52300    -0.09205     2.34722  0.0
    498    499    500    514   5     0.00000     0.00000     3.10034  0.0
    498    499    500    515   5     0.00000     0.00000     3.10034  0.0
    499    500    501    502   5     5.25092    -2.58990     2.28446  0.0
    499    500    501    516   5     0.00000     0.00000     1.95811  0.0
    499    500    501    517   5     0.00000     0.00000     1.95811  0.0
    514    500    501    502   5     0.00000     0.00000     1.25520  0.0
    514    500    501    516   5     0.00000     0.00000     1.25520  0.0
    514    500    501    517   5     0.00000     0.00000     1.25520  0.0
    515    500    501    502   5     0.00000     0.00000     1.25520  0.0
    515    500    501    516   5     0.00000     0.00000     1.25520  0.0
    515    500    501    517   5     0.00000     0.00000     1.25520  0.0
    500    501    502    503   5     5.25092    -2.58990     2.28446  0.0
    500    501    502    518   5     0.00000     0.00000     1.25520  0.0
    500    501    502    519   5     0.00000     0.00000     1.25520  0.0
    516    501    502    503   5     0.00000     0.00000     1.95811  0.0
    516    501    502    518   5     0.00000     0.00000     1.25520  0.0
    516    501    502    519   5     0.00000     0.00000     1.25520  0.0
    517    501    502    503   5     0.00000     0.00000     1.95811  0.0
    517    501    502    518   5     0.00000     0.00000     1.25520  0.0
    517    501    502    519   5     0.00000     0.00000     1.25520  0.0
    501    502    503    504   5     0.52300    -0.09205     2.34722  0.0
    518    502    503    504   5     0.00000     0.00000     3.10034  0.0
    519    502    503    504   5     0.00000     0.00000     3.10034  0.0
    502    503    504    505   5    -5.93291    -9.87424     7.66927  0.0
    502    503    504    506   5     0.52300    -0.09205     2.34722  0.0
    502    503    504    520   5     0.00000     0.00000     3.10034  0.0
    503    504    505    521   5    -4.18400    -6.18814     1.43511  0.0
    506    504    505    521   5    -0.97069    -0.79078     1.77820  0.0
    520    504    505    521   5     0.00000     0.00000     1.62758  0.0
    503    504    506    507   5     9.36379    -9.73617    -2.85767  0.0
    503    504    506    522   5     0.00000     0.00000     1.95811  0.0
    503    504    506    523   5     0.00000     0.00000     1.95811  0.0
    505    504    506    507   5    30.90721   -15.30926     0.00000  0.0
    505    504    506    522   5     0.00000     0.00000     1.95811  0.0
    505    504    506    523   5     0.00000     0.00000     1.95811  0.0
    520    504    506    507   5     0.00000     0.00000     1.95811  0.0
    520    504    506    522   5     0.00000     0.00000     1.25520  0.0
    520    504    506    523   5     0.00000     0.00000     1.25520  0.0
    504    506    507    524   5     0.52300    -0.09205     2.34722  0.0
    522    506    507    524   5     0.00000     0.00000     3.10034  0.0
    523    506    507    524   5     0.00000     0.00000     3.10034  0.0
    506    507    524    525   5     0.52300    -0.09205     2.34722  0.0
    506    507    524    537   5     0.00000     0.00000     3.10034  0.0
    506    507    524    538   5     0.00000     0.00000     3.10034  0.0
    507    524    525    526   5    30.90721   -15.30926     0.00000  0.0
    507    524    525    527   5     5.25092    -2.58990     2.28446  0.0
    507    524    525    539   5     0.00000     0.00000     1.95811  0.0
    537    524    525    526   5     0.00000     0.00000     1.95811  0.0
    537    524    525    527   5     0.00000     0.00000     1.25520  0.0
    537    524    525    539   5     0.00000     0.00000     1.25520  0.0
    538    524    525    526   5     0.00000     0.00000     1.95811  0.0
    538    524    525    527   5     0.00000     0.00000     1.25520  0.0
    538    524    525    539   5     0.00000     0.00000     1.25520  0.0
    524    525    526    540   5    -0.97069    -0.79078     1.77820  0.0
    527    525    526    540   5    -0.97069    -0.79078     1.77820  0.0
    539    525    526    540   5     0.00000     0.00000     1.62758  0.0
    524    525    527    528   5     5.25092    -2.58990     2.28446  0.0
    524    525    527    541   5     0.00000     0.00000     1.25520  0.0
    524    525    527    542   5     0.00000     0.00000     1.25520  0.0
    526    525    527    528   5    30.90721   -15.30926     0.00000  0.0
    526    525    527    541   5     0.00000     0.00000     1.95811  0.0
    526    525    527    542   5     0.00000     0.00000     1.95811  0.0
    539    525    527    528   5     0.00000     0.00000     1.95811  0.0
    539    525    527    541   5     0.00000     0.00000     1.25520  0.0
    539    525    527    542   5     0.00000     0.00000     1.25520  0.0
    525    527    528    529   5     0.52300    -0.09205     2.34722  0.0
    541    527    528    529   5     0.00000     0.00000     3.10034  0.0
    542    527    528    529   5     0.00000     0.00000     3.10034  0.0
    527    528    529    530   5     0.52300    -0.09205     2.34722  0.0
    527    528    529    543   5     0.00000     0.00000     3.10034  0.0
    527    528    529    544   5     0.00000     0.00000     3.10034  0.0
    528    529    530    531   5     5.25092    -2.58990     2.28446  0.0
    528    529    530    545   5     0.00000     0.00000     1.95811  0.0
    528    529    530    546   5     0.00000     0.00000     1.95811  0.0
    543    529    530    531   5     0.00000     0.00000     1.25520  0.0
    543    529    530    545   5     0.00000     0.00000     1.25520  0.0
    543    529    530    546   5     0.00000     0.00000     1.25520  0.0
    544    529    530    531   5     0.00000     0.00000     1.25520  0.0
    544    529    530    545   5     0.00000     0.00000     1.25520  0.0
    544    529    530    546   5     0.00000     0.00000     1.25520  0.0
    529    530    531    532   5     5.25092    -2.58990     2.28446  0.0
    529    530    531    547   5     0.00000     0.00000     1.25520  0.0
    529    530    531    548   5     0.00000     0.00000     1.25520  0.0
    545    530    531    532   5     0.00000     0.00000     1.95811  0.0
    545    530    531    547   5     0.00000     0.00000     1.25520  0.0
    545    530    531    548   5     0.00000     0.00000     1.25520  0.0
    546    530    531    532   5     0.00000     0.00000     1.95811  0.0
    546    530    531    547   5     0.00000     0.00000     1.25520  0.0
    546    530    531    548   5     0.00000     0.00000     1.25520  0.0
    530    531    532    533   5     0.52300    -0.09205     2.34722  0.0
    547    531    532    533   5     0.00000     0.00000     3.10034  0.0
    548    531    532    533   5     0.00000     0.00000     3.10034  0.0
    531    532    533    534   5    -5.93291    -9.87424     7.66927  0.0
    531    532    533    535   5     0.52300    -0.09205     2.34722  0.0
    531    532    533    549   5     0.00000     0.00000     3.10034  0.0
    532    533    534    550   5    -4.18400    -6.18814     1.43511  0.0
    535    533    534    550   5    -0.97069    -0.79078     1.77820  0.0
    549    533    534    550   5     0.00000     0.00000     1.62758  0.0
    532    533    535    536   5     9.36379    -9.73617    -2.85767  0.0
    532    533    535    551   5     0.00000     0.00000     1.95811  0.0
    532    533    535    552   5     0.00000     0.00000     1.95811  0.0
    534    533    535    536   5    30.90721   -15.30926     0.00000  0.0
    534    533    535    551   5     0.00000     0.00000     1.95811  0.0
    534    533    535    552   5     0.00000     0.00000     1.95811  0.0
    549    533    535    536   5     0.00000     0.00000     1.95811  0.0
    549    533    535    551   5     0.00000     0.00000     1.25520  0.0
    549    533    535    552   5     0.00000     0.00000     1.25520  0.0
    533    535    536    553   5     0.52300    -0.09205     2.34722  0.0
    551    535    536    553   5     0.00000     0.00000     3.10034  0.0
    552    535    536    553   5     0.00000     0.00000     3.10034  0.0
    535    536    553    554   5     0.52300    -0.09205     2.34722  0.0
    535    536    553    566   5     0.00000     0.00000     3.10034  0.0
    535    536    553    567   5     0.00000     0.00000     3.10034  0.0
    536    553    554    555   5    30.90721   -15.30926     0.00000  0.0
    536    553    554    556   5     5.25092    -2.58990     2.28446  0.0
    536    553    554    568   5     0.00000     0.00000     1.95811  0.0
    566    553    554    555   5     0.00000     0.00000     1.95811  0.0
    566    553    554    556   5     0.00000     0.00000     1.25520  0.0
    566    553    554    568   5     0.00000     0.00000     1.25520  0.0
    567    553    554    555   5     0.00000     0.00000     1.95811  0.0
    567    553    554    556   5     0.00000     0.00000     1.25520  0.0
    567    553    554    568   5     0.00000     0.00000     1.25520  0.0
    553    554    555    569   5    -0.97069    -0.79078     1.77820  0.0
    556    554    555    569   5    -0.97069    -0.79078     1.77820  0.0
    568    554    555    569   5     0.00000     0.00000     1.62758  0.0
    553    554    556    557   5     5.25092    -2.58990     2.28446  0.0
    553    554    556    570   5     0.00000     0.00000     1.25520  0.0
    553    554    556    571   5     0.00000     0.00000     1.25520  0.0
    555    554    556    557   5    30.90721   -15.30926     0.00000  0.0
    555    554    556    570   5     0.00000     0.00000     1.95811  0.0
    555    554    556    571   5     0.00000     0.00000     1.95811  0.0
    568    554    556    557   5     0.00000     0.00000     1.95811  0.0
    568    554    556    570   5     0.00000     0.00000     1.25520  0.0
    568    554    556    571   5     0.00000     0.00000     1.25520  0.0
    554    556    557    558   5     0.52300    -0.09205     2.34722  0.0
    570    556    557    558   5     0.00000     0.00000     3.10034  0.0
    571    556    557    558   5     0.00000     0.00000     3.10034  0.0
    556    557    558    559   5     0.52300    -0.09205     2.34722  0.0
    556    557    558    572   5     0.00000     0.00000     3.10034  0.0
    556    557    558    573   5     0.00000     0.00000     3.10034  0.0
    557    558    559    560   5     5.25092    -2.58990     2.28446  0.0
    557    558    559    574   5     0.00000     0.00000     1.95811  0.0
    557    558    559    575   5     0.00000     0.00000     1.95811  0.0
    572    558    559    560   5     0.00000     0.00000     1.25520  0.0
    572    558    559    574   5     0.00000     0.00000     1.25520  0.0
    572    558    559    575   5     0.00000     0.00000     1.25520  0.0
    573    558    559    560   5     0.00000     0.00000     1.25520  0.0
    573    558    559    574   5     0.00000     0.00000     1.25520  0.0
    573    558    559    575   5     0.00000     0.00000     1.25520  0.0
    558    559    560    561   5     5.25092    -2.58990     2.28446  0.0
    558    559    560    576   5     0.00000     0.00000     1.25520  0.0
    558    559    560    577   5     0.00000     0.00000     1.25520  0.0
    574    559    560    561   5     0.00000     0.00000     1.95811  0.0
    574    559    560    576   5     0.00000     0.00000     1.25520  0.0
    574    559    560    577   5     0.00000     0.00000     1.25520  0.0
    575    559    560    561   5     0.00000     0.00000     1.95811  0.0
    575    559    560    576   5     0.00000     0.00000     1.25520  0.0
    575    559    560    577   5     0.00000     0.00000     1.25520  0.0
    559    560    561    562   5     0.52300    -0.09205     2.34722  0.0
    576    560    561    562   5     0.00000     0.00000     3.10034  0.0
    577    560    561    562   5     0.00000     0.00000     3.10034  0.0
    560    561    562    563   5    -5.93291    -9.87424     7.66927  0.0
    560    561    562    564   5     0.52300    -0.09205     2.34722  0.0
    560    561    562    578   5     0.00000     0.00000     3.10034  0.0
    561    562    563    579   5    -4.18400    -6.18814     1.43511  0.0
    564    562    563    579   5    -0.97069    -0.79078     1.77820  0.0
    578    562    563    579   5     0.00000     0.00000     1.62758  0.0
    561    562    564    565   5    30.90721   -15.30926     0.00000  0.0
    561    562    564    580   5     0.00000     0.00000     1.95811  0.0
    561    562    564    581   5     0.00000     0.00000     1.95811  0.0
    563    562    564    565   5    31.41766     0.00000     0.00000  0.0
    563    562    564    580   5     0.00000     0.00000     1.95811  0.0
    563    562    564    581   5     0.00000     0.00000     1.95811  0.0
    578    562    564    565   5     0.00000     0.00000     1.95811  0.0
    578    562    564    580   5     0.00000     0.00000     1.25520  0.0
    578    562    564    581   5     0.00000     0.00000     1.25520  0.0
    562    564    565    582   5    -0.97069    -0.79078     1.77820  0.0
    580    564    565    582   5     0.00000     0.00000     1.62758  0.0
    581    564    565    582   5     0.00000     0.00000     1.62758  0.0
